%VERSION  VERSION_STAMP = V0001.000  DATE = 10/02/26  14:51:38                  
%FLAG TITLE                                                                     
%FORMAT(20a4)                                                                   
default_name                                                                    
%FLAG POINTERS                                                                  
%FORMAT(10I8)                                                                   
   32629      14   32049     641    1332     948    2958    2206       0       0
   49086   10522     641     948    2206      25      47      36      17       0
       0       0       0       0       0       0       0       1      55       0
       0
%FLAG ATOM_NAME                                                                 
%FORMAT(20a4)                                                                   
C   C1  C2  C3  C4  C5  C6  C7  C8  C9  C10 C11 C12 C13 C14 C15 H   H1  H2  H3  
H4  H5  H6  H7  H8  H9  CC  HC1 HC2 O   C   C1  H   C2  C3  C4  C6  C7  C8  H1  
N   C10 C11 C12 C13 O1  C14 C15 O2  C16 C17 O3  O4  C18 O5  C19 O6  C20 O7  H2  
H3  H6  H7  H8  H9  H12 H13 H14 H15 H16 H17 H18 H19 H20 H21 H22 H23 H24 H25 H26 
H27 H28 H29 H30 O   C   C1  H   C2  C3  C4  C6  C7  C8  H1  N   C10 C11 C12 C13 
O1  C14 C15 O2  C16 C17 O3  O4  C18 O5  C19 O6  C20 O7  H2  H3  H6  H7  H8  H9  
H12 H13 H14 H15 H16 H17 H18 H19 H20 H21 H22 H23 H24 H25 H26 H27 H28 H29 H30 O   
C   C1  H   C2  C3  C4  C6  C7  C8  H1  N   C10 C11 C12 C13 O1  C14 C15 O2  C16 
C17 O3  O4  C18 O5  C19 O6  C20 O7  H2  H3  H6  H7  H8  H9  H12 H13 H14 H15 H16 
H17 H18 H19 H20 H21 H22 H23 H24 H25 H26 H27 H28 H29 H30 O   C   C1  H   C2  C3  
C4  C6  C7  C8  H1  N   C10 C11 C12 C13 O1  C14 C15 O2  C16 C17 O3  O4  C18 O5  
C19 O6  C20 O7  H2  H3  H6  H7  H8  H9  H12 H13 H14 H15 H16 H17 H18 H19 H20 H21 
H22 H23 H24 H25 H26 H27 H28 H29 H30 O   C   C1  H   C2  C3  C4  C6  C7  C8  H1  
N   C10 C11 C12 C13 O1  C14 C15 O2  C16 C17 O3  O4  C18 O5  C19 O6  C20 O7  H2  
H3  H6  H7  H8  H9  H12 H13 H14 H15 H16 H17 H18 H19 H20 H21 H22 H23 H24 H25 H26 
H27 H28 H29 H30 O   C   C1  H   C2  C3  C4  C6  C7  C8  H1  N   C10 C11 C12 C13 
O1  C14 C15 O2  C16 C17 O3  O4  C18 O5  C19 O6  C20 O7  H2  H3  H6  H7  H8  H9  
H12 H13 H14 H15 H16 H17 H18 H19 H20 H21 H22 H23 H24 H25 H26 H27 H28 H29 H30 O   
C   C1  H   C2  C3  C4  C6  C7  C8  H1  N   C10 C11 C12 C13 O1  C14 C15 O2  C16 
C17 O3  O4  C18 O5  C19 O6  C20 O7  H2  H3  H6  H7  H8  H9  H12 H13 H14 H15 H16 
H17 H18 H19 H20 H21 H22 H23 H24 H25 H26 H27 H28 H29 H30 O   C   C1  H   C2  C3  
C4  C6  C7  C8  H1  N   C10 C11 C12 C13 O1  C14 C15 O2  C16 C17 O3  O4  C18 O5  
C19 O6  C20 O7  H2  H3  H6  H7  H8  H9  H12 H13 H14 H15 H16 H17 H18 H19 H20 H21 
H22 H23 H24 H25 H26 H27 H28 H29 H30 O   C   C1  H   C2  C3  C4  C6  C7  C8  H1  
N   C10 C11 C12 C13 O1  C14 C15 O2  C16 C17 O3  O4  C18 O5  C19 O6  C20 O7  H2  
H3  H6  H7  H8  H9  H12 H13 H14 H15 H16 H17 H18 H19 H20 H21 H22 H23 H24 H25 H26 
H27 H28 H29 H30 O   C   C1  H   C2  C3  C4  C6  C7  C8  H1  N   C10 C11 C12 C13 
O1  C14 C15 O2  C16 C17 O3  O4  C18 O5  C19 O6  C20 O7  H2  H3  H6  H7  H8  H9  
H12 H13 H14 H15 H16 H17 H18 H19 H20 H21 H22 H23 H24 H25 H26 H27 H28 H29 H30 CC  
HC1 HC2 CC  HC1 HC2 O   C   C1  H   C2  C3  C4  C6  C7  C8  H1  N   C10 C11 C12 
C13 O1  C14 C15 O2  C16 C17 O3  O4  C18 O5  C19 O6  C20 O7  H2  H3  H6  H7  H8  
H9  H12 H13 H14 H15 H16 H17 H18 H19 H20 H21 H22 H23 H24 H25 H26 H27 H28 H29 H30 
O   C   C1  H   C2  C3  C4  C6  C7  C8  H1  N   C10 C11 C12 C13 O1  C14 C15 O2  
C16 C17 O3  O4  C18 O5  C19 O6  C20 O7  H2  H3  H6  H7  H8  H9  H12 H13 H14 H15 
H16 H17 H18 H19 H20 H21 H22 H23 H24 H25 H26 H27 H28 H29 H30 O   C   C1  H   C2  
C3  C4  C6  C7  C8  H1  N   C10 C11 C12 C13 O1  C14 C15 O2  C16 C17 O3  O4  C18 
O5  C19 O6  C20 O7  H2  H3  H6  H7  H8  H9  H12 H13 H14 H15 H16 H17 H18 H19 H20 
H21 H22 H23 H24 H25 H26 H27 H28 H29 H30 O   C   C1  H   C2  C3  C4  C6  C7  C8  
H1  N   C10 C11 C12 C13 O1  C14 C15 O2  C16 C17 O3  O4  C18 O5  C19 O6  C20 O7  
H2  H3  H6  H7  H8  H9  H12 H13 H14 H15 H16 H17 H18 H19 H20 H21 H22 H23 H24 H25 
H26 H27 H28 H29 H30 O   C   C1  H   C2  C3  C4  C6  C7  C8  H1  N   C10 C11 C12 
C13 O1  C14 C15 O2  C16 C17 O3  O4  C18 O5  C19 O6  C20 O7  H2  H3  H6  H7  H8  
H9  H12 H13 H14 H15 H16 H17 H18 H19 H20 H21 H22 H23 H24 H25 H26 H27 H28 H29 H30 
O   C   C1  H   C2  C3  C4  C6  C7  C8  H1  N   C10 C11 C12 C13 O1  C14 C15 O2  
C16 C17 O3  O4  C18 O5  C19 O6  C20 O7  H2  H3  H6  H7  H8  H9  H12 H13 H14 H15 
H16 H17 H18 H19 H20 H21 H22 H23 H24 H25 H26 H27 H28 H29 H30 O   C   C1  H   C2  
C3  C4  C6  C7  C8  H1  N   C10 C11 C12 C13 O1  C14 C15 O2  C16 C17 O3  O4  C18 
O5  C19 O6  C20 O7  H2  H3  H6  H7  H8  H9  H12 H13 H14 H15 H16 H17 H18 H19 H20 
H21 H22 H23 H24 H25 H26 H27 H28 H29 H30 O   C   C1  H   C2  C3  C4  C6  C7  C8  
H1  N   C10 C11 C12 C13 O1  C14 C15 O2  C16 C17 O3  O4  C18 O5  C19 O6  C20 O7  
H2  H3  H6  H7  H8  H9  H12 H13 H14 H15 H16 H17 H18 H19 H20 H21 H22 H23 H24 H25 
H26 H27 H28 H29 H30 O   C   C1  H   C2  C3  C4  C6  C7  C8  H1  N   C10 C11 C12 
C13 O1  C14 C15 O2  C16 C17 O3  O4  C18 O5  C19 O6  C20 O7  H2  H3  H6  H7  H8  
H9  H12 H13 H14 H15 H16 H17 H18 H19 H20 H21 H22 H23 H24 H25 H26 H27 H28 H29 H30 
O   C   C1  H   C2  C3  C4  C6  C7  C8  H1  N   C10 C11 C12 C13 O1  C14 C15 O2  
C16 C17 O3  O4  C18 O5  C19 O6  C20 O7  H2  H3  H6  H7  H8  H9  H12 H13 H14 H15 
H16 H17 H18 H19 H20 H21 H22 H23 H24 H25 H26 H27 H28 H29 H30 CC  HC1 HC2 O   H1  
H2  O   H1  H2  O   H1  H2  O   H1  H2  O   H1  H2  O   H1  H2  O   H1  H2  O   
H1  H2  O   H1  H2  O   H1  H2  O   H1  H2  O   H1  H2  O   H1  H2  O   H1  H2  
O   H1  H2  O   H1  H2  O   H1  H2  O   H1  H2  O   H1  H2  O   H1  H2  O   H1  
H2  O   H1  H2  O   H1  H2  O   H1  H2  O   H1  H2  O   H1  H2  O   H1  H2  O   
H1  H2  O   H1  H2  O   H1  H2  O   H1  H2  O   H1  H2  O   H1  H2  O   H1  H2  
O   H1  H2  O   H1  H2  O   H1  H2  O   H1  H2  O   H1  H2  O   H1  H2  O   H1  
H2  O   H1  H2  O   H1  H2  O   H1  H2  O   H1  H2  O   H1  H2  O   H1  H2  O   
H1  H2  O   H1  H2  O   H1  H2  O   H1  H2  O   H1  H2  O   H1  H2  O   H1  H2  
O   H1  H2  O   H1  H2  O   H1  H2  O   H1  H2  O   H1  H2  O   H1  H2  O   H1  
H2  O   H1  H2  O   H1  H2  O   H1  H2  O   H1  H2  O   H1  H2  O   H1  H2  O   
H1  H2  O   H1  H2  O   H1  H2  O   H1  H2  O   H1  H2  O   H1  H2  O   H1  H2  
O   H1  H2  O   H1  H2  O   H1  H2  O   H1  H2  O   H1  H2  O   H1  H2  O   H1  
H2  O   H1  H2  O   H1  H2  O   H1  H2  O   H1  H2  O   H1  H2  O   H1  H2  O   
H1  H2  O   H1  H2  O   H1  H2  O   H1  H2  O   H1  H2  O   H1  H2  O   H1  H2  
O   H1  H2  O   H1  H2  O   H1  H2  O   H1  H2  O   H1  H2  O   H1  H2  O   H1  
H2  O   H1  H2  O   H1  H2  O   H1  H2  O   H1  H2  O   H1  H2  O   H1  H2  O   
H1  H2  O   H1  H2  O   H1  H2  O   H1  H2  O   H1  H2  O   H1  H2  O   H1  H2  
O   H1  H2  O   H1  H2  O   H1  H2  O   H1  H2  O   H1  H2  O   H1  H2  O   H1  
H2  O   H1  H2  O   H1  H2  O   H1  H2  O   H1  H2  O   H1  H2  O   H1  H2  O   
H1  H2  O   H1  H2  O   H1  H2  O   H1  H2  O   H1  H2  O   H1  H2  O   H1  H2  
O   H1  H2  O   H1  H2  O   H1  H2  O   H1  H2  O   H1  H2  O   H1  H2  O   H1  
H2  O   H1  H2  O   H1  H2  O   H1  H2  O   H1  H2  O   H1  H2  O   H1  H2  O   
H1  H2  O   H1  H2  O   H1  H2  O   H1  H2  O   H1  H2  O   H1  H2  O   H1  H2  
O   H1  H2  O   H1  H2  O   H1  H2  O   H1  H2  O   H1  H2  O   H1  H2  O   H1  
H2  O   H1  H2  O   H1  H2  O   H1  H2  O   H1  H2  O   H1  H2  O   H1  H2  O   
H1  H2  O   H1  H2  O   H1  H2  O   H1  H2  O   H1  H2  O   H1  H2  O   H1  H2  
O   H1  H2  O   H1  H2  O   H1  H2  O   H1  H2  O   H1  H2  O   H1  H2  O   H1  
H2  O   H1  H2  O   H1  H2  O   H1  H2  O   H1  H2  O   H1  H2  O   H1  H2  O   
H1  H2  O   H1  H2  O   H1  H2  O   H1  H2  O   H1  H2  O   H1  H2  O   H1  H2  
O   H1  H2  O   H1  H2  O   H1  H2  O   H1  H2  O   H1  H2  O   H1  H2  O   H1  
H2  O   H1  H2  O   H1  H2  O   H1  H2  O   H1  H2  O   H1  H2  O   H1  H2  O   
H1  H2  O   H1  H2  O   H1  H2  O   H1  H2  O   H1  H2  O   H1  H2  O   H1  H2  
O   H1  H2  O   H1  H2  O   H1  H2  O   H1  H2  O   H1  H2  O   H1  H2  O   H1  
H2  O   H1  H2  O   H1  H2  O   H1  H2  O   H1  H2  O   H1  H2  O   H1  H2  O   
H1  H2  O   H1  H2  O   H1  H2  O   H1  H2  O   H1  H2  O   H1  H2  O   H1  H2  
O   H1  H2  O   H1  H2  O   H1  H2  O   H1  H2  O   H1  H2  O   H1  H2  O   H1  
H2  O   H1  H2  O   H1  H2  O   H1  H2  O   H1  H2  O   H1  H2  O   H1  H2  O   
H1  H2  O   H1  H2  O   H1  H2  O   H1  H2  O   H1  H2  O   H1  H2  O   H1  H2  
O   H1  H2  O   H1  H2  O   H1  H2  O   H1  H2  O   H1  H2  O   H1  H2  O   H1  
H2  O   H1  H2  O   H1  H2  O   H1  H2  O   H1  H2  O   H1  H2  O   H1  H2  O   
H1  H2  O   H1  H2  O   H1  H2  O   H1  H2  O   H1  H2  O   H1  H2  O   H1  H2  
O   H1  H2  O   H1  H2  O   H1  H2  O   H1  H2  O   H1  H2  O   H1  H2  O   H1  
H2  O   H1  H2  O   H1  H2  O   H1  H2  O   H1  H2  O   H1  H2  O   H1  H2  O   
H1  H2  O   H1  H2  O   H1  H2  O   H1  H2  O   H1  H2  O   H1  H2  O   H1  H2  
O   H1  H2  O   H1  H2  O   H1  H2  O   H1  H2  O   H1  H2  O   H1  H2  O   H1  
H2  O   H1  H2  O   H1  H2  O   H1  H2  O   H1  H2  O   H1  H2  O   H1  H2  O   
H1  H2  O   H1  H2  O   H1  H2  O   H1  H2  O   H1  H2  O   H1  H2  O   H1  H2  
O   H1  H2  O   H1  H2  O   H1  H2  O   H1  H2  O   H1  H2  O   H1  H2  O   H1  
H2  O   H1  H2  O   H1  H2  O   H1  H2  O   H1  H2  O   H1  H2  O   H1  H2  O   
H1  H2  O   H1  H2  O   H1  H2  O   H1  H2  O   H1  H2  O   H1  H2  O   H1  H2  
O   H1  H2  O   H1  H2  O   H1  H2  O   H1  H2  O   H1  H2  O   H1  H2  O   H1  
H2  O   H1  H2  O   H1  H2  O   H1  H2  O   H1  H2  O   H1  H2  O   H1  H2  O   
H1  H2  O   H1  H2  O   H1  H2  O   H1  H2  O   H1  H2  O   H1  H2  O   H1  H2  
O   H1  H2  O   H1  H2  O   H1  H2  O   H1  H2  O   H1  H2  O   H1  H2  O   H1  
H2  O   H1  H2  O   H1  H2  O   H1  H2  O   H1  H2  O   H1  H2  O   H1  H2  O   
H1  H2  O   H1  H2  O   H1  H2  O   H1  H2  O   H1  H2  O   H1  H2  O   H1  H2  
O   H1  H2  O   H1  H2  O   H1  H2  O   H1  H2  O   H1  H2  O   H1  H2  O   H1  
H2  O   H1  H2  O   H1  H2  O   H1  H2  O   H1  H2  O   H1  H2  O   H1  H2  O   
H1  H2  O   H1  H2  O   H1  H2  O   H1  H2  O   H1  H2  O   H1  H2  O   H1  H2  
O   H1  H2  O   H1  H2  O   H1  H2  O   H1  H2  O   H1  H2  O   H1  H2  O   H1  
H2  O   H1  H2  O   H1  H2  O   H1  H2  O   H1  H2  O   H1  H2  O   H1  H2  O   
H1  H2  O   H1  H2  O   H1  H2  O   H1  H2  O   H1  H2  O   H1  H2  O   H1  H2  
O   H1  H2  O   H1  H2  O   H1  H2  O   H1  H2  O   H1  H2  O   H1  H2  O   H1  
H2  O   H1  H2  O   H1  H2  O   H1  H2  O   H1  H2  O   H1  H2  O   H1  H2  O   
H1  H2  O   H1  H2  O   H1  H2  O   H1  H2  O   H1  H2  O   H1  H2  O   H1  H2  
O   H1  H2  O   H1  H2  O   H1  H2  O   H1  H2  O   H1  H2  O   H1  H2  O   H1  
H2  O   H1  H2  O   H1  H2  O   H1  H2  O   H1  H2  O   H1  H2  O   H1  H2  O   
H1  H2  O   H1  H2  O   H1  H2  O   H1  H2  O   H1  H2  O   H1  H2  O   H1  H2  
O   H1  H2  O   H1  H2  O   H1  H2  O   H1  H2  O   H1  H2  O   H1  H2  O   H1  
H2  O   H1  H2  O   H1  H2  O   H1  H2  O   H1  H2  O   H1  H2  O   H1  H2  O   
H1  H2  O   H1  H2  O   H1  H2  O   H1  H2  O   H1  H2  O   H1  H2  O   H1  H2  
O   H1  H2  O   H1  H2  O   H1  H2  O   H1  H2  O   H1  H2  O   H1  H2  O   H1  
H2  O   H1  H2  O   H1  H2  O   H1  H2  O   H1  H2  O   H1  H2  O   H1  H2  O   
H1  H2  O   H1  H2  O   H1  H2  O   H1  H2  O   H1  H2  O   H1  H2  O   H1  H2  
O   H1  H2  O   H1  H2  O   H1  H2  O   H1  H2  O   H1  H2  O   H1  H2  O   H1  
H2  O   H1  H2  O   H1  H2  O   H1  H2  O   H1  H2  O   H1  H2  O   H1  H2  O   
H1  H2  O   H1  H2  O   H1  H2  O   H1  H2  O   H1  H2  O   H1  H2  O   H1  H2  
O   H1  H2  O   H1  H2  O   H1  H2  O   H1  H2  O   H1  H2  O   H1  H2  O   H1  
H2  O   H1  H2  O   H1  H2  O   H1  H2  O   H1  H2  O   H1  H2  O   H1  H2  O   
H1  H2  O   H1  H2  O   H1  H2  O   H1  H2  O   H1  H2  O   H1  H2  O   H1  H2  
O   H1  H2  O   H1  H2  O   H1  H2  O   H1  H2  O   H1  H2  O   H1  H2  O   H1  
H2  O   H1  H2  O   H1  H2  O   H1  H2  O   H1  H2  O   H1  H2  O   H1  H2  O   
H1  H2  O   H1  H2  O   H1  H2  O   H1  H2  O   H1  H2  O   H1  H2  O   H1  H2  
O   H1  H2  O   H1  H2  O   H1  H2  O   H1  H2  O   H1  H2  O   H1  H2  O   H1  
H2  O   H1  H2  O   H1  H2  O   H1  H2  O   H1  H2  O   H1  H2  O   H1  H2  O   
H1  H2  O   H1  H2  O   H1  H2  O   H1  H2  O   H1  H2  O   H1  H2  O   H1  H2  
O   H1  H2  O   H1  H2  O   H1  H2  O   H1  H2  O   H1  H2  O   H1  H2  O   H1  
H2  O   H1  H2  O   H1  H2  O   H1  H2  O   H1  H2  O   H1  H2  O   H1  H2  O   
H1  H2  O   H1  H2  O   H1  H2  O   H1  H2  O   H1  H2  O   H1  H2  O   H1  H2  
O   H1  H2  O   H1  H2  O   H1  H2  O   H1  H2  O   H1  H2  O   H1  H2  O   H1  
H2  O   H1  H2  O   H1  H2  O   H1  H2  O   H1  H2  O   H1  H2  O   H1  H2  O   
H1  H2  O   H1  H2  O   H1  H2  O   H1  H2  O   H1  H2  O   H1  H2  O   H1  H2  
O   H1  H2  O   H1  H2  O   H1  H2  O   H1  H2  O   H1  H2  O   H1  H2  O   H1  
H2  O   H1  H2  O   H1  H2  O   H1  H2  O   H1  H2  O   H1  H2  O   H1  H2  O   
H1  H2  O   H1  H2  O   H1  H2  O   H1  H2  O   H1  H2  O   H1  H2  O   H1  H2  
O   H1  H2  O   H1  H2  O   H1  H2  O   H1  H2  O   H1  H2  O   H1  H2  O   H1  
H2  O   H1  H2  O   H1  H2  O   H1  H2  O   H1  H2  O   H1  H2  O   H1  H2  O   
H1  H2  O   H1  H2  O   H1  H2  O   H1  H2  O   H1  H2  O   H1  H2  O   H1  H2  
O   H1  H2  O   H1  H2  O   H1  H2  O   H1  H2  O   H1  H2  O   H1  H2  O   H1  
H2  O   H1  H2  O   H1  H2  O   H1  H2  O   H1  H2  O   H1  H2  O   H1  H2  O   
H1  H2  O   H1  H2  O   H1  H2  O   H1  H2  O   H1  H2  O   H1  H2  O   H1  H2  
O   H1  H2  O   H1  H2  O   H1  H2  O   H1  H2  O   H1  H2  O   H1  H2  O   H1  
H2  O   H1  H2  O   H1  H2  O   H1  H2  O   H1  H2  O   H1  H2  O   H1  H2  O   
H1  H2  O   H1  H2  O   H1  H2  O   H1  H2  O   H1  H2  O   H1  H2  O   H1  H2  
O   H1  H2  O   H1  H2  O   H1  H2  O   H1  H2  O   H1  H2  O   H1  H2  O   H1  
H2  O   H1  H2  O   H1  H2  O   H1  H2  O   H1  H2  O   H1  H2  O   H1  H2  O   
H1  H2  O   H1  H2  O   H1  H2  O   H1  H2  O   H1  H2  O   H1  H2  O   H1  H2  
O   H1  H2  O   H1  H2  O   H1  H2  O   H1  H2  O   H1  H2  O   H1  H2  O   H1  
H2  O   H1  H2  O   H1  H2  O   H1  H2  O   H1  H2  O   H1  H2  O   H1  H2  O   
H1  H2  O   H1  H2  O   H1  H2  O   H1  H2  O   H1  H2  O   H1  H2  O   H1  H2  
O   H1  H2  O   H1  H2  O   H1  H2  O   H1  H2  O   H1  H2  O   H1  H2  O   H1  
H2  O   H1  H2  O   H1  H2  O   H1  H2  O   H1  H2  O   H1  H2  O   H1  H2  O   
H1  H2  O   H1  H2  O   H1  H2  O   H1  H2  O   H1  H2  O   H1  H2  O   H1  H2  
O   H1  H2  O   H1  H2  O   H1  H2  O   H1  H2  O   H1  H2  O   H1  H2  O   H1  
H2  O   H1  H2  O   H1  H2  O   H1  H2  O   H1  H2  O   H1  H2  O   H1  H2  O   
H1  H2  O   H1  H2  O   H1  H2  O   H1  H2  O   H1  H2  O   H1  H2  O   H1  H2  
O   H1  H2  O   H1  H2  O   H1  H2  O   H1  H2  O   H1  H2  O   H1  H2  O   H1  
H2  O   H1  H2  O   H1  H2  O   H1  H2  O   H1  H2  O   H1  H2  O   H1  H2  O   
H1  H2  O   H1  H2  O   H1  H2  O   H1  H2  O   H1  H2  O   H1  H2  O   H1  H2  
O   H1  H2  O   H1  H2  O   H1  H2  O   H1  H2  O   H1  H2  O   H1  H2  O   H1  
H2  O   H1  H2  O   H1  H2  O   H1  H2  O   H1  H2  O   H1  H2  O   H1  H2  O   
H1  H2  O   H1  H2  O   H1  H2  O   H1  H2  O   H1  H2  O   H1  H2  O   H1  H2  
O   H1  H2  O   H1  H2  O   H1  H2  O   H1  H2  O   H1  H2  O   H1  H2  O   H1  
H2  O   H1  H2  O   H1  H2  O   H1  H2  O   H1  H2  O   H1  H2  O   H1  H2  O   
H1  H2  O   H1  H2  O   H1  H2  O   H1  H2  O   H1  H2  O   H1  H2  O   H1  H2  
O   H1  H2  O   H1  H2  O   H1  H2  O   H1  H2  O   H1  H2  O   H1  H2  O   H1  
H2  O   H1  H2  O   H1  H2  O   H1  H2  O   H1  H2  O   H1  H2  O   H1  H2  O   
H1  H2  O   H1  H2  O   H1  H2  O   H1  H2  O   H1  H2  O   H1  H2  O   H1  H2  
O   H1  H2  O   H1  H2  O   H1  H2  O   H1  H2  O   H1  H2  O   H1  H2  O   H1  
H2  O   H1  H2  O   H1  H2  O   H1  H2  O   H1  H2  O   H1  H2  O   H1  H2  O   
H1  H2  O   H1  H2  O   H1  H2  O   H1  H2  O   H1  H2  O   H1  H2  O   H1  H2  
O   H1  H2  O   H1  H2  O   H1  H2  O   H1  H2  O   H1  H2  O   H1  H2  O   H1  
H2  O   H1  H2  O   H1  H2  O   H1  H2  O   H1  H2  O   H1  H2  O   H1  H2  O   
H1  H2  O   H1  H2  O   H1  H2  O   H1  H2  O   H1  H2  O   H1  H2  O   H1  H2  
O   H1  H2  O   H1  H2  O   H1  H2  O   H1  H2  O   H1  H2  O   H1  H2  O   H1  
H2  O   H1  H2  O   H1  H2  O   H1  H2  O   H1  H2  O   H1  H2  O   H1  H2  O   
H1  H2  O   H1  H2  O   H1  H2  O   H1  H2  O   H1  H2  O   H1  H2  O   H1  H2  
O   H1  H2  O   H1  H2  O   H1  H2  O   H1  H2  O   H1  H2  O   H1  H2  O   H1  
H2  O   H1  H2  O   H1  H2  O   H1  H2  O   H1  H2  O   H1  H2  O   H1  H2  O   
H1  H2  O   H1  H2  O   H1  H2  O   H1  H2  O   H1  H2  O   H1  H2  O   H1  H2  
O   H1  H2  O   H1  H2  O   H1  H2  O   H1  H2  O   H1  H2  O   H1  H2  O   H1  
H2  O   H1  H2  O   H1  H2  O   H1  H2  O   H1  H2  O   H1  H2  O   H1  H2  O   
H1  H2  O   H1  H2  O   H1  H2  O   H1  H2  O   H1  H2  O   H1  H2  O   H1  H2  
O   H1  H2  O   H1  H2  O   H1  H2  O   H1  H2  O   H1  H2  O   H1  H2  O   H1  
H2  O   H1  H2  O   H1  H2  O   H1  H2  O   H1  H2  O   H1  H2  O   H1  H2  O   
H1  H2  O   H1  H2  O   H1  H2  O   H1  H2  O   H1  H2  O   H1  H2  O   H1  H2  
O   H1  H2  O   H1  H2  O   H1  H2  O   H1  H2  O   H1  H2  O   H1  H2  O   H1  
H2  O   H1  H2  O   H1  H2  O   H1  H2  O   H1  H2  O   H1  H2  O   H1  H2  O   
H1  H2  O   H1  H2  O   H1  H2  O   H1  H2  O   H1  H2  O   H1  H2  O   H1  H2  
O   H1  H2  O   H1  H2  O   H1  H2  O   H1  H2  O   H1  H2  O   H1  H2  O   H1  
H2  O   H1  H2  O   H1  H2  O   H1  H2  O   H1  H2  O   H1  H2  O   H1  H2  O   
H1  H2  O   H1  H2  O   H1  H2  O   H1  H2  O   H1  H2  O   H1  H2  O   H1  H2  
O   H1  H2  O   H1  H2  O   H1  H2  O   H1  H2  O   H1  H2  O   H1  H2  O   H1  
H2  O   H1  H2  O   H1  H2  O   H1  H2  O   H1  H2  O   H1  H2  O   H1  H2  O   
H1  H2  O   H1  H2  O   H1  H2  O   H1  H2  O   H1  H2  O   H1  H2  O   H1  H2  
O   H1  H2  O   H1  H2  O   H1  H2  O   H1  H2  O   H1  H2  O   H1  H2  O   H1  
H2  O   H1  H2  O   H1  H2  O   H1  H2  O   H1  H2  O   H1  H2  O   H1  H2  O   
H1  H2  O   H1  H2  O   H1  H2  O   H1  H2  O   H1  H2  O   H1  H2  O   H1  H2  
O   H1  H2  O   H1  H2  O   H1  H2  O   H1  H2  O   H1  H2  O   H1  H2  O   H1  
H2  O   H1  H2  O   H1  H2  O   H1  H2  O   H1  H2  O   H1  H2  O   H1  H2  O   
H1  H2  O   H1  H2  O   H1  H2  O   H1  H2  O   H1  H2  O   H1  H2  O   H1  H2  
O   H1  H2  O   H1  H2  O   H1  H2  O   H1  H2  O   H1  H2  O   H1  H2  O   H1  
H2  O   H1  H2  O   H1  H2  O   H1  H2  O   H1  H2  O   H1  H2  O   H1  H2  O   
H1  H2  O   H1  H2  O   H1  H2  O   H1  H2  O   H1  H2  O   H1  H2  O   H1  H2  
O   H1  H2  O   H1  H2  O   H1  H2  O   H1  H2  O   H1  H2  O   H1  H2  O   H1  
H2  O   H1  H2  O   H1  H2  O   H1  H2  O   H1  H2  O   H1  H2  O   H1  H2  O   
H1  H2  O   H1  H2  O   H1  H2  O   H1  H2  O   H1  H2  O   H1  H2  O   H1  H2  
O   H1  H2  O   H1  H2  O   H1  H2  O   H1  H2  O   H1  H2  O   H1  H2  O   H1  
H2  O   H1  H2  O   H1  H2  O   H1  H2  O   H1  H2  O   H1  H2  O   H1  H2  O   
H1  H2  O   H1  H2  O   H1  H2  O   H1  H2  O   H1  H2  O   H1  H2  O   H1  H2  
O   H1  H2  O   H1  H2  O   H1  H2  O   H1  H2  O   H1  H2  O   H1  H2  O   H1  
H2  O   H1  H2  O   H1  H2  O   H1  H2  O   H1  H2  O   H1  H2  O   H1  H2  O   
H1  H2  O   H1  H2  O   H1  H2  O   H1  H2  O   H1  H2  O   H1  H2  O   H1  H2  
O   H1  H2  O   H1  H2  O   H1  H2  O   H1  H2  O   H1  H2  O   H1  H2  O   H1  
H2  O   H1  H2  O   H1  H2  O   H1  H2  O   H1  H2  O   H1  H2  O   H1  H2  O   
H1  H2  O   H1  H2  O   H1  H2  O   H1  H2  O   H1  H2  O   H1  H2  O   H1  H2  
O   H1  H2  O   H1  H2  O   H1  H2  O   H1  H2  O   H1  H2  O   H1  H2  O   H1  
H2  O   H1  H2  O   H1  H2  O   H1  H2  O   H1  H2  O   H1  H2  O   H1  H2  O   
H1  H2  O   H1  H2  O   H1  H2  O   H1  H2  O   H1  H2  O   H1  H2  O   H1  H2  
O   H1  H2  O   H1  H2  O   H1  H2  O   H1  H2  O   H1  H2  O   H1  H2  O   H1  
H2  O   H1  H2  O   H1  H2  O   H1  H2  O   H1  H2  O   H1  H2  O   H1  H2  O   
H1  H2  O   H1  H2  O   H1  H2  O   H1  H2  O   H1  H2  O   H1  H2  O   H1  H2  
O   H1  H2  O   H1  H2  O   H1  H2  O   H1  H2  O   H1  H2  O   H1  H2  O   H1  
H2  O   H1  H2  O   H1  H2  O   H1  H2  O   H1  H2  O   H1  H2  O   H1  H2  O   
H1  H2  O   H1  H2  O   H1  H2  O   H1  H2  O   H1  H2  O   H1  H2  O   H1  H2  
O   H1  H2  O   H1  H2  O   H1  H2  O   H1  H2  O   H1  H2  O   H1  H2  O   H1  
H2  O   H1  H2  O   H1  H2  O   H1  H2  O   H1  H2  O   H1  H2  O   H1  H2  O   
H1  H2  O   H1  H2  O   H1  H2  O   H1  H2  O   H1  H2  O   H1  H2  O   H1  H2  
O   H1  H2  O   H1  H2  O   H1  H2  O   H1  H2  O   H1  H2  O   H1  H2  O   H1  
H2  O   H1  H2  O   H1  H2  O   H1  H2  O   H1  H2  O   H1  H2  O   H1  H2  O   
H1  H2  O   H1  H2  O   H1  H2  O   H1  H2  O   H1  H2  O   H1  H2  O   H1  H2  
O   H1  H2  O   H1  H2  O   H1  H2  O   H1  H2  O   H1  H2  O   H1  H2  O   H1  
H2  O   H1  H2  O   H1  H2  O   H1  H2  O   H1  H2  O   H1  H2  O   H1  H2  O   
H1  H2  O   H1  H2  O   H1  H2  O   H1  H2  O   H1  H2  O   H1  H2  O   H1  H2  
O   H1  H2  O   H1  H2  O   H1  H2  O   H1  H2  O   H1  H2  O   H1  H2  O   H1  
H2  O   H1  H2  O   H1  H2  O   H1  H2  O   H1  H2  O   H1  H2  O   H1  H2  O   
H1  H2  O   H1  H2  O   H1  H2  O   H1  H2  O   H1  H2  O   H1  H2  O   H1  H2  
O   H1  H2  O   H1  H2  O   H1  H2  O   H1  H2  O   H1  H2  O   H1  H2  O   H1  
H2  O   H1  H2  O   H1  H2  O   H1  H2  O   H1  H2  O   H1  H2  O   H1  H2  O   
H1  H2  O   H1  H2  O   H1  H2  O   H1  H2  O   H1  H2  O   H1  H2  O   H1  H2  
O   H1  H2  O   H1  H2  O   H1  H2  O   H1  H2  O   H1  H2  O   H1  H2  O   H1  
H2  O   H1  H2  O   H1  H2  O   H1  H2  O   H1  H2  O   H1  H2  O   H1  H2  O   
H1  H2  O   H1  H2  O   H1  H2  O   H1  H2  O   H1  H2  O   H1  H2  O   H1  H2  
O   H1  H2  O   H1  H2  O   H1  H2  O   H1  H2  O   H1  H2  O   H1  H2  O   H1  
H2  O   H1  H2  O   H1  H2  O   H1  H2  O   H1  H2  O   H1  H2  O   H1  H2  O   
H1  H2  O   H1  H2  O   H1  H2  O   H1  H2  O   H1  H2  O   H1  H2  O   H1  H2  
O   H1  H2  O   H1  H2  O   H1  H2  O   H1  H2  O   H1  H2  O   H1  H2  O   H1  
H2  O   H1  H2  O   H1  H2  O   H1  H2  O   H1  H2  O   H1  H2  O   H1  H2  O   
H1  H2  O   H1  H2  O   H1  H2  O   H1  H2  O   H1  H2  O   H1  H2  O   H1  H2  
O   H1  H2  O   H1  H2  O   H1  H2  O   H1  H2  O   H1  H2  O   H1  H2  O   H1  
H2  O   H1  H2  O   H1  H2  O   H1  H2  O   H1  H2  O   H1  H2  O   H1  H2  O   
H1  H2  O   H1  H2  O   H1  H2  O   H1  H2  O   H1  H2  O   H1  H2  O   H1  H2  
O   H1  H2  O   H1  H2  O   H1  H2  O   H1  H2  O   H1  H2  O   H1  H2  O   H1  
H2  O   H1  H2  O   H1  H2  O   H1  H2  O   H1  H2  O   H1  H2  O   H1  H2  O   
H1  H2  O   H1  H2  O   H1  H2  O   H1  H2  O   H1  H2  O   H1  H2  O   H1  H2  
O   H1  H2  O   H1  H2  O   H1  H2  O   H1  H2  O   H1  H2  O   H1  H2  O   H1  
H2  O   H1  H2  O   H1  H2  O   H1  H2  O   H1  H2  O   H1  H2  O   H1  H2  O   
H1  H2  O   H1  H2  O   H1  H2  O   H1  H2  O   H1  H2  O   H1  H2  O   H1  H2  
O   H1  H2  O   H1  H2  O   H1  H2  O   H1  H2  O   H1  H2  O   H1  H2  O   H1  
H2  O   H1  H2  O   H1  H2  O   H1  H2  O   H1  H2  O   H1  H2  O   H1  H2  O   
H1  H2  O   H1  H2  O   H1  H2  O   H1  H2  O   H1  H2  O   H1  H2  O   H1  H2  
O   H1  H2  O   H1  H2  O   H1  H2  O   H1  H2  O   H1  H2  O   H1  H2  O   H1  
H2  O   H1  H2  O   H1  H2  O   H1  H2  O   H1  H2  O   H1  H2  O   H1  H2  O   
H1  H2  O   H1  H2  O   H1  H2  O   H1  H2  O   H1  H2  O   H1  H2  O   H1  H2  
O   H1  H2  O   H1  H2  O   H1  H2  O   H1  H2  O   H1  H2  O   H1  H2  O   H1  
H2  O   H1  H2  O   H1  H2  O   H1  H2  O   H1  H2  O   H1  H2  O   H1  H2  O   
H1  H2  O   H1  H2  O   H1  H2  O   H1  H2  O   H1  H2  O   H1  H2  O   H1  H2  
O   H1  H2  O   H1  H2  O   H1  H2  O   H1  H2  O   H1  H2  O   H1  H2  O   H1  
H2  O   H1  H2  O   H1  H2  O   H1  H2  O   H1  H2  O   H1  H2  O   H1  H2  O   
H1  H2  O   H1  H2  O   H1  H2  O   H1  H2  O   H1  H2  O   H1  H2  O   H1  H2  
O   H1  H2  O   H1  H2  O   H1  H2  O   H1  H2  O   H1  H2  O   H1  H2  O   H1  
H2  O   H1  H2  O   H1  H2  O   H1  H2  O   H1  H2  O   H1  H2  O   H1  H2  O   
H1  H2  O   H1  H2  O   H1  H2  O   H1  H2  O   H1  H2  O   H1  H2  O   H1  H2  
O   H1  H2  O   H1  H2  O   H1  H2  O   H1  H2  O   H1  H2  O   H1  H2  O   H1  
H2  O   H1  H2  O   H1  H2  O   H1  H2  O   H1  H2  O   H1  H2  O   H1  H2  O   
H1  H2  O   H1  H2  O   H1  H2  O   H1  H2  O   H1  H2  O   H1  H2  O   H1  H2  
O   H1  H2  O   H1  H2  O   H1  H2  O   H1  H2  O   H1  H2  O   H1  H2  O   H1  
H2  O   H1  H2  O   H1  H2  O   H1  H2  O   H1  H2  O   H1  H2  O   H1  H2  O   
H1  H2  O   H1  H2  O   H1  H2  O   H1  H2  O   H1  H2  O   H1  H2  O   H1  H2  
O   H1  H2  O   H1  H2  O   H1  H2  O   H1  H2  O   H1  H2  O   H1  H2  O   H1  
H2  O   H1  H2  O   H1  H2  O   H1  H2  O   H1  H2  O   H1  H2  O   H1  H2  O   
H1  H2  O   H1  H2  O   H1  H2  O   H1  H2  O   H1  H2  O   H1  H2  O   H1  H2  
O   H1  H2  O   H1  H2  O   H1  H2  O   H1  H2  O   H1  H2  O   H1  H2  O   H1  
H2  O   H1  H2  O   H1  H2  O   H1  H2  O   H1  H2  O   H1  H2  O   H1  H2  O   
H1  H2  O   H1  H2  O   H1  H2  O   H1  H2  O   H1  H2  O   H1  H2  O   H1  H2  
O   H1  H2  O   H1  H2  O   H1  H2  O   H1  H2  O   H1  H2  O   H1  H2  O   H1  
H2  O   H1  H2  O   H1  H2  O   H1  H2  O   H1  H2  O   H1  H2  O   H1  H2  O   
H1  H2  O   H1  H2  O   H1  H2  O   H1  H2  O   H1  H2  O   H1  H2  O   H1  H2  
O   H1  H2  O   H1  H2  O   H1  H2  O   H1  H2  O   H1  H2  O   H1  H2  O   H1  
H2  O   H1  H2  O   H1  H2  O   H1  H2  O   H1  H2  O   H1  H2  O   H1  H2  O   
H1  H2  O   H1  H2  O   H1  H2  O   H1  H2  O   H1  H2  O   H1  H2  O   H1  H2  
O   H1  H2  O   H1  H2  O   H1  H2  O   H1  H2  O   H1  H2  O   H1  H2  O   H1  
H2  O   H1  H2  O   H1  H2  O   H1  H2  O   H1  H2  O   H1  H2  O   H1  H2  O   
H1  H2  O   H1  H2  O   H1  H2  O   H1  H2  O   H1  H2  O   H1  H2  O   H1  H2  
O   H1  H2  O   H1  H2  O   H1  H2  O   H1  H2  O   H1  H2  O   H1  H2  O   H1  
H2  O   H1  H2  O   H1  H2  O   H1  H2  O   H1  H2  O   H1  H2  O   H1  H2  O   
H1  H2  O   H1  H2  O   H1  H2  O   H1  H2  O   H1  H2  O   H1  H2  O   H1  H2  
O   H1  H2  O   H1  H2  O   H1  H2  O   H1  H2  O   H1  H2  O   H1  H2  O   H1  
H2  O   H1  H2  O   H1  H2  O   H1  H2  O   H1  H2  O   H1  H2  O   H1  H2  O   
H1  H2  O   H1  H2  O   H1  H2  O   H1  H2  O   H1  H2  O   H1  H2  O   H1  H2  
O   H1  H2  O   H1  H2  O   H1  H2  O   H1  H2  O   H1  H2  O   H1  H2  O   H1  
H2  O   H1  H2  O   H1  H2  O   H1  H2  O   H1  H2  O   H1  H2  O   H1  H2  O   
H1  H2  O   H1  H2  O   H1  H2  O   H1  H2  O   H1  H2  O   H1  H2  O   H1  H2  
O   H1  H2  O   H1  H2  O   H1  H2  O   H1  H2  O   H1  H2  O   H1  H2  O   H1  
H2  O   H1  H2  O   H1  H2  O   H1  H2  O   H1  H2  O   H1  H2  O   H1  H2  O   
H1  H2  O   H1  H2  O   H1  H2  O   H1  H2  O   H1  H2  O   H1  H2  O   H1  H2  
O   H1  H2  O   H1  H2  O   H1  H2  O   H1  H2  O   H1  H2  O   H1  H2  O   H1  
H2  O   H1  H2  O   H1  H2  O   H1  H2  O   H1  H2  O   H1  H2  O   H1  H2  O   
H1  H2  O   H1  H2  O   H1  H2  O   H1  H2  O   H1  H2  O   H1  H2  O   H1  H2  
O   H1  H2  O   H1  H2  O   H1  H2  O   H1  H2  O   H1  H2  O   H1  H2  O   H1  
H2  O   H1  H2  O   H1  H2  O   H1  H2  O   H1  H2  O   H1  H2  O   H1  H2  O   
H1  H2  O   H1  H2  O   H1  H2  O   H1  H2  O   H1  H2  O   H1  H2  O   H1  H2  
O   H1  H2  O   H1  H2  O   H1  H2  O   H1  H2  O   H1  H2  O   H1  H2  O   H1  
H2  O   H1  H2  O   H1  H2  O   H1  H2  O   H1  H2  O   H1  H2  O   H1  H2  O   
H1  H2  O   H1  H2  O   H1  H2  O   H1  H2  O   H1  H2  O   H1  H2  O   H1  H2  
O   H1  H2  O   H1  H2  O   H1  H2  O   H1  H2  O   H1  H2  O   H1  H2  O   H1  
H2  O   H1  H2  O   H1  H2  O   H1  H2  O   H1  H2  O   H1  H2  O   H1  H2  O   
H1  H2  O   H1  H2  O   H1  H2  O   H1  H2  O   H1  H2  O   H1  H2  O   H1  H2  
O   H1  H2  O   H1  H2  O   H1  H2  O   H1  H2  O   H1  H2  O   H1  H2  O   H1  
H2  O   H1  H2  O   H1  H2  O   H1  H2  O   H1  H2  O   H1  H2  O   H1  H2  O   
H1  H2  O   H1  H2  O   H1  H2  O   H1  H2  O   H1  H2  O   H1  H2  O   H1  H2  
O   H1  H2  O   H1  H2  O   H1  H2  O   H1  H2  O   H1  H2  O   H1  H2  O   H1  
H2  O   H1  H2  O   H1  H2  O   H1  H2  O   H1  H2  O   H1  H2  O   H1  H2  O   
H1  H2  O   H1  H2  O   H1  H2  O   H1  H2  O   H1  H2  O   H1  H2  O   H1  H2  
O   H1  H2  O   H1  H2  O   H1  H2  O   H1  H2  O   H1  H2  O   H1  H2  O   H1  
H2  O   H1  H2  O   H1  H2  O   H1  H2  O   H1  H2  O   H1  H2  O   H1  H2  O   
H1  H2  O   H1  H2  O   H1  H2  O   H1  H2  O   H1  H2  O   H1  H2  O   H1  H2  
O   H1  H2  O   H1  H2  O   H1  H2  O   H1  H2  O   H1  H2  O   H1  H2  O   H1  
H2  O   H1  H2  O   H1  H2  O   H1  H2  O   H1  H2  O   H1  H2  O   H1  H2  O   
H1  H2  O   H1  H2  O   H1  H2  O   H1  H2  O   H1  H2  O   H1  H2  O   H1  H2  
O   H1  H2  O   H1  H2  O   H1  H2  O   H1  H2  O   H1  H2  O   H1  H2  O   H1  
H2  O   H1  H2  O   H1  H2  O   H1  H2  O   H1  H2  O   H1  H2  O   H1  H2  O   
H1  H2  O   H1  H2  O   H1  H2  O   H1  H2  O   H1  H2  O   H1  H2  O   H1  H2  
O   H1  H2  O   H1  H2  O   H1  H2  O   H1  H2  O   H1  H2  O   H1  H2  O   H1  
H2  O   H1  H2  O   H1  H2  O   H1  H2  O   H1  H2  O   H1  H2  O   H1  H2  O   
H1  H2  O   H1  H2  O   H1  H2  O   H1  H2  O   H1  H2  O   H1  H2  O   H1  H2  
O   H1  H2  O   H1  H2  O   H1  H2  O   H1  H2  O   H1  H2  O   H1  H2  O   H1  
H2  O   H1  H2  O   H1  H2  O   H1  H2  O   H1  H2  O   H1  H2  O   H1  H2  O   
H1  H2  O   H1  H2  O   H1  H2  O   H1  H2  O   H1  H2  O   H1  H2  O   H1  H2  
O   H1  H2  O   H1  H2  O   H1  H2  O   H1  H2  O   H1  H2  O   H1  H2  O   H1  
H2  O   H1  H2  O   H1  H2  O   H1  H2  O   H1  H2  O   H1  H2  O   H1  H2  O   
H1  H2  O   H1  H2  O   H1  H2  O   H1  H2  O   H1  H2  O   H1  H2  O   H1  H2  
O   H1  H2  O   H1  H2  O   H1  H2  O   H1  H2  O   H1  H2  O   H1  H2  O   H1  
H2  O   H1  H2  O   H1  H2  O   H1  H2  O   H1  H2  O   H1  H2  O   H1  H2  O   
H1  H2  O   H1  H2  O   H1  H2  O   H1  H2  O   H1  H2  O   H1  H2  O   H1  H2  
O   H1  H2  O   H1  H2  O   H1  H2  O   H1  H2  O   H1  H2  O   H1  H2  O   H1  
H2  O   H1  H2  O   H1  H2  O   H1  H2  O   H1  H2  O   H1  H2  O   H1  H2  O   
H1  H2  O   H1  H2  O   H1  H2  O   H1  H2  O   H1  H2  O   H1  H2  O   H1  H2  
O   H1  H2  O   H1  H2  O   H1  H2  O   H1  H2  O   H1  H2  O   H1  H2  O   H1  
H2  O   H1  H2  O   H1  H2  O   H1  H2  O   H1  H2  O   H1  H2  O   H1  H2  O   
H1  H2  O   H1  H2  O   H1  H2  O   H1  H2  O   H1  H2  O   H1  H2  O   H1  H2  
O   H1  H2  O   H1  H2  O   H1  H2  O   H1  H2  O   H1  H2  O   H1  H2  O   H1  
H2  O   H1  H2  O   H1  H2  O   H1  H2  O   H1  H2  O   H1  H2  O   H1  H2  O   
H1  H2  O   H1  H2  O   H1  H2  O   H1  H2  O   H1  H2  O   H1  H2  O   H1  H2  
O   H1  H2  O   H1  H2  O   H1  H2  O   H1  H2  O   H1  H2  O   H1  H2  O   H1  
H2  O   H1  H2  O   H1  H2  O   H1  H2  O   H1  H2  O   H1  H2  O   H1  H2  O   
H1  H2  O   H1  H2  O   H1  H2  O   H1  H2  O   H1  H2  O   H1  H2  O   H1  H2  
O   H1  H2  O   H1  H2  O   H1  H2  O   H1  H2  O   H1  H2  O   H1  H2  O   H1  
H2  O   H1  H2  O   H1  H2  O   H1  H2  O   H1  H2  O   H1  H2  O   H1  H2  O   
H1  H2  O   H1  H2  O   H1  H2  O   H1  H2  O   H1  H2  O   H1  H2  O   H1  H2  
O   H1  H2  O   H1  H2  O   H1  H2  O   H1  H2  O   H1  H2  O   H1  H2  O   H1  
H2  O   H1  H2  O   H1  H2  O   H1  H2  O   H1  H2  O   H1  H2  O   H1  H2  O   
H1  H2  O   H1  H2  O   H1  H2  O   H1  H2  O   H1  H2  O   H1  H2  O   H1  H2  
O   H1  H2  O   H1  H2  O   H1  H2  O   H1  H2  O   H1  H2  O   H1  H2  O   H1  
H2  O   H1  H2  O   H1  H2  O   H1  H2  O   H1  H2  O   H1  H2  O   H1  H2  O   
H1  H2  O   H1  H2  O   H1  H2  O   H1  H2  O   H1  H2  O   H1  H2  O   H1  H2  
O   H1  H2  O   H1  H2  O   H1  H2  O   H1  H2  O   H1  H2  O   H1  H2  O   H1  
H2  O   H1  H2  O   H1  H2  O   H1  H2  O   H1  H2  O   H1  H2  O   H1  H2  O   
H1  H2  O   H1  H2  O   H1  H2  O   H1  H2  O   H1  H2  O   H1  H2  O   H1  H2  
O   H1  H2  O   H1  H2  O   H1  H2  O   H1  H2  O   H1  H2  O   H1  H2  O   H1  
H2  O   H1  H2  O   H1  H2  O   H1  H2  O   H1  H2  O   H1  H2  O   H1  H2  O   
H1  H2  O   H1  H2  O   H1  H2  O   H1  H2  O   H1  H2  O   H1  H2  O   H1  H2  
O   H1  H2  O   H1  H2  O   H1  H2  O   H1  H2  O   H1  H2  O   H1  H2  O   H1  
H2  O   H1  H2  O   H1  H2  O   H1  H2  O   H1  H2  O   H1  H2  O   H1  H2  O   
H1  H2  O   H1  H2  O   H1  H2  O   H1  H2  O   H1  H2  O   H1  H2  O   H1  H2  
O   H1  H2  O   H1  H2  O   H1  H2  O   H1  H2  O   H1  H2  O   H1  H2  O   H1  
H2  O   H1  H2  O   H1  H2  O   H1  H2  O   H1  H2  O   H1  H2  O   H1  H2  O   
H1  H2  O   H1  H2  O   H1  H2  O   H1  H2  O   H1  H2  O   H1  H2  O   H1  H2  
O   H1  H2  O   H1  H2  O   H1  H2  O   H1  H2  O   H1  H2  O   H1  H2  O   H1  
H2  O   H1  H2  O   H1  H2  O   H1  H2  O   H1  H2  O   H1  H2  O   H1  H2  O   
H1  H2  O   H1  H2  O   H1  H2  O   H1  H2  O   H1  H2  O   H1  H2  O   H1  H2  
O   H1  H2  O   H1  H2  O   H1  H2  O   H1  H2  O   H1  H2  O   H1  H2  O   H1  
H2  O   H1  H2  O   H1  H2  O   H1  H2  O   H1  H2  O   H1  H2  O   H1  H2  O   
H1  H2  O   H1  H2  O   H1  H2  O   H1  H2  O   H1  H2  O   H1  H2  O   H1  H2  
O   H1  H2  O   H1  H2  O   H1  H2  O   H1  H2  O   H1  H2  O   H1  H2  O   H1  
H2  O   H1  H2  O   H1  H2  O   H1  H2  O   H1  H2  O   H1  H2  O   H1  H2  O   
H1  H2  O   H1  H2  O   H1  H2  O   H1  H2  O   H1  H2  O   H1  H2  O   H1  H2  
O   H1  H2  O   H1  H2  O   H1  H2  O   H1  H2  O   H1  H2  O   H1  H2  O   H1  
H2  O   H1  H2  O   H1  H2  O   H1  H2  O   H1  H2  O   H1  H2  O   H1  H2  O   
H1  H2  O   H1  H2  O   H1  H2  O   H1  H2  O   H1  H2  O   H1  H2  O   H1  H2  
O   H1  H2  O   H1  H2  O   H1  H2  O   H1  H2  O   H1  H2  O   H1  H2  O   H1  
H2  O   H1  H2  O   H1  H2  O   H1  H2  O   H1  H2  O   H1  H2  O   H1  H2  O   
H1  H2  O   H1  H2  O   H1  H2  O   H1  H2  O   H1  H2  O   H1  H2  O   H1  H2  
O   H1  H2  O   H1  H2  O   H1  H2  O   H1  H2  O   H1  H2  O   H1  H2  O   H1  
H2  O   H1  H2  O   H1  H2  O   H1  H2  O   H1  H2  O   H1  H2  O   H1  H2  O   
H1  H2  O   H1  H2  O   H1  H2  O   H1  H2  O   H1  H2  O   H1  H2  O   H1  H2  
O   H1  H2  O   H1  H2  O   H1  H2  O   H1  H2  O   H1  H2  O   H1  H2  O   H1  
H2  O   H1  H2  O   H1  H2  O   H1  H2  O   H1  H2  O   H1  H2  O   H1  H2  O   
H1  H2  O   H1  H2  O   H1  H2  O   H1  H2  O   H1  H2  O   H1  H2  O   H1  H2  
O   H1  H2  O   H1  H2  O   H1  H2  O   H1  H2  O   H1  H2  O   H1  H2  O   H1  
H2  O   H1  H2  O   H1  H2  O   H1  H2  O   H1  H2  O   H1  H2  O   H1  H2  O   
H1  H2  O   H1  H2  O   H1  H2  O   H1  H2  O   H1  H2  O   H1  H2  O   H1  H2  
O   H1  H2  O   H1  H2  O   H1  H2  O   H1  H2  O   H1  H2  O   H1  H2  O   H1  
H2  O   H1  H2  O   H1  H2  O   H1  H2  O   H1  H2  O   H1  H2  O   H1  H2  O   
H1  H2  O   H1  H2  O   H1  H2  O   H1  H2  O   H1  H2  O   H1  H2  O   H1  H2  
O   H1  H2  O   H1  H2  O   H1  H2  O   H1  H2  O   H1  H2  O   H1  H2  O   H1  
H2  O   H1  H2  O   H1  H2  O   H1  H2  O   H1  H2  O   H1  H2  O   H1  H2  O   
H1  H2  O   H1  H2  O   H1  H2  O   H1  H2  O   H1  H2  O   H1  H2  O   H1  H2  
O   H1  H2  O   H1  H2  O   H1  H2  O   H1  H2  O   H1  H2  O   H1  H2  O   H1  
H2  O   H1  H2  O   H1  H2  O   H1  H2  O   H1  H2  O   H1  H2  O   H1  H2  O   
H1  H2  O   H1  H2  O   H1  H2  O   H1  H2  O   H1  H2  O   H1  H2  O   H1  H2  
O   H1  H2  O   H1  H2  O   H1  H2  O   H1  H2  O   H1  H2  O   H1  H2  O   H1  
H2  O   H1  H2  O   H1  H2  O   H1  H2  O   H1  H2  O   H1  H2  O   H1  H2  O   
H1  H2  O   H1  H2  O   H1  H2  O   H1  H2  O   H1  H2  O   H1  H2  O   H1  H2  
O   H1  H2  O   H1  H2  O   H1  H2  O   H1  H2  O   H1  H2  O   H1  H2  O   H1  
H2  O   H1  H2  O   H1  H2  O   H1  H2  O   H1  H2  O   H1  H2  O   H1  H2  O   
H1  H2  O   H1  H2  O   H1  H2  O   H1  H2  O   H1  H2  O   H1  H2  O   H1  H2  
O   H1  H2  O   H1  H2  O   H1  H2  O   H1  H2  O   H1  H2  O   H1  H2  O   H1  
H2  O   H1  H2  O   H1  H2  O   H1  H2  O   H1  H2  O   H1  H2  O   H1  H2  O   
H1  H2  O   H1  H2  O   H1  H2  O   H1  H2  O   H1  H2  O   H1  H2  O   H1  H2  
O   H1  H2  O   H1  H2  O   H1  H2  O   H1  H2  O   H1  H2  O   H1  H2  O   H1  
H2  O   H1  H2  O   H1  H2  O   H1  H2  O   H1  H2  O   H1  H2  O   H1  H2  O   
H1  H2  O   H1  H2  O   H1  H2  O   H1  H2  O   H1  H2  O   H1  H2  O   H1  H2  
O   H1  H2  O   H1  H2  O   H1  H2  O   H1  H2  O   H1  H2  O   H1  H2  O   H1  
H2  O   H1  H2  O   H1  H2  O   H1  H2  O   H1  H2  O   H1  H2  O   H1  H2  O   
H1  H2  O   H1  H2  O   H1  H2  O   H1  H2  O   H1  H2  O   H1  H2  O   H1  H2  
O   H1  H2  O   H1  H2  O   H1  H2  O   H1  H2  O   H1  H2  O   H1  H2  O   H1  
H2  O   H1  H2  O   H1  H2  O   H1  H2  O   H1  H2  O   H1  H2  O   H1  H2  O   
H1  H2  O   H1  H2  O   H1  H2  O   H1  H2  O   H1  H2  O   H1  H2  O   H1  H2  
O   H1  H2  O   H1  H2  O   H1  H2  O   H1  H2  O   H1  H2  O   H1  H2  O   H1  
H2  O   H1  H2  O   H1  H2  O   H1  H2  O   H1  H2  O   H1  H2  O   H1  H2  O   
H1  H2  O   H1  H2  O   H1  H2  O   H1  H2  O   H1  H2  O   H1  H2  O   H1  H2  
O   H1  H2  O   H1  H2  O   H1  H2  O   H1  H2  O   H1  H2  O   H1  H2  O   H1  
H2  O   H1  H2  O   H1  H2  O   H1  H2  O   H1  H2  O   H1  H2  O   H1  H2  O   
H1  H2  O   H1  H2  O   H1  H2  O   H1  H2  O   H1  H2  O   H1  H2  O   H1  H2  
O   H1  H2  O   H1  H2  O   H1  H2  O   H1  H2  O   H1  H2  O   H1  H2  O   H1  
H2  O   H1  H2  O   H1  H2  O   H1  H2  O   H1  H2  O   H1  H2  O   H1  H2  O   
H1  H2  O   H1  H2  O   H1  H2  O   H1  H2  O   H1  H2  O   H1  H2  O   H1  H2  
O   H1  H2  O   H1  H2  O   H1  H2  O   H1  H2  O   H1  H2  O   H1  H2  O   H1  
H2  O   H1  H2  O   H1  H2  O   H1  H2  O   H1  H2  O   H1  H2  O   H1  H2  O   
H1  H2  O   H1  H2  O   H1  H2  O   H1  H2  O   H1  H2  O   H1  H2  O   H1  H2  
O   H1  H2  O   H1  H2  O   H1  H2  O   H1  H2  O   H1  H2  O   H1  H2  O   H1  
H2  O   H1  H2  O   H1  H2  O   H1  H2  O   H1  H2  O   H1  H2  O   H1  H2  O   
H1  H2  O   H1  H2  O   H1  H2  O   H1  H2  O   H1  H2  O   H1  H2  O   H1  H2  
O   H1  H2  O   H1  H2  O   H1  H2  O   H1  H2  O   H1  H2  O   H1  H2  O   H1  
H2  O   H1  H2  O   H1  H2  O   H1  H2  O   H1  H2  O   H1  H2  O   H1  H2  O   
H1  H2  O   H1  H2  O   H1  H2  O   H1  H2  O   H1  H2  O   H1  H2  O   H1  H2  
O   H1  H2  O   H1  H2  O   H1  H2  O   H1  H2  O   H1  H2  O   H1  H2  O   H1  
H2  O   H1  H2  O   H1  H2  O   H1  H2  O   H1  H2  O   H1  H2  O   H1  H2  O   
H1  H2  O   H1  H2  O   H1  H2  O   H1  H2  O   H1  H2  O   H1  H2  O   H1  H2  
O   H1  H2  O   H1  H2  O   H1  H2  O   H1  H2  O   H1  H2  O   H1  H2  O   H1  
H2  O   H1  H2  O   H1  H2  O   H1  H2  O   H1  H2  O   H1  H2  O   H1  H2  O   
H1  H2  O   H1  H2  O   H1  H2  O   H1  H2  O   H1  H2  O   H1  H2  O   H1  H2  
O   H1  H2  O   H1  H2  O   H1  H2  O   H1  H2  O   H1  H2  O   H1  H2  O   H1  
H2  O   H1  H2  O   H1  H2  O   H1  H2  O   H1  H2  O   H1  H2  O   H1  H2  O   
H1  H2  O   H1  H2  O   H1  H2  O   H1  H2  O   H1  H2  O   H1  H2  O   H1  H2  
O   H1  H2  O   H1  H2  O   H1  H2  O   H1  H2  O   H1  H2  O   H1  H2  O   H1  
H2  O   H1  H2  O   H1  H2  O   H1  H2  O   H1  H2  O   H1  H2  O   H1  H2  O   
H1  H2  O   H1  H2  O   H1  H2  O   H1  H2  O   H1  H2  O   H1  H2  O   H1  H2  
O   H1  H2  O   H1  H2  O   H1  H2  O   H1  H2  O   H1  H2  O   H1  H2  O   H1  
H2  O   H1  H2  O   H1  H2  O   H1  H2  O   H1  H2  O   H1  H2  O   H1  H2  O   
H1  H2  O   H1  H2  O   H1  H2  O   H1  H2  O   H1  H2  O   H1  H2  O   H1  H2  
O   H1  H2  O   H1  H2  O   H1  H2  O   H1  H2  O   H1  H2  O   H1  H2  O   H1  
H2  O   H1  H2  O   H1  H2  O   H1  H2  O   H1  H2  O   H1  H2  O   H1  H2  O   
H1  H2  O   H1  H2  O   H1  H2  O   H1  H2  O   H1  H2  O   H1  H2  O   H1  H2  
O   H1  H2  O   H1  H2  O   H1  H2  O   H1  H2  O   H1  H2  O   H1  H2  O   H1  
H2  O   H1  H2  O   H1  H2  O   H1  H2  O   H1  H2  O   H1  H2  O   H1  H2  O   
H1  H2  O   H1  H2  O   H1  H2  O   H1  H2  O   H1  H2  O   H1  H2  O   H1  H2  
O   H1  H2  O   H1  H2  O   H1  H2  O   H1  H2  O   H1  H2  O   H1  H2  O   H1  
H2  O   H1  H2  O   H1  H2  O   H1  H2  O   H1  H2  O   H1  H2  O   H1  H2  O   
H1  H2  O   H1  H2  O   H1  H2  O   H1  H2  O   H1  H2  O   H1  H2  O   H1  H2  
O   H1  H2  O   H1  H2  O   H1  H2  O   H1  H2  O   H1  H2  O   H1  H2  O   H1  
H2  O   H1  H2  O   H1  H2  O   H1  H2  O   H1  H2  O   H1  H2  O   H1  H2  O   
H1  H2  O   H1  H2  O   H1  H2  O   H1  H2  O   H1  H2  O   H1  H2  O   H1  H2  
O   H1  H2  O   H1  H2  O   H1  H2  O   H1  H2  O   H1  H2  O   H1  H2  O   H1  
H2  O   H1  H2  O   H1  H2  O   H1  H2  O   H1  H2  O   H1  H2  O   H1  H2  O   
H1  H2  O   H1  H2  O   H1  H2  O   H1  H2  O   H1  H2  O   H1  H2  O   H1  H2  
O   H1  H2  O   H1  H2  O   H1  H2  O   H1  H2  O   H1  H2  O   H1  H2  O   H1  
H2  O   H1  H2  O   H1  H2  O   H1  H2  O   H1  H2  O   H1  H2  O   H1  H2  O   
H1  H2  O   H1  H2  O   H1  H2  O   H1  H2  O   H1  H2  O   H1  H2  O   H1  H2  
O   H1  H2  O   H1  H2  O   H1  H2  O   H1  H2  O   H1  H2  O   H1  H2  O   H1  
H2  O   H1  H2  O   H1  H2  O   H1  H2  O   H1  H2  O   H1  H2  O   H1  H2  O   
H1  H2  O   H1  H2  O   H1  H2  O   H1  H2  O   H1  H2  O   H1  H2  O   H1  H2  
O   H1  H2  O   H1  H2  O   H1  H2  O   H1  H2  O   H1  H2  O   H1  H2  O   H1  
H2  O   H1  H2  O   H1  H2  O   H1  H2  O   H1  H2  O   H1  H2  O   H1  H2  O   
H1  H2  O   H1  H2  O   H1  H2  O   H1  H2  O   H1  H2  O   H1  H2  O   H1  H2  
O   H1  H2  O   H1  H2  O   H1  H2  O   H1  H2  O   H1  H2  O   H1  H2  O   H1  
H2  O   H1  H2  O   H1  H2  O   H1  H2  O   H1  H2  O   H1  H2  O   H1  H2  O   
H1  H2  O   H1  H2  O   H1  H2  O   H1  H2  O   H1  H2  O   H1  H2  O   H1  H2  
O   H1  H2  O   H1  H2  O   H1  H2  O   H1  H2  O   H1  H2  O   H1  H2  O   H1  
H2  O   H1  H2  O   H1  H2  O   H1  H2  O   H1  H2  O   H1  H2  O   H1  H2  O   
H1  H2  O   H1  H2  O   H1  H2  O   H1  H2  O   H1  H2  O   H1  H2  O   H1  H2  
O   H1  H2  O   H1  H2  O   H1  H2  O   H1  H2  O   H1  H2  O   H1  H2  O   H1  
H2  O   H1  H2  O   H1  H2  O   H1  H2  O   H1  H2  O   H1  H2  O   H1  H2  O   
H1  H2  O   H1  H2  O   H1  H2  O   H1  H2  O   H1  H2  O   H1  H2  O   H1  H2  
O   H1  H2  O   H1  H2  O   H1  H2  O   H1  H2  O   H1  H2  O   H1  H2  O   H1  
H2  O   H1  H2  O   H1  H2  O   H1  H2  O   H1  H2  O   H1  H2  O   H1  H2  O   
H1  H2  O   H1  H2  O   H1  H2  O   H1  H2  O   H1  H2  O   H1  H2  O   H1  H2  
O   H1  H2  O   H1  H2  O   H1  H2  O   H1  H2  O   H1  H2  O   H1  H2  O   H1  
H2  O   H1  H2  O   H1  H2  O   H1  H2  O   H1  H2  O   H1  H2  O   H1  H2  O   
H1  H2  O   H1  H2  O   H1  H2  O   H1  H2  O   H1  H2  O   H1  H2  O   H1  H2  
O   H1  H2  O   H1  H2  O   H1  H2  O   H1  H2  O   H1  H2  O   H1  H2  O   H1  
H2  O   H1  H2  O   H1  H2  O   H1  H2  O   H1  H2  O   H1  H2  O   H1  H2  O   
H1  H2  O   H1  H2  O   H1  H2  O   H1  H2  O   H1  H2  O   H1  H2  O   H1  H2  
O   H1  H2  O   H1  H2  O   H1  H2  O   H1  H2  O   H1  H2  O   H1  H2  O   H1  
H2  O   H1  H2  O   H1  H2  O   H1  H2  O   H1  H2  O   H1  H2  O   H1  H2  O   
H1  H2  O   H1  H2  O   H1  H2  O   H1  H2  O   H1  H2  O   H1  H2  O   H1  H2  
O   H1  H2  O   H1  H2  O   H1  H2  O   H1  H2  O   H1  H2  O   H1  H2  O   H1  
H2  O   H1  H2  O   H1  H2  O   H1  H2  O   H1  H2  O   H1  H2  O   H1  H2  O   
H1  H2  O   H1  H2  O   H1  H2  O   H1  H2  O   H1  H2  O   H1  H2  O   H1  H2  
O   H1  H2  O   H1  H2  O   H1  H2  O   H1  H2  O   H1  H2  O   H1  H2  O   H1  
H2  O   H1  H2  O   H1  H2  O   H1  H2  O   H1  H2  O   H1  H2  O   H1  H2  O   
H1  H2  O   H1  H2  O   H1  H2  O   H1  H2  O   H1  H2  O   H1  H2  O   H1  H2  
O   H1  H2  O   H1  H2  O   H1  H2  O   H1  H2  O   H1  H2  O   H1  H2  O   H1  
H2  O   H1  H2  O   H1  H2  O   H1  H2  O   H1  H2  O   H1  H2  O   H1  H2  O   
H1  H2  O   H1  H2  O   H1  H2  O   H1  H2  O   H1  H2  O   H1  H2  O   H1  H2  
O   H1  H2  O   H1  H2  O   H1  H2  O   H1  H2  O   H1  H2  O   H1  H2  O   H1  
H2  O   H1  H2  O   H1  H2  O   H1  H2  O   H1  H2  O   H1  H2  O   H1  H2  O   
H1  H2  O   H1  H2  O   H1  H2  O   H1  H2  O   H1  H2  O   H1  H2  O   H1  H2  
O   H1  H2  O   H1  H2  O   H1  H2  O   H1  H2  O   H1  H2  O   H1  H2  O   H1  
H2  O   H1  H2  O   H1  H2  O   H1  H2  O   H1  H2  O   H1  H2  O   H1  H2  O   
H1  H2  O   H1  H2  O   H1  H2  O   H1  H2  O   H1  H2  O   H1  H2  O   H1  H2  
O   H1  H2  O   H1  H2  O   H1  H2  O   H1  H2  O   H1  H2  O   H1  H2  O   H1  
H2  O   H1  H2  O   H1  H2  O   H1  H2  O   H1  H2  O   H1  H2  O   H1  H2  O   
H1  H2  O   H1  H2  O   H1  H2  O   H1  H2  O   H1  H2  O   H1  H2  O   H1  H2  
O   H1  H2  O   H1  H2  O   H1  H2  O   H1  H2  O   H1  H2  O   H1  H2  O   H1  
H2  O   H1  H2  O   H1  H2  O   H1  H2  O   H1  H2  O   H1  H2  O   H1  H2  O   
H1  H2  O   H1  H2  O   H1  H2  O   H1  H2  O   H1  H2  O   H1  H2  O   H1  H2  
O   H1  H2  O   H1  H2  O   H1  H2  O   H1  H2  O   H1  H2  O   H1  H2  O   H1  
H2  O   H1  H2  O   H1  H2  O   H1  H2  O   H1  H2  O   H1  H2  O   H1  H2  O   
H1  H2  O   H1  H2  O   H1  H2  O   H1  H2  O   H1  H2  O   H1  H2  O   H1  H2  
O   H1  H2  O   H1  H2  O   H1  H2  O   H1  H2  O   H1  H2  O   H1  H2  O   H1  
H2  O   H1  H2  O   H1  H2  O   H1  H2  O   H1  H2  O   H1  H2  O   H1  H2  O   
H1  H2  O   H1  H2  O   H1  H2  O   H1  H2  O   H1  H2  O   H1  H2  O   H1  H2  
O   H1  H2  O   H1  H2  O   H1  H2  O   H1  H2  O   H1  H2  O   H1  H2  O   H1  
H2  O   H1  H2  O   H1  H2  O   H1  H2  O   H1  H2  O   H1  H2  O   H1  H2  O   
H1  H2  O   H1  H2  O   H1  H2  O   H1  H2  O   H1  H2  O   H1  H2  O   H1  H2  
O   H1  H2  O   H1  H2  O   H1  H2  O   H1  H2  O   H1  H2  O   H1  H2  O   H1  
H2  O   H1  H2  O   H1  H2  O   H1  H2  O   H1  H2  O   H1  H2  O   H1  H2  O   
H1  H2  O   H1  H2  O   H1  H2  O   H1  H2  O   H1  H2  O   H1  H2  O   H1  H2  
O   H1  H2  O   H1  H2  O   H1  H2  O   H1  H2  O   H1  H2  O   H1  H2  O   H1  
H2  O   H1  H2  O   H1  H2  O   H1  H2  O   H1  H2  O   H1  H2  O   H1  H2  O   
H1  H2  O   H1  H2  O   H1  H2  O   H1  H2  O   H1  H2  O   H1  H2  O   H1  H2  
O   H1  H2  O   H1  H2  O   H1  H2  O   H1  H2  O   H1  H2  O   H1  H2  O   H1  
H2  O   H1  H2  O   H1  H2  O   H1  H2  O   H1  H2  O   H1  H2  O   H1  H2  O   
H1  H2  O   H1  H2  O   H1  H2  O   H1  H2  O   H1  H2  O   H1  H2  O   H1  H2  
O   H1  H2  O   H1  H2  O   H1  H2  O   H1  H2  O   H1  H2  O   H1  H2  O   H1  
H2  O   H1  H2  O   H1  H2  O   H1  H2  O   H1  H2  O   H1  H2  O   H1  H2  O   
H1  H2  O   H1  H2  O   H1  H2  O   H1  H2  O   H1  H2  O   H1  H2  O   H1  H2  
O   H1  H2  O   H1  H2  O   H1  H2  O   H1  H2  O   H1  H2  O   H1  H2  O   H1  
H2  O   H1  H2  O   H1  H2  O   H1  H2  O   H1  H2  O   H1  H2  O   H1  H2  O   
H1  H2  O   H1  H2  O   H1  H2  O   H1  H2  O   H1  H2  O   H1  H2  O   H1  H2  
O   H1  H2  O   H1  H2  O   H1  H2  O   H1  H2  O   H1  H2  O   H1  H2  O   H1  
H2  O   H1  H2  O   H1  H2  O   H1  H2  O   H1  H2  O   H1  H2  O   H1  H2  O   
H1  H2  O   H1  H2  O   H1  H2  O   H1  H2  O   H1  H2  O   H1  H2  O   H1  H2  
O   H1  H2  O   H1  H2  O   H1  H2  O   H1  H2  O   H1  H2  O   H1  H2  O   H1  
H2  O   H1  H2  O   H1  H2  O   H1  H2  O   H1  H2  O   H1  H2  O   H1  H2  O   
H1  H2  O   H1  H2  O   H1  H2  O   H1  H2  O   H1  H2  O   H1  H2  O   H1  H2  
O   H1  H2  O   H1  H2  O   H1  H2  O   H1  H2  O   H1  H2  O   H1  H2  O   H1  
H2  O   H1  H2  O   H1  H2  O   H1  H2  O   H1  H2  O   H1  H2  O   H1  H2  O   
H1  H2  O   H1  H2  O   H1  H2  O   H1  H2  O   H1  H2  O   H1  H2  O   H1  H2  
O   H1  H2  O   H1  H2  O   H1  H2  O   H1  H2  O   H1  H2  O   H1  H2  O   H1  
H2  O   H1  H2  O   H1  H2  O   H1  H2  O   H1  H2  O   H1  H2  O   H1  H2  O   
H1  H2  O   H1  H2  O   H1  H2  O   H1  H2  O   H1  H2  O   H1  H2  O   H1  H2  
O   H1  H2  O   H1  H2  O   H1  H2  O   H1  H2  O   H1  H2  O   H1  H2  O   H1  
H2  O   H1  H2  O   H1  H2  O   H1  H2  O   H1  H2  O   H1  H2  O   H1  H2  O   
H1  H2  O   H1  H2  O   H1  H2  O   H1  H2  O   H1  H2  O   H1  H2  O   H1  H2  
O   H1  H2  O   H1  H2  O   H1  H2  O   H1  H2  O   H1  H2  O   H1  H2  O   H1  
H2  O   H1  H2  O   H1  H2  O   H1  H2  O   H1  H2  O   H1  H2  O   H1  H2  O   
H1  H2  O   H1  H2  O   H1  H2  O   H1  H2  O   H1  H2  O   H1  H2  O   H1  H2  
O   H1  H2  O   H1  H2  O   H1  H2  O   H1  H2  O   H1  H2  O   H1  H2  O   H1  
H2  O   H1  H2  O   H1  H2  O   H1  H2  O   H1  H2  O   H1  H2  O   H1  H2  O   
H1  H2  O   H1  H2  O   H1  H2  O   H1  H2  O   H1  H2  O   H1  H2  O   H1  H2  
O   H1  H2  O   H1  H2  O   H1  H2  O   H1  H2  O   H1  H2  O   H1  H2  O   H1  
H2  O   H1  H2  O   H1  H2  O   H1  H2  O   H1  H2  O   H1  H2  O   H1  H2  O   
H1  H2  O   H1  H2  O   H1  H2  O   H1  H2  O   H1  H2  O   H1  H2  O   H1  H2  
O   H1  H2  O   H1  H2  O   H1  H2  O   H1  H2  O   H1  H2  O   H1  H2  O   H1  
H2  O   H1  H2  O   H1  H2  O   H1  H2  O   H1  H2  O   H1  H2  O   H1  H2  O   
H1  H2  O   H1  H2  O   H1  H2  O   H1  H2  O   H1  H2  O   H1  H2  O   H1  H2  
O   H1  H2  O   H1  H2  O   H1  H2  O   H1  H2  O   H1  H2  O   H1  H2  O   H1  
H2  O   H1  H2  O   H1  H2  O   H1  H2  O   H1  H2  O   H1  H2  O   H1  H2  O   
H1  H2  O   H1  H2  O   H1  H2  O   H1  H2  O   H1  H2  O   H1  H2  O   H1  H2  
O   H1  H2  O   H1  H2  O   H1  H2  O   H1  H2  O   H1  H2  O   H1  H2  O   H1  
H2  O   H1  H2  O   H1  H2  O   H1  H2  O   H1  H2  O   H1  H2  O   H1  H2  O   
H1  H2  O   H1  H2  O   H1  H2  O   H1  H2  O   H1  H2  O   H1  H2  O   H1  H2  
O   H1  H2  O   H1  H2  O   H1  H2  O   H1  H2  O   H1  H2  O   H1  H2  O   H1  
H2  O   H1  H2  O   H1  H2  O   H1  H2  O   H1  H2  O   H1  H2  O   H1  H2  O   
H1  H2  O   H1  H2  O   H1  H2  O   H1  H2  O   H1  H2  O   H1  H2  O   H1  H2  
O   H1  H2  O   H1  H2  O   H1  H2  O   H1  H2  O   H1  H2  O   H1  H2  O   H1  
H2  O   H1  H2  O   H1  H2  O   H1  H2  O   H1  H2  O   H1  H2  O   H1  H2  O   
H1  H2  O   H1  H2  O   H1  H2  O   H1  H2  O   H1  H2  O   H1  H2  O   H1  H2  
O   H1  H2  O   H1  H2  O   H1  H2  O   H1  H2  O   H1  H2  O   H1  H2  O   H1  
H2  O   H1  H2  O   H1  H2  O   H1  H2  O   H1  H2  O   H1  H2  O   H1  H2  O   
H1  H2  O   H1  H2  O   H1  H2  O   H1  H2  O   H1  H2  O   H1  H2  O   H1  H2  
O   H1  H2  O   H1  H2  O   H1  H2  O   H1  H2  O   H1  H2  O   H1  H2  O   H1  
H2  O   H1  H2  O   H1  H2  O   H1  H2  O   H1  H2  O   H1  H2  O   H1  H2  O   
H1  H2  O   H1  H2  O   H1  H2  O   H1  H2  O   H1  H2  O   H1  H2  O   H1  H2  
O   H1  H2  O   H1  H2  O   H1  H2  O   H1  H2  O   H1  H2  O   H1  H2  O   H1  
H2  O   H1  H2  O   H1  H2  O   H1  H2  O   H1  H2  O   H1  H2  O   H1  H2  O   
H1  H2  O   H1  H2  O   H1  H2  O   H1  H2  O   H1  H2  O   H1  H2  O   H1  H2  
O   H1  H2  O   H1  H2  O   H1  H2  O   H1  H2  O   H1  H2  O   H1  H2  O   H1  
H2  O   H1  H2  O   H1  H2  O   H1  H2  O   H1  H2  O   H1  H2  O   H1  H2  O   
H1  H2  O   H1  H2  O   H1  H2  O   H1  H2  O   H1  H2  O   H1  H2  O   H1  H2  
O   H1  H2  O   H1  H2  O   H1  H2  O   H1  H2  O   H1  H2  O   H1  H2  O   H1  
H2  O   H1  H2  O   H1  H2  O   H1  H2  O   H1  H2  O   H1  H2  O   H1  H2  O   
H1  H2  O   H1  H2  O   H1  H2  O   H1  H2  O   H1  H2  O   H1  H2  O   H1  H2  
O   H1  H2  O   H1  H2  O   H1  H2  O   H1  H2  O   H1  H2  O   H1  H2  O   H1  
H2  O   H1  H2  O   H1  H2  O   H1  H2  O   H1  H2  O   H1  H2  O   H1  H2  O   
H1  H2  O   H1  H2  O   H1  H2  O   H1  H2  O   H1  H2  O   H1  H2  O   H1  H2  
O   H1  H2  O   H1  H2  O   H1  H2  O   H1  H2  O   H1  H2  O   H1  H2  O   H1  
H2  O   H1  H2  O   H1  H2  O   H1  H2  O   H1  H2  O   H1  H2  O   H1  H2  O   
H1  H2  O   H1  H2  O   H1  H2  O   H1  H2  O   H1  H2  O   H1  H2  O   H1  H2  
O   H1  H2  O   H1  H2  O   H1  H2  O   H1  H2  O   H1  H2  O   H1  H2  O   H1  
H2  O   H1  H2  O   H1  H2  O   H1  H2  O   H1  H2  O   H1  H2  O   H1  H2  O   
H1  H2  O   H1  H2  O   H1  H2  O   H1  H2  O   H1  H2  O   H1  H2  O   H1  H2  
O   H1  H2  O   H1  H2  O   H1  H2  O   H1  H2  O   H1  H2  O   H1  H2  O   H1  
H2  O   H1  H2  O   H1  H2  O   H1  H2  O   H1  H2  O   H1  H2  O   H1  H2  O   
H1  H2  O   H1  H2  O   H1  H2  O   H1  H2  O   H1  H2  O   H1  H2  O   H1  H2  
O   H1  H2  O   H1  H2  O   H1  H2  O   H1  H2  O   H1  H2  O   H1  H2  O   H1  
H2  O   H1  H2  O   H1  H2  O   H1  H2  O   H1  H2  O   H1  H2  O   H1  H2  O   
H1  H2  O   H1  H2  O   H1  H2  O   H1  H2  O   H1  H2  O   H1  H2  O   H1  H2  
O   H1  H2  O   H1  H2  O   H1  H2  O   H1  H2  O   H1  H2  O   H1  H2  O   H1  
H2  O   H1  H2  O   H1  H2  O   H1  H2  O   H1  H2  O   H1  H2  O   H1  H2  O   
H1  H2  O   H1  H2  O   H1  H2  O   H1  H2  O   H1  H2  O   H1  H2  O   H1  H2  
O   H1  H2  O   H1  H2  O   H1  H2  O   H1  H2  O   H1  H2  O   H1  H2  O   H1  
H2  O   H1  H2  O   H1  H2  O   H1  H2  O   H1  H2  O   H1  H2  O   H1  H2  O   
H1  H2  O   H1  H2  O   H1  H2  O   H1  H2  O   H1  H2  O   H1  H2  O   H1  H2  
O   H1  H2  O   H1  H2  O   H1  H2  O   H1  H2  O   H1  H2  O   H1  H2  O   H1  
H2  O   H1  H2  O   H1  H2  O   H1  H2  O   H1  H2  O   H1  H2  O   H1  H2  O   
H1  H2  O   H1  H2  O   H1  H2  O   H1  H2  O   H1  H2  O   H1  H2  O   H1  H2  
O   H1  H2  O   H1  H2  O   H1  H2  O   H1  H2  O   H1  H2  O   H1  H2  O   H1  
H2  O   H1  H2  O   H1  H2  O   H1  H2  O   H1  H2  O   H1  H2  O   H1  H2  O   
H1  H2  O   H1  H2  O   H1  H2  O   H1  H2  O   H1  H2  O   H1  H2  O   H1  H2  
O   H1  H2  O   H1  H2  O   H1  H2  O   H1  H2  O   H1  H2  O   H1  H2  O   H1  
H2  O   H1  H2  O   H1  H2  O   H1  H2  O   H1  H2  O   H1  H2  O   H1  H2  O   
H1  H2  O   H1  H2  O   H1  H2  O   H1  H2  O   H1  H2  O   H1  H2  O   H1  H2  
O   H1  H2  O   H1  H2  O   H1  H2  O   H1  H2  O   H1  H2  O   H1  H2  O   H1  
H2  O   H1  H2  O   H1  H2  O   H1  H2  O   H1  H2  O   H1  H2  O   H1  H2  O   
H1  H2  O   H1  H2  O   H1  H2  O   H1  H2  O   H1  H2  O   H1  H2  O   H1  H2  
O   H1  H2  O   H1  H2  O   H1  H2  O   H1  H2  O   H1  H2  O   H1  H2  O   H1  
H2  O   H1  H2  O   H1  H2  O   H1  H2  O   H1  H2  O   H1  H2  O   H1  H2  O   
H1  H2  O   H1  H2  O   H1  H2  O   H1  H2  O   H1  H2  O   H1  H2  O   H1  H2  
O   H1  H2  O   H1  H2  O   H1  H2  O   H1  H2  O   H1  H2  O   H1  H2  O   H1  
H2  O   H1  H2  O   H1  H2  O   H1  H2  O   H1  H2  O   H1  H2  O   H1  H2  O   
H1  H2  O   H1  H2  O   H1  H2  O   H1  H2  O   H1  H2  O   H1  H2  O   H1  H2  
O   H1  H2  O   H1  H2  O   H1  H2  O   H1  H2  O   H1  H2  O   H1  H2  O   H1  
H2  O   H1  H2  O   H1  H2  O   H1  H2  O   H1  H2  O   H1  H2  O   H1  H2  O   
H1  H2  O   H1  H2  O   H1  H2  O   H1  H2  O   H1  H2  O   H1  H2  O   H1  H2  
O   H1  H2  O   H1  H2  O   H1  H2  O   H1  H2  O   H1  H2  O   H1  H2  O   H1  
H2  O   H1  H2  O   H1  H2  O   H1  H2  O   H1  H2  O   H1  H2  O   H1  H2  O   
H1  H2  O   H1  H2  O   H1  H2  O   H1  H2  O   H1  H2  O   H1  H2  O   H1  H2  
O   H1  H2  O   H1  H2  O   H1  H2  O   H1  H2  O   H1  H2  O   H1  H2  O   H1  
H2  O   H1  H2  O   H1  H2  O   H1  H2  O   H1  H2  O   H1  H2  O   H1  H2  O   
H1  H2  O   H1  H2  O   H1  H2  O   H1  H2  O   H1  H2  O   H1  H2  O   H1  H2  
O   H1  H2  O   H1  H2  O   H1  H2  O   H1  H2  O   H1  H2  O   H1  H2  O   H1  
H2  O   H1  H2  O   H1  H2  O   H1  H2  O   H1  H2  O   H1  H2  O   H1  H2  O   
H1  H2  O   H1  H2  O   H1  H2  O   H1  H2  O   H1  H2  O   H1  H2  O   H1  H2  
O   H1  H2  O   H1  H2  O   H1  H2  O   H1  H2  O   H1  H2  O   H1  H2  O   H1  
H2  O   H1  H2  O   H1  H2  O   H1  H2  O   H1  H2  O   H1  H2  O   H1  H2  O   
H1  H2  O   H1  H2  O   H1  H2  O   H1  H2  O   H1  H2  O   H1  H2  O   H1  H2  
O   H1  H2  O   H1  H2  O   H1  H2  O   H1  H2  O   H1  H2  O   H1  H2  O   H1  
H2  O   H1  H2  O   H1  H2  O   H1  H2  O   H1  H2  O   H1  H2  O   H1  H2  O   
H1  H2  O   H1  H2  O   H1  H2  O   H1  H2  O   H1  H2  O   H1  H2  O   H1  H2  
O   H1  H2  O   H1  H2  O   H1  H2  O   H1  H2  O   H1  H2  O   H1  H2  O   H1  
H2  O   H1  H2  O   H1  H2  O   H1  H2  O   H1  H2  O   H1  H2  O   H1  H2  O   
H1  H2  O   H1  H2  O   H1  H2  O   H1  H2  O   H1  H2  O   H1  H2  O   H1  H2  
O   H1  H2  O   H1  H2  O   H1  H2  O   H1  H2  O   H1  H2  O   H1  H2  O   H1  
H2  O   H1  H2  O   H1  H2  O   H1  H2  O   H1  H2  O   H1  H2  O   H1  H2  O   
H1  H2  O   H1  H2  O   H1  H2  O   H1  H2  O   H1  H2  O   H1  H2  O   H1  H2  
O   H1  H2  O   H1  H2  O   H1  H2  O   H1  H2  O   H1  H2  O   H1  H2  O   H1  
H2  O   H1  H2  O   H1  H2  O   H1  H2  O   H1  H2  O   H1  H2  O   H1  H2  O   
H1  H2  O   H1  H2  O   H1  H2  O   H1  H2  O   H1  H2  O   H1  H2  O   H1  H2  
O   H1  H2  O   H1  H2  O   H1  H2  O   H1  H2  O   H1  H2  O   H1  H2  O   H1  
H2  O   H1  H2  O   H1  H2  O   H1  H2  O   H1  H2  O   H1  H2  O   H1  H2  O   
H1  H2  O   H1  H2  O   H1  H2  O   H1  H2  O   H1  H2  O   H1  H2  O   H1  H2  
O   H1  H2  O   H1  H2  O   H1  H2  O   H1  H2  O   H1  H2  O   H1  H2  O   H1  
H2  O   H1  H2  O   H1  H2  O   H1  H2  O   H1  H2  O   H1  H2  O   H1  H2  O   
H1  H2  O   H1  H2  O   H1  H2  O   H1  H2  O   H1  H2  O   H1  H2  O   H1  H2  
O   H1  H2  O   H1  H2  O   H1  H2  O   H1  H2  O   H1  H2  O   H1  H2  O   H1  
H2  O   H1  H2  O   H1  H2  O   H1  H2  O   H1  H2  O   H1  H2  O   H1  H2  O   
H1  H2  O   H1  H2  O   H1  H2  O   H1  H2  O   H1  H2  O   H1  H2  O   H1  H2  
O   H1  H2  O   H1  H2  O   H1  H2  O   H1  H2  O   H1  H2  O   H1  H2  O   H1  
H2  O   H1  H2  O   H1  H2  O   H1  H2  O   H1  H2  O   H1  H2  O   H1  H2  O   
H1  H2  O   H1  H2  O   H1  H2  O   H1  H2  O   H1  H2  O   H1  H2  O   H1  H2  
O   H1  H2  O   H1  H2  O   H1  H2  O   H1  H2  O   H1  H2  O   H1  H2  O   H1  
H2  O   H1  H2  O   H1  H2  O   H1  H2  O   H1  H2  O   H1  H2  O   H1  H2  O   
H1  H2  O   H1  H2  O   H1  H2  O   H1  H2  O   H1  H2  O   H1  H2  O   H1  H2  
O   H1  H2  O   H1  H2  O   H1  H2  O   H1  H2  O   H1  H2  O   H1  H2  O   H1  
H2  O   H1  H2  O   H1  H2  O   H1  H2  O   H1  H2  O   H1  H2  O   H1  H2  O   
H1  H2  O   H1  H2  O   H1  H2  O   H1  H2  O   H1  H2  O   H1  H2  O   H1  H2  
O   H1  H2  O   H1  H2  O   H1  H2  O   H1  H2  O   H1  H2  O   H1  H2  O   H1  
H2  O   H1  H2  O   H1  H2  O   H1  H2  O   H1  H2  O   H1  H2  O   H1  H2  O   
H1  H2  O   H1  H2  O   H1  H2  O   H1  H2  O   H1  H2  O   H1  H2  O   H1  H2  
O   H1  H2  O   H1  H2  O   H1  H2  O   H1  H2  O   H1  H2  O   H1  H2  O   H1  
H2  O   H1  H2  O   H1  H2  O   H1  H2  O   H1  H2  O   H1  H2  O   H1  H2  O   
H1  H2  O   H1  H2  O   H1  H2  O   H1  H2  O   H1  H2  O   H1  H2  O   H1  H2  
O   H1  H2  O   H1  H2  O   H1  H2  O   H1  H2  O   H1  H2  O   H1  H2  O   H1  
H2  O   H1  H2  O   H1  H2  O   H1  H2  O   H1  H2  O   H1  H2  O   H1  H2  O   
H1  H2  O   H1  H2  O   H1  H2  O   H1  H2  O   H1  H2  O   H1  H2  O   H1  H2  
O   H1  H2  O   H1  H2  O   H1  H2  O   H1  H2  O   H1  H2  O   H1  H2  O   H1  
H2  O   H1  H2  O   H1  H2  O   H1  H2  O   H1  H2  O   H1  H2  O   H1  H2  O   
H1  H2  O   H1  H2  O   H1  H2  O   H1  H2  O   H1  H2  O   H1  H2  O   H1  H2  
O   H1  H2  O   H1  H2  O   H1  H2  O   H1  H2  O   H1  H2  O   H1  H2  O   H1  
H2  O   H1  H2  O   H1  H2  O   H1  H2  O   H1  H2  O   H1  H2  O   H1  H2  O   
H1  H2  O   H1  H2  O   H1  H2  O   H1  H2  O   H1  H2  O   H1  H2  O   H1  H2  
O   H1  H2  O   H1  H2  O   H1  H2  O   H1  H2  O   H1  H2  O   H1  H2  O   H1  
H2  O   H1  H2  O   H1  H2  O   H1  H2  O   H1  H2  O   H1  H2  O   H1  H2  O   
H1  H2  O   H1  H2  O   H1  H2  O   H1  H2  O   H1  H2  O   H1  H2  O   H1  H2  
O   H1  H2  O   H1  H2  O   H1  H2  O   H1  H2  O   H1  H2  O   H1  H2  O   H1  
H2  O   H1  H2  O   H1  H2  O   H1  H2  O   H1  H2  O   H1  H2  O   H1  H2  O   
H1  H2  O   H1  H2  O   H1  H2  O   H1  H2  O   H1  H2  O   H1  H2  O   H1  H2  
O   H1  H2  O   H1  H2  O   H1  H2  O   H1  H2  O   H1  H2  O   H1  H2  O   H1  
H2  O   H1  H2  O   H1  H2  O   H1  H2  O   H1  H2  O   H1  H2  O   H1  H2  O   
H1  H2  O   H1  H2  O   H1  H2  O   H1  H2  O   H1  H2  O   H1  H2  O   H1  H2  
O   H1  H2  O   H1  H2  O   H1  H2  O   H1  H2  O   H1  H2  O   H1  H2  O   H1  
H2  O   H1  H2  O   H1  H2  O   H1  H2  O   H1  H2  O   H1  H2  O   H1  H2  O   
H1  H2  O   H1  H2  O   H1  H2  O   H1  H2  O   H1  H2  O   H1  H2  O   H1  H2  
O   H1  H2  O   H1  H2  O   H1  H2  O   H1  H2  O   H1  H2  O   H1  H2  O   H1  
H2  O   H1  H2  O   H1  H2  O   H1  H2  O   H1  H2  O   H1  H2  O   H1  H2  O   
H1  H2  O   H1  H2  O   H1  H2  O   H1  H2  O   H1  H2  O   H1  H2  O   H1  H2  
O   H1  H2  O   H1  H2  O   H1  H2  O   H1  H2  O   H1  H2  O   H1  H2  O   H1  
H2  O   H1  H2  O   H1  H2  O   H1  H2  O   H1  H2  O   H1  H2  O   H1  H2  O   
H1  H2  O   H1  H2  O   H1  H2  O   H1  H2  O   H1  H2  O   H1  H2  O   H1  H2  
O   H1  H2  O   H1  H2  O   H1  H2  O   H1  H2  O   H1  H2  O   H1  H2  O   H1  
H2  O   H1  H2  O   H1  H2  O   H1  H2  O   H1  H2  O   H1  H2  O   H1  H2  O   
H1  H2  O   H1  H2  O   H1  H2  O   H1  H2  O   H1  H2  O   H1  H2  O   H1  H2  
O   H1  H2  O   H1  H2  O   H1  H2  O   H1  H2  O   H1  H2  O   H1  H2  O   H1  
H2  O   H1  H2  O   H1  H2  O   H1  H2  O   H1  H2  O   H1  H2  O   H1  H2  O   
H1  H2  O   H1  H2  O   H1  H2  O   H1  H2  O   H1  H2  O   H1  H2  O   H1  H2  
O   H1  H2  O   H1  H2  O   H1  H2  O   H1  H2  O   H1  H2  O   H1  H2  O   H1  
H2  O   H1  H2  O   H1  H2  O   H1  H2  O   H1  H2  O   H1  H2  O   H1  H2  O   
H1  H2  O   H1  H2  O   H1  H2  O   H1  H2  O   H1  H2  O   H1  H2  O   H1  H2  
O   H1  H2  O   H1  H2  O   H1  H2  O   H1  H2  O   H1  H2  O   H1  H2  O   H1  
H2  O   H1  H2  O   H1  H2  O   H1  H2  O   H1  H2  O   H1  H2  O   H1  H2  O   
H1  H2  O   H1  H2  O   H1  H2  O   H1  H2  O   H1  H2  O   H1  H2  O   H1  H2  
O   H1  H2  O   H1  H2  O   H1  H2  O   H1  H2  O   H1  H2  O   H1  H2  O   H1  
H2  O   H1  H2  O   H1  H2  O   H1  H2  O   H1  H2  O   H1  H2  O   H1  H2  O   
H1  H2  O   H1  H2  O   H1  H2  O   H1  H2  O   H1  H2  O   H1  H2  O   H1  H2  
O   H1  H2  O   H1  H2  O   H1  H2  O   H1  H2  O   H1  H2  O   H1  H2  O   H1  
H2  O   H1  H2  O   H1  H2  O   H1  H2  O   H1  H2  O   H1  H2  O   H1  H2  O   
H1  H2  O   H1  H2  O   H1  H2  O   H1  H2  O   H1  H2  O   H1  H2  O   H1  H2  
O   H1  H2  O   H1  H2  O   H1  H2  O   H1  H2  O   H1  H2  O   H1  H2  O   H1  
H2  O   H1  H2  O   H1  H2  O   H1  H2  O   H1  H2  O   H1  H2  O   H1  H2  O   
H1  H2  O   H1  H2  O   H1  H2  O   H1  H2  O   H1  H2  O   H1  H2  O   H1  H2  
O   H1  H2  O   H1  H2  O   H1  H2  O   H1  H2  O   H1  H2  O   H1  H2  O   H1  
H2  O   H1  H2  O   H1  H2  O   H1  H2  O   H1  H2  O   H1  H2  O   H1  H2  O   
H1  H2  O   H1  H2  O   H1  H2  O   H1  H2  O   H1  H2  O   H1  H2  O   H1  H2  
O   H1  H2  O   H1  H2  O   H1  H2  O   H1  H2  O   H1  H2  O   H1  H2  O   H1  
H2  O   H1  H2  O   H1  H2  O   H1  H2  O   H1  H2  O   H1  H2  O   H1  H2  O   
H1  H2  O   H1  H2  O   H1  H2  O   H1  H2  O   H1  H2  O   H1  H2  O   H1  H2  
O   H1  H2  O   H1  H2  O   H1  H2  O   H1  H2  O   H1  H2  O   H1  H2  O   H1  
H2  O   H1  H2  O   H1  H2  O   H1  H2  O   H1  H2  O   H1  H2  O   H1  H2  O   
H1  H2  O   H1  H2  O   H1  H2  O   H1  H2  O   H1  H2  O   H1  H2  O   H1  H2  
O   H1  H2  O   H1  H2  O   H1  H2  O   H1  H2  O   H1  H2  O   H1  H2  O   H1  
H2  O   H1  H2  O   H1  H2  O   H1  H2  O   H1  H2  O   H1  H2  O   H1  H2  O   
H1  H2  O   H1  H2  O   H1  H2  O   H1  H2  O   H1  H2  O   H1  H2  O   H1  H2  
O   H1  H2  O   H1  H2  O   H1  H2  O   H1  H2  O   H1  H2  O   H1  H2  O   H1  
H2  O   H1  H2  O   H1  H2  O   H1  H2  O   H1  H2  O   H1  H2  O   H1  H2  O   
H1  H2  O   H1  H2  O   H1  H2  O   H1  H2  O   H1  H2  O   H1  H2  O   H1  H2  
O   H1  H2  O   H1  H2  O   H1  H2  O   H1  H2  O   H1  H2  O   H1  H2  O   H1  
H2  O   H1  H2  O   H1  H2  O   H1  H2  O   H1  H2  O   H1  H2  O   H1  H2  O   
H1  H2  O   H1  H2  O   H1  H2  O   H1  H2  O   H1  H2  O   H1  H2  O   H1  H2  
O   H1  H2  O   H1  H2  O   H1  H2  O   H1  H2  O   H1  H2  O   H1  H2  O   H1  
H2  O   H1  H2  O   H1  H2  O   H1  H2  O   H1  H2  O   H1  H2  O   H1  H2  O   
H1  H2  O   H1  H2  O   H1  H2  O   H1  H2  O   H1  H2  O   H1  H2  O   H1  H2  
O   H1  H2  O   H1  H2  O   H1  H2  O   H1  H2  O   H1  H2  O   H1  H2  O   H1  
H2  O   H1  H2  O   H1  H2  O   H1  H2  O   H1  H2  O   H1  H2  O   H1  H2  O   
H1  H2  O   H1  H2  O   H1  H2  O   H1  H2  O   H1  H2  O   H1  H2  O   H1  H2  
O   H1  H2  O   H1  H2  O   H1  H2  O   H1  H2  O   H1  H2  O   H1  H2  O   H1  
H2  O   H1  H2  O   H1  H2  O   H1  H2  O   H1  H2  O   H1  H2  O   H1  H2  O   
H1  H2  O   H1  H2  O   H1  H2  O   H1  H2  O   H1  H2  O   H1  H2  O   H1  H2  
O   H1  H2  O   H1  H2  O   H1  H2  O   H1  H2  O   H1  H2  O   H1  H2  O   H1  
H2  O   H1  H2  O   H1  H2  O   H1  H2  O   H1  H2  O   H1  H2  O   H1  H2  O   
H1  H2  O   H1  H2  O   H1  H2  O   H1  H2  O   H1  H2  O   H1  H2  O   H1  H2  
O   H1  H2  O   H1  H2  O   H1  H2  O   H1  H2  O   H1  H2  O   H1  H2  O   H1  
H2  O   H1  H2  O   H1  H2  O   H1  H2  O   H1  H2  O   H1  H2  O   H1  H2  O   
H1  H2  O   H1  H2  O   H1  H2  O   H1  H2  O   H1  H2  O   H1  H2  O   H1  H2  
O   H1  H2  O   H1  H2  O   H1  H2  O   H1  H2  O   H1  H2  O   H1  H2  O   H1  
H2  O   H1  H2  O   H1  H2  O   H1  H2  O   H1  H2  O   H1  H2  O   H1  H2  O   
H1  H2  O   H1  H2  O   H1  H2  O   H1  H2  O   H1  H2  O   H1  H2  O   H1  H2  
O   H1  H2  O   H1  H2  O   H1  H2  O   H1  H2  O   H1  H2  O   H1  H2  O   H1  
H2  O   H1  H2  O   H1  H2  O   H1  H2  O   H1  H2  O   H1  H2  O   H1  H2  O   
H1  H2  O   H1  H2  O   H1  H2  O   H1  H2  O   H1  H2  O   H1  H2  O   H1  H2  
O   H1  H2  O   H1  H2  O   H1  H2  O   H1  H2  O   H1  H2  O   H1  H2  O   H1  
H2  O   H1  H2  O   H1  H2  O   H1  H2  O   H1  H2  O   H1  H2  O   H1  H2  O   
H1  H2  O   H1  H2  O   H1  H2  O   H1  H2  O   H1  H2  O   H1  H2  O   H1  H2  
O   H1  H2  O   H1  H2  O   H1  H2  O   H1  H2  O   H1  H2  O   H1  H2  O   H1  
H2  O   H1  H2  O   H1  H2  O   H1  H2  O   H1  H2  O   H1  H2  O   H1  H2  O   
H1  H2  O   H1  H2  O   H1  H2  O   H1  H2  O   H1  H2  O   H1  H2  O   H1  H2  
O   H1  H2  O   H1  H2  O   H1  H2  O   H1  H2  O   H1  H2  O   H1  H2  O   H1  
H2  O   H1  H2  O   H1  H2  O   H1  H2  O   H1  H2  O   H1  H2  O   H1  H2  O   
H1  H2  O   H1  H2  O   H1  H2  O   H1  H2  O   H1  H2  O   H1  H2  O   H1  H2  
O   H1  H2  O   H1  H2  O   H1  H2  O   H1  H2  O   H1  H2  O   H1  H2  O   H1  
H2  O   H1  H2  O   H1  H2  O   H1  H2  O   H1  H2  O   H1  H2  O   H1  H2  O   
H1  H2  O   H1  H2  O   H1  H2  O   H1  H2  O   H1  H2  O   H1  H2  O   H1  H2  
O   H1  H2  O   H1  H2  O   H1  H2  O   H1  H2  O   H1  H2  O   H1  H2  O   H1  
H2  O   H1  H2  O   H1  H2  O   H1  H2  O   H1  H2  O   H1  H2  O   H1  H2  O   
H1  H2  O   H1  H2  O   H1  H2  O   H1  H2  O   H1  H2  O   H1  H2  O   H1  H2  
O   H1  H2  O   H1  H2  O   H1  H2  O   H1  H2  O   H1  H2  O   H1  H2  O   H1  
H2  O   H1  H2  O   H1  H2  O   H1  H2  O   H1  H2  O   H1  H2  O   H1  H2  O   
H1  H2  O   H1  H2  O   H1  H2  O   H1  H2  O   H1  H2  O   H1  H2  O   H1  H2  
O   H1  H2  O   H1  H2  O   H1  H2  O   H1  H2  O   H1  H2  O   H1  H2  O   H1  
H2  O   H1  H2  O   H1  H2  O   H1  H2  O   H1  H2  O   H1  H2  O   H1  H2  O   
H1  H2  O   H1  H2  O   H1  H2  O   H1  H2  O   H1  H2  O   H1  H2  O   H1  H2  
O   H1  H2  O   H1  H2  O   H1  H2  O   H1  H2  O   H1  H2  O   H1  H2  O   H1  
H2  O   H1  H2  O   H1  H2  O   H1  H2  O   H1  H2  O   H1  H2  O   H1  H2  O   
H1  H2  O   H1  H2  O   H1  H2  O   H1  H2  O   H1  H2  O   H1  H2  O   H1  H2  
O   H1  H2  O   H1  H2  O   H1  H2  O   H1  H2  O   H1  H2  O   H1  H2  O   H1  
H2  O   H1  H2  O   H1  H2  O   H1  H2  O   H1  H2  O   H1  H2  O   H1  H2  O   
H1  H2  O   H1  H2  O   H1  H2  O   H1  H2  O   H1  H2  O   H1  H2  O   H1  H2  
O   H1  H2  O   H1  H2  O   H1  H2  O   H1  H2  O   H1  H2  O   H1  H2  O   H1  
H2  O   H1  H2  O   H1  H2  O   H1  H2  O   H1  H2  O   H1  H2  O   H1  H2  O   
H1  H2  O   H1  H2  O   H1  H2  O   H1  H2  O   H1  H2  O   H1  H2  O   H1  H2  
O   H1  H2  O   H1  H2  O   H1  H2  O   H1  H2  O   H1  H2  O   H1  H2  O   H1  
H2  O   H1  H2  O   H1  H2  O   H1  H2  O   H1  H2  O   H1  H2  O   H1  H2  O   
H1  H2  O   H1  H2  O   H1  H2  O   H1  H2  O   H1  H2  O   H1  H2  O   H1  H2  
O   H1  H2  O   H1  H2  O   H1  H2  O   H1  H2  O   H1  H2  O   H1  H2  O   H1  
H2  O   H1  H2  O   H1  H2  O   H1  H2  O   H1  H2  O   H1  H2  O   H1  H2  O   
H1  H2  O   H1  H2  O   H1  H2  O   H1  H2  O   H1  H2  O   H1  H2  O   H1  H2  
O   H1  H2  O   H1  H2  O   H1  H2  O   H1  H2  O   H1  H2  O   H1  H2  O   H1  
H2  O   H1  H2  O   H1  H2  O   H1  H2  O   H1  H2  O   H1  H2  O   H1  H2  O   
H1  H2  O   H1  H2  O   H1  H2  O   H1  H2  O   H1  H2  O   H1  H2  O   H1  H2  
O   H1  H2  O   H1  H2  O   H1  H2  O   H1  H2  O   H1  H2  O   H1  H2  O   H1  
H2  O   H1  H2  O   H1  H2  O   H1  H2  O   H1  H2  O   H1  H2  O   H1  H2  O   
H1  H2  O   H1  H2  O   H1  H2  O   H1  H2  O   H1  H2  O   H1  H2  O   H1  H2  
O   H1  H2  O   H1  H2  O   H1  H2  O   H1  H2  O   H1  H2  O   H1  H2  O   H1  
H2  O   H1  H2  O   H1  H2  O   H1  H2  O   H1  H2  O   H1  H2  O   H1  H2  O   
H1  H2  O   H1  H2  O   H1  H2  O   H1  H2  O   H1  H2  O   H1  H2  O   H1  H2  
O   H1  H2  O   H1  H2  O   H1  H2  O   H1  H2  O   H1  H2  O   H1  H2  O   H1  
H2  O   H1  H2  O   H1  H2  O   H1  H2  O   H1  H2  O   H1  H2  O   H1  H2  O   
H1  H2  O   H1  H2  O   H1  H2  O   H1  H2  O   H1  H2  O   H1  H2  O   H1  H2  
O   H1  H2  O   H1  H2  O   H1  H2  O   H1  H2  O   H1  H2  O   H1  H2  O   H1  
H2  O   H1  H2  O   H1  H2  O   H1  H2  O   H1  H2  O   H1  H2  O   H1  H2  O   
H1  H2  O   H1  H2  O   H1  H2  O   H1  H2  O   H1  H2  O   H1  H2  O   H1  H2  
O   H1  H2  O   H1  H2  O   H1  H2  O   H1  H2  O   H1  H2  O   H1  H2  O   H1  
H2  O   H1  H2  O   H1  H2  O   H1  H2  O   H1  H2  O   H1  H2  O   H1  H2  O   
H1  H2  O   H1  H2  O   H1  H2  O   H1  H2  O   H1  H2  O   H1  H2  O   H1  H2  
O   H1  H2  O   H1  H2  O   H1  H2  O   H1  H2  O   H1  H2  O   H1  H2  O   H1  
H2  O   H1  H2  O   H1  H2  O   H1  H2  O   H1  H2  O   H1  H2  O   H1  H2  O   
H1  H2  O   H1  H2  O   H1  H2  O   H1  H2  O   H1  H2  O   H1  H2  O   H1  H2  
O   H1  H2  O   H1  H2  O   H1  H2  O   H1  H2  O   H1  H2  O   H1  H2  O   H1  
H2  O   H1  H2  O   H1  H2  O   H1  H2  O   H1  H2  O   H1  H2  O   H1  H2  O   
H1  H2  O   H1  H2  O   H1  H2  O   H1  H2  O   H1  H2  O   H1  H2  O   H1  H2  
O   H1  H2  O   H1  H2  O   H1  H2  O   H1  H2  O   H1  H2  O   H1  H2  O   H1  
H2  O   H1  H2  O   H1  H2  O   H1  H2  O   H1  H2  O   H1  H2  O   H1  H2  O   
H1  H2  O   H1  H2  O   H1  H2  O   H1  H2  O   H1  H2  O   H1  H2  O   H1  H2  
O   H1  H2  O   H1  H2  O   H1  H2  O   H1  H2  O   H1  H2  O   H1  H2  O   H1  
H2  O   H1  H2  O   H1  H2  O   H1  H2  O   H1  H2  O   H1  H2  O   H1  H2  O   
H1  H2  O   H1  H2  O   H1  H2  O   H1  H2  O   H1  H2  O   H1  H2  O   H1  H2  
O   H1  H2  O   H1  H2  O   H1  H2  O   H1  H2  O   H1  H2  O   H1  H2  O   H1  
H2  O   H1  H2  O   H1  H2  O   H1  H2  O   H1  H2  O   H1  H2  O   H1  H2  O   
H1  H2  O   H1  H2  O   H1  H2  O   H1  H2  O   H1  H2  O   H1  H2  O   H1  H2  
O   H1  H2  O   H1  H2  O   H1  H2  O   H1  H2  O   H1  H2  O   H1  H2  O   H1  
H2  O   H1  H2  O   H1  H2  O   H1  H2  O   H1  H2  O   H1  H2  O   H1  H2  O   
H1  H2  O   H1  H2  O   H1  H2  O   H1  H2  O   H1  H2  O   H1  H2  O   H1  H2  
O   H1  H2  O   H1  H2  O   H1  H2  O   H1  H2  O   H1  H2  O   H1  H2  O   H1  
H2  O   H1  H2  O   H1  H2  O   H1  H2  O   H1  H2  O   H1  H2  O   H1  H2  O   
H1  H2  O   H1  H2  O   H1  H2  O   H1  H2  O   H1  H2  O   H1  H2  O   H1  H2  
O   H1  H2  O   H1  H2  O   H1  H2  O   H1  H2  O   H1  H2  O   H1  H2  O   H1  
H2  O   H1  H2  O   H1  H2  O   H1  H2  O   H1  H2  O   H1  H2  O   H1  H2  O   
H1  H2  O   H1  H2  O   H1  H2  O   H1  H2  O   H1  H2  O   H1  H2  O   H1  H2  
O   H1  H2  O   H1  H2  O   H1  H2  O   H1  H2  O   H1  H2  O   H1  H2  O   H1  
H2  O   H1  H2  O   H1  H2  O   H1  H2  O   H1  H2  O   H1  H2  O   H1  H2  O   
H1  H2  O   H1  H2  O   H1  H2  O   H1  H2  O   H1  H2  O   H1  H2  O   H1  H2  
O   H1  H2  O   H1  H2  O   H1  H2  O   H1  H2  O   H1  H2  O   H1  H2  O   H1  
H2  O   H1  H2  O   H1  H2  O   H1  H2  O   H1  H2  O   H1  H2  O   H1  H2  O   
H1  H2  O   H1  H2  O   H1  H2  O   H1  H2  O   H1  H2  O   H1  H2  O   H1  H2  
O   H1  H2  O   H1  H2  O   H1  H2  O   H1  H2  O   H1  H2  O   H1  H2  O   H1  
H2  O   H1  H2  O   H1  H2  O   H1  H2  O   H1  H2  O   H1  H2  O   H1  H2  O   
H1  H2  O   H1  H2  O   H1  H2  O   H1  H2  O   H1  H2  O   H1  H2  O   H1  H2  
O   H1  H2  O   H1  H2  O   H1  H2  O   H1  H2  O   H1  H2  O   H1  H2  O   H1  
H2  O   H1  H2  O   H1  H2  O   H1  H2  O   H1  H2  O   H1  H2  O   H1  H2  O   
H1  H2  O   H1  H2  O   H1  H2  O   H1  H2  O   H1  H2  O   H1  H2  O   H1  H2  
O   H1  H2  O   H1  H2  O   H1  H2  O   H1  H2  O   H1  H2  O   H1  H2  O   H1  
H2  O   H1  H2  O   H1  H2  O   H1  H2  O   H1  H2  O   H1  H2  O   H1  H2  O   
H1  H2  O   H1  H2  O   H1  H2  O   H1  H2  O   H1  H2  O   H1  H2  O   H1  H2  
O   H1  H2  O   H1  H2  O   H1  H2  O   H1  H2  O   H1  H2  O   H1  H2  O   H1  
H2  O   H1  H2  O   H1  H2  O   H1  H2  O   H1  H2  O   H1  H2  O   H1  H2  O   
H1  H2  O   H1  H2  O   H1  H2  O   H1  H2  O   H1  H2  O   H1  H2  O   H1  H2  
O   H1  H2  O   H1  H2  O   H1  H2  O   H1  H2  O   H1  H2  O   H1  H2  O   H1  
H2  O   H1  H2  O   H1  H2  O   H1  H2  O   H1  H2  O   H1  H2  O   H1  H2  O   
H1  H2  O   H1  H2  O   H1  H2  O   H1  H2  O   H1  H2  O   H1  H2  O   H1  H2  
O   H1  H2  O   H1  H2  O   H1  H2  O   H1  H2  O   H1  H2  O   H1  H2  O   H1  
H2  O   H1  H2  O   H1  H2  O   H1  H2  O   H1  H2  O   H1  H2  O   H1  H2  O   
H1  H2  O   H1  H2  O   H1  H2  O   H1  H2  O   H1  H2  O   H1  H2  O   H1  H2  
O   H1  H2  O   H1  H2  O   H1  H2  O   H1  H2  O   H1  H2  O   H1  H2  O   H1  
H2  O   H1  H2  O   H1  H2  O   H1  H2  O   H1  H2  O   H1  H2  O   H1  H2  O   
H1  H2  O   H1  H2  O   H1  H2  O   H1  H2  O   H1  H2  O   H1  H2  O   H1  H2  
O   H1  H2  O   H1  H2  O   H1  H2  O   H1  H2  O   H1  H2  O   H1  H2  O   H1  
H2  O   H1  H2  O   H1  H2  O   H1  H2  O   H1  H2  O   H1  H2  O   H1  H2  O   
H1  H2  O   H1  H2  O   H1  H2  O   H1  H2  O   H1  H2  O   H1  H2  O   H1  H2  
O   H1  H2  O   H1  H2  O   H1  H2  O   H1  H2  O   H1  H2  O   H1  H2  O   H1  
H2  O   H1  H2  O   H1  H2  O   H1  H2  O   H1  H2  O   H1  H2  O   H1  H2  O   
H1  H2  O   H1  H2  O   H1  H2  O   H1  H2  O   H1  H2  O   H1  H2  O   H1  H2  
O   H1  H2  O   H1  H2  O   H1  H2  O   H1  H2  O   H1  H2  O   H1  H2  O   H1  
H2  O   H1  H2  O   H1  H2  O   H1  H2  O   H1  H2  O   H1  H2  O   H1  H2  O   
H1  H2  O   H1  H2  O   H1  H2  O   H1  H2  O   H1  H2  O   H1  H2  O   H1  H2  
O   H1  H2  O   H1  H2  O   H1  H2  O   H1  H2  O   H1  H2  O   H1  H2  O   H1  
H2  O   H1  H2  O   H1  H2  O   H1  H2  O   H1  H2  O   H1  H2  O   H1  H2  O   
H1  H2  O   H1  H2  O   H1  H2  O   H1  H2  O   H1  H2  O   H1  H2  O   H1  H2  
O   H1  H2  O   H1  H2  O   H1  H2  O   H1  H2  O   H1  H2  O   H1  H2  O   H1  
H2  O   H1  H2  O   H1  H2  O   H1  H2  O   H1  H2  O   H1  H2  O   H1  H2  O   
H1  H2  O   H1  H2  O   H1  H2  O   H1  H2  O   H1  H2  O   H1  H2  O   H1  H2  
O   H1  H2  O   H1  H2  O   H1  H2  O   H1  H2  O   H1  H2  O   H1  H2  O   H1  
H2  O   H1  H2  O   H1  H2  O   H1  H2  O   H1  H2  O   H1  H2  O   H1  H2  O   
H1  H2  O   H1  H2  O   H1  H2  O   H1  H2  O   H1  H2  O   H1  H2  O   H1  H2  
O   H1  H2  O   H1  H2  O   H1  H2  O   H1  H2  O   H1  H2  O   H1  H2  O   H1  
H2  O   H1  H2  O   H1  H2  O   H1  H2  O   H1  H2  O   H1  H2  O   H1  H2  O   
H1  H2  O   H1  H2  O   H1  H2  O   H1  H2  O   H1  H2  O   H1  H2  O   H1  H2  
O   H1  H2  O   H1  H2  O   H1  H2  O   H1  H2  O   H1  H2  O   H1  H2  O   H1  
H2  O   H1  H2  O   H1  H2  O   H1  H2  O   H1  H2  O   H1  H2  O   H1  H2  O   
H1  H2  O   H1  H2  O   H1  H2  O   H1  H2  O   H1  H2  O   H1  H2  O   H1  H2  
O   H1  H2  O   H1  H2  O   H1  H2  O   H1  H2  O   H1  H2  O   H1  H2  O   H1  
H2  O   H1  H2  O   H1  H2  O   H1  H2  O   H1  H2  O   H1  H2  O   H1  H2  O   
H1  H2  O   H1  H2  O   H1  H2  O   H1  H2  O   H1  H2  O   H1  H2  O   H1  H2  
O   H1  H2  O   H1  H2  O   H1  H2  O   H1  H2  O   H1  H2  O   H1  H2  O   H1  
H2  O   H1  H2  O   H1  H2  O   H1  H2  O   H1  H2  O   H1  H2  O   H1  H2  O   
H1  H2  O   H1  H2  O   H1  H2  O   H1  H2  O   H1  H2  O   H1  H2  O   H1  H2  
O   H1  H2  O   H1  H2  O   H1  H2  O   H1  H2  O   H1  H2  O   H1  H2  O   H1  
H2  O   H1  H2  O   H1  H2  O   H1  H2  O   H1  H2  O   H1  H2  O   H1  H2  O   
H1  H2  O   H1  H2  O   H1  H2  O   H1  H2  O   H1  H2  O   H1  H2  O   H1  H2  
O   H1  H2  O   H1  H2  O   H1  H2  O   H1  H2  O   H1  H2  O   H1  H2  O   H1  
H2  O   H1  H2  O   H1  H2  O   H1  H2  O   H1  H2  O   H1  H2  O   H1  H2  O   
H1  H2  O   H1  H2  O   H1  H2  O   H1  H2  O   H1  H2  O   H1  H2  O   H1  H2  
O   H1  H2  O   H1  H2  O   H1  H2  O   H1  H2  O   H1  H2  O   H1  H2  O   H1  
H2  O   H1  H2  O   H1  H2  O   H1  H2  O   H1  H2  O   H1  H2  O   H1  H2  O   
H1  H2  O   H1  H2  O   H1  H2  O   H1  H2  O   H1  H2  O   H1  H2  O   H1  H2  
O   H1  H2  O   H1  H2  O   H1  H2  O   H1  H2  O   H1  H2  O   H1  H2  O   H1  
H2  O   H1  H2  O   H1  H2  O   H1  H2  O   H1  H2  O   H1  H2  O   H1  H2  O   
H1  H2  O   H1  H2  O   H1  H2  O   H1  H2  O   H1  H2  O   H1  H2  O   H1  H2  
O   H1  H2  O   H1  H2  O   H1  H2  O   H1  H2  O   H1  H2  O   H1  H2  O   H1  
H2  O   H1  H2  O   H1  H2  O   H1  H2  O   H1  H2  O   H1  H2  O   H1  H2  O   
H1  H2  O   H1  H2  O   H1  H2  O   H1  H2  O   H1  H2  O   H1  H2  O   H1  H2  
O   H1  H2  O   H1  H2  O   H1  H2  O   H1  H2  O   H1  H2  O   H1  H2  O   H1  
H2  O   H1  H2  O   H1  H2  O   H1  H2  O   H1  H2  O   H1  H2  O   H1  H2  O   
H1  H2  O   H1  H2  O   H1  H2  O   H1  H2  O   H1  H2  O   H1  H2  O   H1  H2  
O   H1  H2  O   H1  H2  O   H1  H2  O   H1  H2  O   H1  H2  O   H1  H2  O   H1  
H2  O   H1  H2  O   H1  H2  O   H1  H2  O   H1  H2  O   H1  H2  O   H1  H2  O   
H1  H2  O   H1  H2  O   H1  H2  O   H1  H2  O   H1  H2  O   H1  H2  O   H1  H2  
O   H1  H2  O   H1  H2  O   H1  H2  O   H1  H2  O   H1  H2  O   H1  H2  O   H1  
H2  O   H1  H2  O   H1  H2  O   H1  H2  O   H1  H2  O   H1  H2  O   H1  H2  O   
H1  H2  O   H1  H2  O   H1  H2  O   H1  H2  O   H1  H2  O   H1  H2  O   H1  H2  
O   H1  H2  O   H1  H2  O   H1  H2  O   H1  H2  O   H1  H2  O   H1  H2  O   H1  
H2  O   H1  H2  O   H1  H2  O   H1  H2  O   H1  H2  O   H1  H2  O   H1  H2  O   
H1  H2  O   H1  H2  O   H1  H2  O   H1  H2  O   H1  H2  O   H1  H2  O   H1  H2  
O   H1  H2  O   H1  H2  O   H1  H2  O   H1  H2  O   H1  H2  O   H1  H2  O   H1  
H2  O   H1  H2  O   H1  H2  O   H1  H2  O   H1  H2  O   H1  H2  O   H1  H2  O   
H1  H2  O   H1  H2  O   H1  H2  O   H1  H2  O   H1  H2  O   H1  H2  O   H1  H2  
O   H1  H2  O   H1  H2  O   H1  H2  O   H1  H2  O   H1  H2  O   H1  H2  O   H1  
H2  O   H1  H2  O   H1  H2  O   H1  H2  O   H1  H2  O   H1  H2  O   H1  H2  O   
H1  H2  O   H1  H2  O   H1  H2  O   H1  H2  O   H1  H2  O   H1  H2  O   H1  H2  
O   H1  H2  O   H1  H2  O   H1  H2  O   H1  H2  O   H1  H2  O   H1  H2  O   H1  
H2  O   H1  H2  O   H1  H2  O   H1  H2  O   H1  H2  O   H1  H2  O   H1  H2  O   
H1  H2  O   H1  H2  O   H1  H2  O   H1  H2  O   H1  H2  O   H1  H2  O   H1  H2  
O   H1  H2  O   H1  H2  O   H1  H2  O   H1  H2  O   H1  H2  O   H1  H2  O   H1  
H2  O   H1  H2  O   H1  H2  O   H1  H2  O   H1  H2  O   H1  H2  O   H1  H2  O   
H1  H2  O   H1  H2  O   H1  H2  O   H1  H2  O   H1  H2  O   H1  H2  O   H1  H2  
O   H1  H2  O   H1  H2  O   H1  H2  O   H1  H2  O   H1  H2  O   H1  H2  O   H1  
H2  O   H1  H2  O   H1  H2  O   H1  H2  O   H1  H2  O   H1  H2  O   H1  H2  O   
H1  H2  O   H1  H2  O   H1  H2  O   H1  H2  O   H1  H2  O   H1  H2  O   H1  H2  
O   H1  H2  O   H1  H2  O   H1  H2  O   H1  H2  O   H1  H2  O   H1  H2  O   H1  
H2  O   H1  H2  O   H1  H2  O   H1  H2  O   H1  H2  O   H1  H2  O   H1  H2  O   
H1  H2  O   H1  H2  O   H1  H2  O   H1  H2  O   H1  H2  O   H1  H2  O   H1  H2  
O   H1  H2  O   H1  H2  O   H1  H2  O   H1  H2  O   H1  H2  O   H1  H2  O   H1  
H2  O   H1  H2  O   H1  H2  O   H1  H2  O   H1  H2  O   H1  H2  O   H1  H2  O   
H1  H2  O   H1  H2  O   H1  H2  O   H1  H2  O   H1  H2  O   H1  H2  O   H1  H2  
O   H1  H2  O   H1  H2  O   H1  H2  O   H1  H2  O   H1  H2  O   H1  H2  O   H1  
H2  O   H1  H2  O   H1  H2  O   H1  H2  O   H1  H2  O   H1  H2  O   H1  H2  O   
H1  H2  O   H1  H2  O   H1  H2  O   H1  H2  O   H1  H2  O   H1  H2  O   H1  H2  
O   H1  H2  O   H1  H2  O   H1  H2  O   H1  H2  O   H1  H2  O   H1  H2  O   H1  
H2  O   H1  H2  O   H1  H2  O   H1  H2  O   H1  H2  O   H1  H2  O   H1  H2  O   
H1  H2  O   H1  H2  O   H1  H2  O   H1  H2  O   H1  H2  O   H1  H2  O   H1  H2  
O   H1  H2  O   H1  H2  O   H1  H2  O   H1  H2  O   H1  H2  O   H1  H2  O   H1  
H2  O   H1  H2  O   H1  H2  O   H1  H2  O   H1  H2  O   H1  H2  O   H1  H2  O   
H1  H2  O   H1  H2  O   H1  H2  O   H1  H2  O   H1  H2  O   H1  H2  O   H1  H2  
O   H1  H2  O   H1  H2  O   H1  H2  O   H1  H2  O   H1  H2  O   H1  H2  O   H1  
H2  O   H1  H2  O   H1  H2  O   H1  H2  O   H1  H2  O   H1  H2  O   H1  H2  O   
H1  H2  O   H1  H2  O   H1  H2  O   H1  H2  O   H1  H2  O   H1  H2  O   H1  H2  
O   H1  H2  O   H1  H2  O   H1  H2  O   H1  H2  O   H1  H2  O   H1  H2  O   H1  
H2  O   H1  H2  O   H1  H2  O   H1  H2  O   H1  H2  O   H1  H2  O   H1  H2  O   
H1  H2  O   H1  H2  O   H1  H2  O   H1  H2  O   H1  H2  O   H1  H2  O   H1  H2  
O   H1  H2  O   H1  H2  O   H1  H2  O   H1  H2  O   H1  H2  O   H1  H2  O   H1  
H2  O   H1  H2  O   H1  H2  O   H1  H2  O   H1  H2  O   H1  H2  O   H1  H2  O   
H1  H2  O   H1  H2  O   H1  H2  O   H1  H2  O   H1  H2  O   H1  H2  O   H1  H2  
O   H1  H2  O   H1  H2  O   H1  H2  O   H1  H2  O   H1  H2  O   H1  H2  O   H1  
H2  O   H1  H2  O   H1  H2  O   H1  H2  O   H1  H2  O   H1  H2  O   H1  H2  O   
H1  H2  O   H1  H2  O   H1  H2  O   H1  H2  O   H1  H2  O   H1  H2  O   H1  H2  
O   H1  H2  O   H1  H2  O   H1  H2  O   H1  H2  O   H1  H2  O   H1  H2  O   H1  
H2  O   H1  H2  O   H1  H2  O   H1  H2  O   H1  H2  O   H1  H2  O   H1  H2  O   
H1  H2  O   H1  H2  O   H1  H2  O   H1  H2  O   H1  H2  O   H1  H2  O   H1  H2  
O   H1  H2  O   H1  H2  O   H1  H2  O   H1  H2  O   H1  H2  O   H1  H2  O   H1  
H2  O   H1  H2  O   H1  H2  O   H1  H2  O   H1  H2  O   H1  H2  O   H1  H2  O   
H1  H2  O   H1  H2  O   H1  H2  O   H1  H2  O   H1  H2  O   H1  H2  O   H1  H2  
O   H1  H2  O   H1  H2  O   H1  H2  O   H1  H2  O   H1  H2  O   H1  H2  O   H1  
H2  O   H1  H2  O   H1  H2  O   H1  H2  O   H1  H2  O   H1  H2  O   H1  H2  O   
H1  H2  O   H1  H2  O   H1  H2  O   H1  H2  O   H1  H2  O   H1  H2  O   H1  H2  
O   H1  H2  O   H1  H2  O   H1  H2  O   H1  H2  O   H1  H2  O   H1  H2  O   H1  
H2  O   H1  H2  O   H1  H2  O   H1  H2  O   H1  H2  O   H1  H2  O   H1  H2  O   
H1  H2  O   H1  H2  O   H1  H2  O   H1  H2  O   H1  H2  O   H1  H2  O   H1  H2  
O   H1  H2  O   H1  H2  O   H1  H2  O   H1  H2  O   H1  H2  O   H1  H2  O   H1  
H2  O   H1  H2  O   H1  H2  O   H1  H2  O   H1  H2  O   H1  H2  O   H1  H2  O   
H1  H2  O   H1  H2  O   H1  H2  O   H1  H2  O   H1  H2  O   H1  H2  O   H1  H2  
O   H1  H2  O   H1  H2  O   H1  H2  O   H1  H2  O   H1  H2  O   H1  H2  O   H1  
H2  O   H1  H2  O   H1  H2  O   H1  H2  O   H1  H2  O   H1  H2  O   H1  H2  O   
H1  H2  O   H1  H2  O   H1  H2  O   H1  H2  O   H1  H2  O   H1  H2  O   H1  H2  
O   H1  H2  O   H1  H2  O   H1  H2  O   H1  H2  O   H1  H2  O   H1  H2  O   H1  
H2  O   H1  H2  O   H1  H2  O   H1  H2  O   H1  H2  O   H1  H2  O   H1  H2  O   
H1  H2  O   H1  H2  O   H1  H2  O   H1  H2  O   H1  H2  O   H1  H2  O   H1  H2  
O   H1  H2  O   H1  H2  O   H1  H2  O   H1  H2  O   H1  H2  O   H1  H2  O   H1  
H2  O   H1  H2  O   H1  H2  O   H1  H2  O   H1  H2  O   H1  H2  O   H1  H2  O   
H1  H2  O   H1  H2  O   H1  H2  O   H1  H2  O   H1  H2  O   H1  H2  O   H1  H2  
O   H1  H2  O   H1  H2  O   H1  H2  O   H1  H2  O   H1  H2  O   H1  H2  O   H1  
H2  O   H1  H2  O   H1  H2  O   H1  H2  O   H1  H2  O   H1  H2  O   H1  H2  O   
H1  H2  O   H1  H2  O   H1  H2  O   H1  H2  O   H1  H2  O   H1  H2  O   H1  H2  
O   H1  H2  O   H1  H2  O   H1  H2  O   H1  H2  O   H1  H2  O   H1  H2  O   H1  
H2  O   H1  H2  O   H1  H2  O   H1  H2  O   H1  H2  O   H1  H2  O   H1  H2  O   
H1  H2  O   H1  H2  O   H1  H2  O   H1  H2  O   H1  H2  O   H1  H2  O   H1  H2  
O   H1  H2  O   H1  H2  O   H1  H2  O   H1  H2  O   H1  H2  O   H1  H2  O   H1  
H2  O   H1  H2  O   H1  H2  O   H1  H2  O   H1  H2  O   H1  H2  O   H1  H2  O   
H1  H2  O   H1  H2  O   H1  H2  O   H1  H2  O   H1  H2  O   H1  H2  O   H1  H2  
O   H1  H2  O   H1  H2  O   H1  H2  O   H1  H2  O   H1  H2  O   H1  H2  O   H1  
H2  O   H1  H2  O   H1  H2  O   H1  H2  O   H1  H2  O   H1  H2  O   H1  H2  O   
H1  H2  O   H1  H2  O   H1  H2  O   H1  H2  O   H1  H2  O   H1  H2  O   H1  H2  
O   H1  H2  O   H1  H2  O   H1  H2  O   H1  H2  O   H1  H2  O   H1  H2  O   H1  
H2  O   H1  H2  O   H1  H2  O   H1  H2  O   H1  H2  O   H1  H2  O   H1  H2  O   
H1  H2  O   H1  H2  O   H1  H2  O   H1  H2  O   H1  H2  O   H1  H2  O   H1  H2  
O   H1  H2  O   H1  H2  O   H1  H2  O   H1  H2  O   H1  H2  O   H1  H2  O   H1  
H2  O   H1  H2  O   H1  H2  O   H1  H2  O   H1  H2  O   H1  H2  O   H1  H2  O   
H1  H2  O   H1  H2  O   H1  H2  O   H1  H2  O   H1  H2  O   H1  H2  O   H1  H2  
O   H1  H2  O   H1  H2  O   H1  H2  O   H1  H2  O   H1  H2  O   H1  H2  O   H1  
H2  O   H1  H2  O   H1  H2  O   H1  H2  O   H1  H2  O   H1  H2  O   H1  H2  O   
H1  H2  O   H1  H2  O   H1  H2  O   H1  H2  O   H1  H2  O   H1  H2  O   H1  H2  
O   H1  H2  O   H1  H2  O   H1  H2  O   H1  H2  O   H1  H2  O   H1  H2  O   H1  
H2  O   H1  H2  O   H1  H2  O   H1  H2  O   H1  H2  O   H1  H2  O   H1  H2  O   
H1  H2  O   H1  H2  O   H1  H2  O   H1  H2  O   H1  H2  O   H1  H2  O   H1  H2  
O   H1  H2  O   H1  H2  O   H1  H2  O   H1  H2  O   H1  H2  O   H1  H2  O   H1  
H2  O   H1  H2  O   H1  H2  O   H1  H2  O   H1  H2  O   H1  H2  O   H1  H2  O   
H1  H2  O   H1  H2  O   H1  H2  O   H1  H2  O   H1  H2  O   H1  H2  O   H1  H2  
O   H1  H2  O   H1  H2  O   H1  H2  O   H1  H2  O   H1  H2  O   H1  H2  O   H1  
H2  O   H1  H2  O   H1  H2  O   H1  H2  O   H1  H2  O   H1  H2  O   H1  H2  O   
H1  H2  O   H1  H2  O   H1  H2  O   H1  H2  O   H1  H2  O   H1  H2  O   H1  H2  
O   H1  H2  O   H1  H2  O   H1  H2  O   H1  H2  O   H1  H2  O   H1  H2  O   H1  
H2  O   H1  H2  O   H1  H2  O   H1  H2  O   H1  H2  O   H1  H2  O   H1  H2  O   
H1  H2  O   H1  H2  O   H1  H2  O   H1  H2  O   H1  H2  O   H1  H2  O   H1  H2  
O   H1  H2  O   H1  H2  O   H1  H2  O   H1  H2  O   H1  H2  O   H1  H2  O   H1  
H2  O   H1  H2  O   H1  H2  O   H1  H2  O   H1  H2  O   H1  H2  O   H1  H2  O   
H1  H2  O   H1  H2  O   H1  H2  O   H1  H2  O   H1  H2  O   H1  H2  O   H1  H2  
O   H1  H2  O   H1  H2  O   H1  H2  O   H1  H2  O   H1  H2  O   H1  H2  O   H1  
H2  O   H1  H2  O   H1  H2  O   H1  H2  O   H1  H2  O   H1  H2  O   H1  H2  O   
H1  H2  O   H1  H2  O   H1  H2  O   H1  H2  O   H1  H2  O   H1  H2  O   H1  H2  
O   H1  H2  O   H1  H2  O   H1  H2  O   H1  H2  O   H1  H2  O   H1  H2  O   H1  
H2  O   H1  H2  O   H1  H2  O   H1  H2  O   H1  H2  O   H1  H2  O   H1  H2  O   
H1  H2  O   H1  H2  O   H1  H2  O   H1  H2  O   H1  H2  O   H1  H2  O   H1  H2  
O   H1  H2  O   H1  H2  O   H1  H2  O   H1  H2  O   H1  H2  O   H1  H2  O   H1  
H2  O   H1  H2  O   H1  H2  O   H1  H2  O   H1  H2  O   H1  H2  O   H1  H2  O   
H1  H2  O   H1  H2  O   H1  H2  O   H1  H2  O   H1  H2  O   H1  H2  O   H1  H2  
O   H1  H2  O   H1  H2  O   H1  H2  O   H1  H2  O   H1  H2  O   H1  H2  O   H1  
H2  O   H1  H2  O   H1  H2  O   H1  H2  O   H1  H2  O   H1  H2  O   H1  H2  O   
H1  H2  O   H1  H2  O   H1  H2  O   H1  H2  O   H1  H2  O   H1  H2  O   H1  H2  
O   H1  H2  O   H1  H2  O   H1  H2  O   H1  H2  O   H1  H2  O   H1  H2  O   H1  
H2  O   H1  H2  O   H1  H2  O   H1  H2  O   H1  H2  O   H1  H2  O   H1  H2  O   
H1  H2  O   H1  H2  O   H1  H2  O   H1  H2  O   H1  H2  O   H1  H2  O   H1  H2  
O   H1  H2  O   H1  H2  O   H1  H2  O   H1  H2  O   H1  H2  O   H1  H2  O   H1  
H2  O   H1  H2  O   H1  H2  O   H1  H2  O   H1  H2  O   H1  H2  O   H1  H2  O   
H1  H2  O   H1  H2  O   H1  H2  O   H1  H2  O   H1  H2  O   H1  H2  O   H1  H2  
O   H1  H2  O   H1  H2  O   H1  H2  O   H1  H2  O   H1  H2  O   H1  H2  O   H1  
H2  O   H1  H2  O   H1  H2  O   H1  H2  O   H1  H2  O   H1  H2  O   H1  H2  O   
H1  H2  O   H1  H2  O   H1  H2  O   H1  H2  O   H1  H2  O   H1  H2  O   H1  H2  
O   H1  H2  O   H1  H2  O   H1  H2  O   H1  H2  O   H1  H2  O   H1  H2  O   H1  
H2  O   H1  H2  O   H1  H2  O   H1  H2  O   H1  H2  O   H1  H2  O   H1  H2  O   
H1  H2  O   H1  H2  O   H1  H2  O   H1  H2  O   H1  H2  O   H1  H2  O   H1  H2  
O   H1  H2  O   H1  H2  O   H1  H2  O   H1  H2  O   H1  H2  O   H1  H2  O   H1  
H2  O   H1  H2  O   H1  H2  O   H1  H2  O   H1  H2  O   H1  H2  O   H1  H2  O   
H1  H2  O   H1  H2  O   H1  H2  O   H1  H2  O   H1  H2  O   H1  H2  O   H1  H2  
O   H1  H2  O   H1  H2  O   H1  H2  O   H1  H2  O   H1  H2  O   H1  H2  O   H1  
H2  O   H1  H2  O   H1  H2  O   H1  H2  O   H1  H2  O   H1  H2  O   H1  H2  O   
H1  H2  O   H1  H2  O   H1  H2  O   H1  H2  O   H1  H2  O   H1  H2  O   H1  H2  
O   H1  H2  O   H1  H2  O   H1  H2  O   H1  H2  O   H1  H2  O   H1  H2  O   H1  
H2  O   H1  H2  O   H1  H2  O   H1  H2  O   H1  H2  O   H1  H2  O   H1  H2  O   
H1  H2  O   H1  H2  O   H1  H2  O   H1  H2  O   H1  H2  O   H1  H2  O   H1  H2  
O   H1  H2  O   H1  H2  O   H1  H2  O   H1  H2  O   H1  H2  O   H1  H2  O   H1  
H2  O   H1  H2  O   H1  H2  O   H1  H2  O   H1  H2  O   H1  H2  O   H1  H2  O   
H1  H2  O   H1  H2  O   H1  H2  O   H1  H2  O   H1  H2  O   H1  H2  O   H1  H2  
O   H1  H2  O   H1  H2  O   H1  H2  O   H1  H2  O   H1  H2  O   H1  H2  O   H1  
H2  O   H1  H2  O   H1  H2  O   H1  H2  O   H1  H2  O   H1  H2  O   H1  H2  O   
H1  H2  O   H1  H2  O   H1  H2  O   H1  H2  O   H1  H2  O   H1  H2  O   H1  H2  
O   H1  H2  O   H1  H2  O   H1  H2  O   H1  H2  O   H1  H2  O   H1  H2  O   H1  
H2  O   H1  H2  O   H1  H2  O   H1  H2  O   H1  H2  O   H1  H2  O   H1  H2  O   
H1  H2  O   H1  H2  O   H1  H2  O   H1  H2  O   H1  H2  O   H1  H2  O   H1  H2  
O   H1  H2  O   H1  H2  O   H1  H2  O   H1  H2  O   H1  H2  O   H1  H2  O   H1  
H2  O   H1  H2  O   H1  H2  O   H1  H2  O   H1  H2  O   H1  H2  O   H1  H2  O   
H1  H2  O   H1  H2  O   H1  H2  O   H1  H2  O   H1  H2  O   H1  H2  O   H1  H2  
O   H1  H2  O   H1  H2  O   H1  H2  O   H1  H2  O   H1  H2  O   H1  H2  O   H1  
H2  O   H1  H2  O   H1  H2  O   H1  H2  O   H1  H2  O   H1  H2  O   H1  H2  O   
H1  H2  O   H1  H2  O   H1  H2  O   H1  H2  O   H1  H2  O   H1  H2  O   H1  H2  
O   H1  H2  O   H1  H2  O   H1  H2  O   H1  H2  O   H1  H2  O   H1  H2  O   H1  
H2  O   H1  H2  O   H1  H2  O   H1  H2  O   H1  H2  O   H1  H2  O   H1  H2  O   
H1  H2  O   H1  H2  O   H1  H2  O   H1  H2  O   H1  H2  O   H1  H2  O   H1  H2  
O   H1  H2  O   H1  H2  O   H1  H2  O   H1  H2  O   H1  H2  O   H1  H2  O   H1  
H2  O   H1  H2  O   H1  H2  O   H1  H2  O   H1  H2  O   H1  H2  O   H1  H2  O   
H1  H2  O   H1  H2  O   H1  H2  O   H1  H2  O   H1  H2  O   H1  H2  O   H1  H2  
O   H1  H2  O   H1  H2  O   H1  H2  O   H1  H2  O   H1  H2  O   H1  H2  O   H1  
H2  O   H1  H2  O   H1  H2  O   H1  H2  O   H1  H2  O   H1  H2  O   H1  H2  O   
H1  H2  O   H1  H2  O   H1  H2  O   H1  H2  O   H1  H2  O   H1  H2  O   H1  H2  
O   H1  H2  O   H1  H2  O   H1  H2  O   H1  H2  O   H1  H2  O   H1  H2  O   H1  
H2  O   H1  H2  O   H1  H2  O   H1  H2  O   H1  H2  O   H1  H2  O   H1  H2  O   
H1  H2  O   H1  H2  O   H1  H2  O   H1  H2  O   H1  H2  O   H1  H2  O   H1  H2  
O   H1  H2  O   H1  H2  O   H1  H2  O   H1  H2  O   H1  H2  O   H1  H2  O   H1  
H2  O   H1  H2  O   H1  H2  O   H1  H2  O   H1  H2  O   H1  H2  O   H1  H2  O   
H1  H2  O   H1  H2  O   H1  H2  O   H1  H2  O   H1  H2  O   H1  H2  O   H1  H2  
O   H1  H2  O   H1  H2  O   H1  H2  O   H1  H2  O   H1  H2  O   H1  H2  O   H1  
H2  O   H1  H2  O   H1  H2  O   H1  H2  O   H1  H2  O   H1  H2  O   H1  H2  O   
H1  H2  O   H1  H2  O   H1  H2  O   H1  H2  O   H1  H2  O   H1  H2  O   H1  H2  
O   H1  H2  O   H1  H2  O   H1  H2  O   H1  H2  O   H1  H2  O   H1  H2  O   H1  
H2  O   H1  H2  O   H1  H2  O   H1  H2  O   H1  H2  O   H1  H2  O   H1  H2  O   
H1  H2  O   H1  H2  O   H1  H2  O   H1  H2  O   H1  H2  O   H1  H2  O   H1  H2  
O   H1  H2  O   H1  H2  O   H1  H2  O   H1  H2  O   H1  H2  O   H1  H2  O   H1  
H2  O   H1  H2  O   H1  H2  O   H1  H2  O   H1  H2  O   H1  H2  O   H1  H2  O   
H1  H2  O   H1  H2  O   H1  H2  O   H1  H2  O   H1  H2  O   H1  H2  O   H1  H2  
O   H1  H2  O   H1  H2  O   H1  H2  O   H1  H2  O   H1  H2  O   H1  H2  O   H1  
H2  O   H1  H2  O   H1  H2  O   H1  H2  O   H1  H2  O   H1  H2  O   H1  H2  O   
H1  H2  O   H1  H2  O   H1  H2  O   H1  H2  O   H1  H2  O   H1  H2  O   H1  H2  
O   H1  H2  O   H1  H2  O   H1  H2  O   H1  H2  O   H1  H2  O   H1  H2  O   H1  
H2  O   H1  H2  O   H1  H2  O   H1  H2  O   H1  H2  O   H1  H2  O   H1  H2  O   
H1  H2  O   H1  H2  O   H1  H2  O   H1  H2  O   H1  H2  O   H1  H2  O   H1  H2  
O   H1  H2  O   H1  H2  O   H1  H2  O   H1  H2  O   H1  H2  O   H1  H2  O   H1  
H2  O   H1  H2  O   H1  H2  O   H1  H2  O   H1  H2  O   H1  H2  O   H1  H2  O   
H1  H2  O   H1  H2  O   H1  H2  O   H1  H2  O   H1  H2  O   H1  H2  O   H1  H2  
O   H1  H2  O   H1  H2  O   H1  H2  O   H1  H2  O   H1  H2  O   H1  H2  O   H1  
H2  O   H1  H2  O   H1  H2  O   H1  H2  O   H1  H2  O   H1  H2  O   H1  H2  O   
H1  H2  O   H1  H2  O   H1  H2  O   H1  H2  O   H1  H2  O   H1  H2  O   H1  H2  
O   H1  H2  O   H1  H2  O   H1  H2  O   H1  H2  O   H1  H2  O   H1  H2  O   H1  
H2  O   H1  H2  O   H1  H2  O   H1  H2  O   H1  H2  O   H1  H2  O   H1  H2  O   
H1  H2  O   H1  H2  O   H1  H2  O   H1  H2  O   H1  H2  O   H1  H2  O   H1  H2  
O   H1  H2  O   H1  H2  O   H1  H2  O   H1  H2  O   H1  H2  O   H1  H2  O   H1  
H2  O   H1  H2  O   H1  H2  O   H1  H2  O   H1  H2  O   H1  H2  O   H1  H2  O   
H1  H2  O   H1  H2  O   H1  H2  O   H1  H2  O   H1  H2  O   H1  H2  O   H1  H2  
O   H1  H2  O   H1  H2  O   H1  H2  O   H1  H2  O   H1  H2  O   H1  H2  O   H1  
H2  O   H1  H2  O   H1  H2  O   H1  H2  O   H1  H2  O   H1  H2  O   H1  H2  O   
H1  H2  O   H1  H2  O   H1  H2  O   H1  H2  O   H1  H2  O   H1  H2  O   H1  H2  
O   H1  H2  O   H1  H2  O   H1  H2  O   H1  H2  O   H1  H2  O   H1  H2  O   H1  
H2  O   H1  H2  O   H1  H2  O   H1  H2  O   H1  H2  O   H1  H2  O   H1  H2  O   
H1  H2  O   H1  H2  O   H1  H2  O   H1  H2  O   H1  H2  O   H1  H2  O   H1  H2  
O   H1  H2  O   H1  H2  O   H1  H2  O   H1  H2  O   H1  H2  O   H1  H2  O   H1  
H2  O   H1  H2  O   H1  H2  O   H1  H2  O   H1  H2  O   H1  H2  O   H1  H2  O   
H1  H2  O   H1  H2  O   H1  H2  O   H1  H2  O   H1  H2  O   H1  H2  O   H1  H2  
O   H1  H2  O   H1  H2  O   H1  H2  O   H1  H2  O   H1  H2  O   H1  H2  O   H1  
H2  O   H1  H2  O   H1  H2  O   H1  H2  O   H1  H2  O   H1  H2  O   H1  H2  O   
H1  H2  O   H1  H2  O   H1  H2  O   H1  H2  O   H1  H2  O   H1  H2  O   H1  H2  
O   H1  H2  O   H1  H2  O   H1  H2  O   H1  H2  O   H1  H2  O   H1  H2  O   H1  
H2  O   H1  H2  O   H1  H2  O   H1  H2  O   H1  H2  O   H1  H2  O   H1  H2  O   
H1  H2  O   H1  H2  O   H1  H2  O   H1  H2  O   H1  H2  O   H1  H2  O   H1  H2  
O   H1  H2  O   H1  H2  O   H1  H2  O   H1  H2  O   H1  H2  O   H1  H2  O   H1  
H2  O   H1  H2  O   H1  H2  O   H1  H2  O   H1  H2  O   H1  H2  O   H1  H2  O   
H1  H2  O   H1  H2  O   H1  H2  O   H1  H2  O   H1  H2  O   H1  H2  O   H1  H2  
O   H1  H2  O   H1  H2  O   H1  H2  O   H1  H2  O   H1  H2  O   H1  H2  O   H1  
H2  O   H1  H2  O   H1  H2  O   H1  H2  O   H1  H2  O   H1  H2  O   H1  H2  O   
H1  H2  O   H1  H2  O   H1  H2  O   H1  H2  O   H1  H2  O   H1  H2  O   H1  H2  
O   H1  H2  O   H1  H2  O   H1  H2  O   H1  H2  O   H1  H2  O   H1  H2  O   H1  
H2  O   H1  H2  O   H1  H2  O   H1  H2  O   H1  H2  O   H1  H2  O   H1  H2  O   
H1  H2  O   H1  H2  O   H1  H2  O   H1  H2  O   H1  H2  O   H1  H2  O   H1  H2  
O   H1  H2  O   H1  H2  O   H1  H2  O   H1  H2  O   H1  H2  O   H1  H2  O   H1  
H2  O   H1  H2  O   H1  H2  O   H1  H2  O   H1  H2  O   H1  H2  O   H1  H2  O   
H1  H2  O   H1  H2  O   H1  H2  O   H1  H2  O   H1  H2  O   H1  H2  O   H1  H2  
O   H1  H2  O   H1  H2  O   H1  H2  O   H1  H2  O   H1  H2  O   H1  H2  O   H1  
H2  O   H1  H2  O   H1  H2  O   H1  H2  O   H1  H2  O   H1  H2  O   H1  H2  O   
H1  H2  O   H1  H2  O   H1  H2  O   H1  H2  O   H1  H2  O   H1  H2  O   H1  H2  
O   H1  H2  O   H1  H2  O   H1  H2  O   H1  H2  O   H1  H2  O   H1  H2  O   H1  
H2  O   H1  H2  O   H1  H2  O   H1  H2  O   H1  H2  O   H1  H2  O   H1  H2  O   
H1  H2  O   H1  H2  O   H1  H2  O   H1  H2  O   H1  H2  O   H1  H2  O   H1  H2  
O   H1  H2  O   H1  H2  O   H1  H2  O   H1  H2  O   H1  H2  O   H1  H2  O   H1  
H2  O   H1  H2  O   H1  H2  O   H1  H2  O   H1  H2  O   H1  H2  O   H1  H2  O   
H1  H2  O   H1  H2  O   H1  H2  O   H1  H2  O   H1  H2  O   H1  H2  O   H1  H2  
O   H1  H2  O   H1  H2  O   H1  H2  O   H1  H2  O   H1  H2  O   H1  H2  O   H1  
H2  O   H1  H2  O   H1  H2  O   H1  H2  O   H1  H2  O   H1  H2  O   H1  H2  O   
H1  H2  O   H1  H2  O   H1  H2  O   H1  H2  O   H1  H2  O   H1  H2  O   H1  H2  
O   H1  H2  O   H1  H2  O   H1  H2  O   H1  H2  O   H1  H2  O   H1  H2  O   H1  
H2  O   H1  H2  O   H1  H2  O   H1  H2  O   H1  H2  O   H1  H2  O   H1  H2  O   
H1  H2  O   H1  H2  O   H1  H2  O   H1  H2  O   H1  H2  O   H1  H2  O   H1  H2  
O   H1  H2  O   H1  H2  O   H1  H2  O   H1  H2  O   H1  H2  O   H1  H2  O   H1  
H2  O   H1  H2  O   H1  H2  O   H1  H2  O   H1  H2  O   H1  H2  O   H1  H2  O   
H1  H2  O   H1  H2  O   H1  H2  O   H1  H2  O   H1  H2  O   H1  H2  O   H1  H2  
O   H1  H2  O   H1  H2  O   H1  H2  O   H1  H2  O   H1  H2  O   H1  H2  O   H1  
H2  O   H1  H2  O   H1  H2  O   H1  H2  O   H1  H2  O   H1  H2  O   H1  H2  O   
H1  H2  O   H1  H2  O   H1  H2  O   H1  H2  O   H1  H2  O   H1  H2  O   H1  H2  
O   H1  H2  O   H1  H2  O   H1  H2  O   H1  H2  O   H1  H2  O   H1  H2  O   H1  
H2  O   H1  H2  O   H1  H2  O   H1  H2  O   H1  H2  O   H1  H2  O   H1  H2  O   
H1  H2  O   H1  H2  O   H1  H2  O   H1  H2  O   H1  H2  O   H1  H2  O   H1  H2  
O   H1  H2  O   H1  H2  O   H1  H2  O   H1  H2  O   H1  H2  O   H1  H2  O   H1  
H2  O   H1  H2  O   H1  H2  O   H1  H2  O   H1  H2  O   H1  H2  O   H1  H2  O   
H1  H2  O   H1  H2  O   H1  H2  O   H1  H2  O   H1  H2  O   H1  H2  O   H1  H2  
O   H1  H2  O   H1  H2  O   H1  H2  O   H1  H2  O   H1  H2  O   H1  H2  O   H1  
H2  O   H1  H2  O   H1  H2  O   H1  H2  O   H1  H2  O   H1  H2  O   H1  H2  O   
H1  H2  O   H1  H2  O   H1  H2  O   H1  H2  O   H1  H2  O   H1  H2  O   H1  H2  
O   H1  H2  O   H1  H2  O   H1  H2  O   H1  H2  O   H1  H2  O   H1  H2  O   H1  
H2  O   H1  H2  O   H1  H2  O   H1  H2  O   H1  H2  O   H1  H2  O   H1  H2  O   
H1  H2  O   H1  H2  O   H1  H2  O   H1  H2  O   H1  H2  O   H1  H2  O   H1  H2  
O   H1  H2  O   H1  H2  O   H1  H2  O   H1  H2  O   H1  H2  O   H1  H2  O   H1  
H2  O   H1  H2  O   H1  H2  O   H1  H2  O   H1  H2  O   H1  H2  O   H1  H2  O   
H1  H2  O   H1  H2  O   H1  H2  O   H1  H2  O   H1  H2  O   H1  H2  O   H1  H2  
O   H1  H2  O   H1  H2  O   H1  H2  O   H1  H2  O   H1  H2  O   H1  H2  O   H1  
H2  O   H1  H2  O   H1  H2  O   H1  H2  O   H1  H2  O   H1  H2  O   H1  H2  O   
H1  H2  O   H1  H2  O   H1  H2  O   H1  H2  O   H1  H2  O   H1  H2  O   H1  H2  
O   H1  H2  O   H1  H2  O   H1  H2  O   H1  H2  O   H1  H2  O   H1  H2  O   H1  
H2  O   H1  H2  O   H1  H2  O   H1  H2  O   H1  H2  O   H1  H2  O   H1  H2  O   
H1  H2  O   H1  H2  O   H1  H2  O   H1  H2  O   H1  H2  O   H1  H2  O   H1  H2  
O   H1  H2  O   H1  H2  O   H1  H2  O   H1  H2  O   H1  H2  O   H1  H2  O   H1  
H2  O   H1  H2  O   H1  H2  O   H1  H2  O   H1  H2  O   H1  H2  O   H1  H2  O   
H1  H2  O   H1  H2  O   H1  H2  O   H1  H2  O   H1  H2  O   H1  H2  O   H1  H2  
O   H1  H2  O   H1  H2  O   H1  H2  O   H1  H2  O   H1  H2  O   H1  H2  O   H1  
H2  O   H1  H2  O   H1  H2  O   H1  H2  O   H1  H2  O   H1  H2  O   H1  H2  O   
H1  H2  O   H1  H2  O   H1  H2  O   H1  H2  O   H1  H2  O   H1  H2  O   H1  H2  
O   H1  H2  O   H1  H2  O   H1  H2  O   H1  H2  O   H1  H2  O   H1  H2  O   H1  
H2  O   H1  H2  O   H1  H2  O   H1  H2  O   H1  H2  O   H1  H2  O   H1  H2  O   
H1  H2  O   H1  H2  O   H1  H2  O   H1  H2  O   H1  H2  O   H1  H2  O   H1  H2  
O   H1  H2  O   H1  H2  O   H1  H2  O   H1  H2  O   H1  H2  O   H1  H2  O   H1  
H2  O   H1  H2  O   H1  H2  O   H1  H2  O   H1  H2  O   H1  H2  O   H1  H2  O   
H1  H2  O   H1  H2  O   H1  H2  O   H1  H2  O   H1  H2  O   H1  H2  O   H1  H2  
O   H1  H2  O   H1  H2  O   H1  H2  O   H1  H2  O   H1  H2  O   H1  H2  O   H1  
H2  O   H1  H2  O   H1  H2  O   H1  H2  O   H1  H2  O   H1  H2  O   H1  H2  O   
H1  H2  O   H1  H2  O   H1  H2  O   H1  H2  O   H1  H2  O   H1  H2  O   H1  H2  
O   H1  H2  O   H1  H2  O   H1  H2  O   H1  H2  O   H1  H2  O   H1  H2  O   H1  
H2  O   H1  H2  O   H1  H2  O   H1  H2  O   H1  H2  O   H1  H2  O   H1  H2  O   
H1  H2  O   H1  H2  O   H1  H2  O   H1  H2  O   H1  H2  O   H1  H2  O   H1  H2  
O   H1  H2  O   H1  H2  O   H1  H2  O   H1  H2  O   H1  H2  O   H1  H2  O   H1  
H2  O   H1  H2  O   H1  H2  O   H1  H2  O   H1  H2  O   H1  H2  O   H1  H2  O   
H1  H2  O   H1  H2  O   H1  H2  O   H1  H2  O   H1  H2  O   H1  H2  O   H1  H2  
O   H1  H2  O   H1  H2  O   H1  H2  O   H1  H2  O   H1  H2  O   H1  H2  O   H1  
H2  O   H1  H2  O   H1  H2  O   H1  H2  O   H1  H2  O   H1  H2  O   H1  H2  O   
H1  H2  O   H1  H2  O   H1  H2  O   H1  H2  O   H1  H2  O   H1  H2  O   H1  H2  
O   H1  H2  O   H1  H2  O   H1  H2  O   H1  H2  O   H1  H2  O   H1  H2  O   H1  
H2  O   H1  H2  O   H1  H2  O   H1  H2  O   H1  H2  O   H1  H2  O   H1  H2  O   
H1  H2  O   H1  H2  O   H1  H2  O   H1  H2  O   H1  H2  O   H1  H2  O   H1  H2  
O   H1  H2  O   H1  H2  O   H1  H2  O   H1  H2  O   H1  H2  O   H1  H2  O   H1  
H2  O   H1  H2  O   H1  H2  O   H1  H2  O   H1  H2  O   H1  H2  O   H1  H2  O   
H1  H2  O   H1  H2  O   H1  H2  O   H1  H2  O   H1  H2  O   H1  H2  O   H1  H2  
O   H1  H2  O   H1  H2  O   H1  H2  O   H1  H2  O   H1  H2  O   H1  H2  O   H1  
H2  O   H1  H2  O   H1  H2  O   H1  H2  O   H1  H2  O   H1  H2  O   H1  H2  O   
H1  H2  O   H1  H2  O   H1  H2  O   H1  H2  O   H1  H2  O   H1  H2  O   H1  H2  
O   H1  H2  O   H1  H2  O   H1  H2  O   H1  H2  O   H1  H2  O   H1  H2  O   H1  
H2  O   H1  H2  O   H1  H2  O   H1  H2  O   H1  H2  O   H1  H2  O   H1  H2  O   
H1  H2  O   H1  H2  O   H1  H2  O   H1  H2  O   H1  H2  O   H1  H2  O   H1  H2  
O   H1  H2  O   H1  H2  O   H1  H2  O   H1  H2  O   H1  H2  O   H1  H2  O   H1  
H2  O   H1  H2  O   H1  H2  O   H1  H2  O   H1  H2  O   H1  H2  O   H1  H2  O   
H1  H2  O   H1  H2  O   H1  H2  O   H1  H2  O   H1  H2  O   H1  H2  O   H1  H2  
O   H1  H2  O   H1  H2  O   H1  H2  O   H1  H2  O   H1  H2  O   H1  H2  O   H1  
H2  O   H1  H2  O   H1  H2  O   H1  H2  O   H1  H2  O   H1  H2  O   H1  H2  O   
H1  H2  O   H1  H2  O   H1  H2  O   H1  H2  O   H1  H2  O   H1  H2  O   H1  H2  
O   H1  H2  O   H1  H2  O   H1  H2  O   H1  H2  O   H1  H2  O   H1  H2  O   H1  
H2  O   H1  H2  O   H1  H2  O   H1  H2  O   H1  H2  O   H1  H2  O   H1  H2  O   
H1  H2  O   H1  H2  O   H1  H2  O   H1  H2  O   H1  H2  O   H1  H2  O   H1  H2  
O   H1  H2  O   H1  H2  O   H1  H2  O   H1  H2  O   H1  H2  O   H1  H2  O   H1  
H2  O   H1  H2  O   H1  H2  O   H1  H2  O   H1  H2  O   H1  H2  O   H1  H2  O   
H1  H2  O   H1  H2  O   H1  H2  O   H1  H2  O   H1  H2  O   H1  H2  O   H1  H2  
O   H1  H2  O   H1  H2  O   H1  H2  O   H1  H2  O   H1  H2  O   H1  H2  O   H1  
H2  O   H1  H2  O   H1  H2  O   H1  H2  O   H1  H2  O   H1  H2  O   H1  H2  O   
H1  H2  O   H1  H2  O   H1  H2  O   H1  H2  O   H1  H2  O   H1  H2  O   H1  H2  
O   H1  H2  O   H1  H2  O   H1  H2  O   H1  H2  O   H1  H2  O   H1  H2  O   H1  
H2  O   H1  H2  O   H1  H2  O   H1  H2  O   H1  H2  O   H1  H2  O   H1  H2  O   
H1  H2  O   H1  H2  O   H1  H2  O   H1  H2  O   H1  H2  O   H1  H2  O   H1  H2  
O   H1  H2  O   H1  H2  O   H1  H2  O   H1  H2  O   H1  H2  O   H1  H2  O   H1  
H2  O   H1  H2  O   H1  H2  O   H1  H2  O   H1  H2  O   H1  H2  O   H1  H2  O   
H1  H2  O   H1  H2  O   H1  H2  O   H1  H2  O   H1  H2  O   H1  H2  O   H1  H2  
O   H1  H2  O   H1  H2  O   H1  H2  O   H1  H2  O   H1  H2  O   H1  H2  O   H1  
H2  O   H1  H2  O   H1  H2  O   H1  H2  O   H1  H2  O   H1  H2  O   H1  H2  O   
H1  H2  O   H1  H2  O   H1  H2  O   H1  H2  O   H1  H2  O   H1  H2  O   H1  H2  
O   H1  H2  O   H1  H2  O   H1  H2  O   H1  H2  O   H1  H2  O   H1  H2  O   H1  
H2  O   H1  H2  O   H1  H2  O   H1  H2  O   H1  H2  O   H1  H2  O   H1  H2  O   
H1  H2  O   H1  H2  O   H1  H2  O   H1  H2  O   H1  H2  O   H1  H2  O   H1  H2  
O   H1  H2  O   H1  H2  O   H1  H2  O   H1  H2  O   H1  H2  O   H1  H2  O   H1  
H2  O   H1  H2  O   H1  H2  O   H1  H2  O   H1  H2  O   H1  H2  O   H1  H2  O   
H1  H2  O   H1  H2  O   H1  H2  O   H1  H2  O   H1  H2  O   H1  H2  O   H1  H2  
O   H1  H2  O   H1  H2  O   H1  H2  O   H1  H2  O   H1  H2  O   H1  H2  O   H1  
H2  O   H1  H2  O   H1  H2  O   H1  H2  O   H1  H2  O   H1  H2  O   H1  H2  O   
H1  H2  O   H1  H2  O   H1  H2  O   H1  H2  O   H1  H2  O   H1  H2  O   H1  H2  
O   H1  H2  O   H1  H2  O   H1  H2  O   H1  H2  O   H1  H2  O   H1  H2  O   H1  
H2  O   H1  H2  O   H1  H2  O   H1  H2  O   H1  H2  O   H1  H2  O   H1  H2  O   
H1  H2  O   H1  H2  O   H1  H2  O   H1  H2  O   H1  H2  O   H1  H2  O   H1  H2  
O   H1  H2  O   H1  H2  O   H1  H2  O   H1  H2  O   H1  H2  O   H1  H2  O   H1  
H2  O   H1  H2  O   H1  H2  O   H1  H2  O   H1  H2  O   H1  H2  O   H1  H2  O   
H1  H2  O   H1  H2  O   H1  H2  O   H1  H2  O   H1  H2  O   H1  H2  O   H1  H2  
O   H1  H2  O   H1  H2  O   H1  H2  O   H1  H2  O   H1  H2  O   H1  H2  O   H1  
H2  O   H1  H2  O   H1  H2  O   H1  H2  O   H1  H2  O   H1  H2  O   H1  H2  O   
H1  H2  O   H1  H2  O   H1  H2  O   H1  H2  O   H1  H2  O   H1  H2  O   H1  H2  
O   H1  H2  O   H1  H2  O   H1  H2  O   H1  H2  O   H1  H2  O   H1  H2  O   H1  
H2  O   H1  H2  O   H1  H2  O   H1  H2  O   H1  H2  O   H1  H2  O   H1  H2  O   
H1  H2  O   H1  H2  O   H1  H2  O   H1  H2  O   H1  H2  O   H1  H2  O   H1  H2  
O   H1  H2  O   H1  H2  O   H1  H2  O   H1  H2  O   H1  H2  O   H1  H2  O   H1  
H2  O   H1  H2  O   H1  H2  O   H1  H2  O   H1  H2  O   H1  H2  O   H1  H2  O   
H1  H2  O   H1  H2  O   H1  H2  O   H1  H2  O   H1  H2  O   H1  H2  O   H1  H2  
O   H1  H2  O   H1  H2  O   H1  H2  O   H1  H2  O   H1  H2  O   H1  H2  O   H1  
H2  O   H1  H2  O   H1  H2  O   H1  H2  O   H1  H2  O   H1  H2  O   H1  H2  O   
H1  H2  O   H1  H2  O   H1  H2  O   H1  H2  O   H1  H2  O   H1  H2  O   H1  H2  
O   H1  H2  O   H1  H2  O   H1  H2  O   H1  H2  O   H1  H2  O   H1  H2  O   H1  
H2  O   H1  H2  O   H1  H2  O   H1  H2  O   H1  H2  O   H1  H2  O   H1  H2  O   
H1  H2  O   H1  H2  O   H1  H2  O   H1  H2  O   H1  H2  O   H1  H2  O   H1  H2  
O   H1  H2  O   H1  H2  O   H1  H2  O   H1  H2  O   H1  H2  O   H1  H2  O   H1  
H2  O   H1  H2  O   H1  H2  O   H1  H2  O   H1  H2  O   H1  H2  O   H1  H2  O   
H1  H2  O   H1  H2  O   H1  H2  O   H1  H2  O   H1  H2  O   H1  H2  O   H1  H2  
O   H1  H2  O   H1  H2  O   H1  H2  O   H1  H2  O   H1  H2  O   H1  H2  O   H1  
H2  O   H1  H2  O   H1  H2  O   H1  H2  O   H1  H2  O   H1  H2  O   H1  H2  O   
H1  H2  O   H1  H2  O   H1  H2  O   H1  H2  O   H1  H2  O   H1  H2  O   H1  H2  
O   H1  H2  O   H1  H2  O   H1  H2  O   H1  H2  O   H1  H2  O   H1  H2  O   H1  
H2  O   H1  H2  O   H1  H2  O   H1  H2  O   H1  H2  O   H1  H2  O   H1  H2  O   
H1  H2  O   H1  H2  O   H1  H2  O   H1  H2  O   H1  H2  O   H1  H2  O   H1  H2  
O   H1  H2  O   H1  H2  O   H1  H2  O   H1  H2  O   H1  H2  O   H1  H2  O   H1  
H2  O   H1  H2  O   H1  H2  O   H1  H2  O   H1  H2  O   H1  H2  O   H1  H2  O   
H1  H2  O   H1  H2  O   H1  H2  O   H1  H2  O   H1  H2  O   H1  H2  O   H1  H2  
O   H1  H2  O   H1  H2  O   H1  H2  O   H1  H2  O   H1  H2  O   H1  H2  O   H1  
H2  O   H1  H2  O   H1  H2  O   H1  H2  O   H1  H2  O   H1  H2  O   H1  H2  O   
H1  H2  O   H1  H2  O   H1  H2  O   H1  H2  O   H1  H2  O   H1  H2  O   H1  H2  
O   H1  H2  O   H1  H2  O   H1  H2  O   H1  H2  O   H1  H2  O   H1  H2  O   H1  
H2  O   H1  H2  O   H1  H2  O   H1  H2  O   H1  H2  O   H1  H2  O   H1  H2  O   
H1  H2  O   H1  H2  O   H1  H2  O   H1  H2  O   H1  H2  O   H1  H2  O   H1  H2  
O   H1  H2  O   H1  H2  O   H1  H2  O   H1  H2  O   H1  H2  O   H1  H2  O   H1  
H2  O   H1  H2  O   H1  H2  O   H1  H2  O   H1  H2  O   H1  H2  O   H1  H2  O   
H1  H2  O   H1  H2  O   H1  H2  O   H1  H2  O   H1  H2  O   H1  H2  O   H1  H2  
O   H1  H2  O   H1  H2  O   H1  H2  O   H1  H2  O   H1  H2  O   H1  H2  O   H1  
H2  O   H1  H2  O   H1  H2  O   H1  H2  O   H1  H2  O   H1  H2  O   H1  H2  O   
H1  H2  O   H1  H2  O   H1  H2  O   H1  H2  O   H1  H2  O   H1  H2  O   H1  H2  
O   H1  H2  O   H1  H2  O   H1  H2  O   H1  H2  O   H1  H2  O   H1  H2  O   H1  
H2  O   H1  H2  O   H1  H2  O   H1  H2  O   H1  H2  O   H1  H2  O   H1  H2  O   
H1  H2  O   H1  H2  O   H1  H2  O   H1  H2  O   H1  H2  O   H1  H2  O   H1  H2  
O   H1  H2  O   H1  H2  O   H1  H2  O   H1  H2  O   H1  H2  O   H1  H2  O   H1  
H2  O   H1  H2  O   H1  H2  O   H1  H2  O   H1  H2  O   H1  H2  O   H1  H2  O   
H1  H2  O   H1  H2  O   H1  H2  O   H1  H2  O   H1  H2  O   H1  H2  O   H1  H2  
O   H1  H2  O   H1  H2  O   H1  H2  O   H1  H2  O   H1  H2  O   H1  H2  O   H1  
H2  O   H1  H2  O   H1  H2  O   H1  H2  O   H1  H2  O   H1  H2  O   H1  H2  O   
H1  H2  O   H1  H2  O   H1  H2  O   H1  H2  O   H1  H2  O   H1  H2  O   H1  H2  
O   H1  H2  O   H1  H2  O   H1  H2  O   H1  H2  O   H1  H2  O   H1  H2  O   H1  
H2  O   H1  H2  O   H1  H2  O   H1  H2  O   H1  H2  O   H1  H2  O   H1  H2  O   
H1  H2  O   H1  H2  O   H1  H2  O   H1  H2  O   H1  H2  O   H1  H2  O   H1  H2  
O   H1  H2  O   H1  H2  O   H1  H2  O   H1  H2  O   H1  H2  O   H1  H2  O   H1  
H2  O   H1  H2  O   H1  H2  O   H1  H2  O   H1  H2  O   H1  H2  O   H1  H2  O   
H1  H2  O   H1  H2  O   H1  H2  O   H1  H2  O   H1  H2  O   H1  H2  O   H1  H2  
O   H1  H2  O   H1  H2  O   H1  H2  O   H1  H2  O   H1  H2  O   H1  H2  O   H1  
H2  O   H1  H2  O   H1  H2  O   H1  H2  O   H1  H2  O   H1  H2  O   H1  H2  O   
H1  H2  O   H1  H2  O   H1  H2  O   H1  H2  O   H1  H2  O   H1  H2  O   H1  H2  
O   H1  H2  O   H1  H2  O   H1  H2  O   H1  H2  O   H1  H2  O   H1  H2  O   H1  
H2  O   H1  H2  O   H1  H2  O   H1  H2  O   H1  H2  O   H1  H2  O   H1  H2  O   
H1  H2  O   H1  H2  O   H1  H2  O   H1  H2  O   H1  H2  O   H1  H2  O   H1  H2  
O   H1  H2  O   H1  H2  O   H1  H2  O   H1  H2  O   H1  H2  O   H1  H2  O   H1  
H2  O   H1  H2  O   H1  H2  O   H1  H2  O   H1  H2  O   H1  H2  O   H1  H2  O   
H1  H2  O   H1  H2  O   H1  H2  O   H1  H2  O   H1  H2  O   H1  H2  O   H1  H2  
O   H1  H2  O   H1  H2  O   H1  H2  O   H1  H2  O   H1  H2  O   H1  H2  O   H1  
H2  O   H1  H2  O   H1  H2  O   H1  H2  O   H1  H2  O   H1  H2  O   H1  H2  O   
H1  H2  O   H1  H2  O   H1  H2  O   H1  H2  O   H1  H2  O   H1  H2  O   H1  H2  
O   H1  H2  O   H1  H2  O   H1  H2  O   H1  H2  O   H1  H2  O   H1  H2  O   H1  
H2  O   H1  H2  O   H1  H2  O   H1  H2  O   H1  H2  O   H1  H2  O   H1  H2  O   
H1  H2  O   H1  H2  O   H1  H2  O   H1  H2  O   H1  H2  O   H1  H2  O   H1  H2  
O   H1  H2  O   H1  H2  O   H1  H2  O   H1  H2  O   H1  H2  O   H1  H2  O   H1  
H2  O   H1  H2  O   H1  H2  O   H1  H2  O   H1  H2  O   H1  H2  O   H1  H2  O   
H1  H2  O   H1  H2  O   H1  H2  O   H1  H2  O   H1  H2  O   H1  H2  O   H1  H2  
O   H1  H2  O   H1  H2  O   H1  H2  O   H1  H2  O   H1  H2  O   H1  H2  O   H1  
H2  O   H1  H2  O   H1  H2  O   H1  H2  O   H1  H2  O   H1  H2  O   H1  H2  O   
H1  H2  O   H1  H2  O   H1  H2  O   H1  H2  O   H1  H2  O   H1  H2  O   H1  H2  
O   H1  H2  O   H1  H2  O   H1  H2  O   H1  H2  O   H1  H2  O   H1  H2  O   H1  
H2  O   H1  H2  O   H1  H2  O   H1  H2  O   H1  H2  O   H1  H2  O   H1  H2  O   
H1  H2  O   H1  H2  O   H1  H2  O   H1  H2  O   H1  H2  O   H1  H2  O   H1  H2  
O   H1  H2  O   H1  H2  O   H1  H2  O   H1  H2  O   H1  H2  O   H1  H2  O   H1  
H2  O   H1  H2  O   H1  H2  O   H1  H2  O   H1  H2  O   H1  H2  O   H1  H2  O   
H1  H2  O   H1  H2  O   H1  H2  O   H1  H2  O   H1  H2  O   H1  H2  O   H1  H2  
O   H1  H2  O   H1  H2  O   H1  H2  O   H1  H2  O   H1  H2  O   H1  H2  O   H1  
H2  O   H1  H2  O   H1  H2  O   H1  H2  O   H1  H2  O   H1  H2  O   H1  H2  O   
H1  H2  O   H1  H2  O   H1  H2  O   H1  H2  O   H1  H2  O   H1  H2  O   H1  H2  
O   H1  H2  O   H1  H2  O   H1  H2  O   H1  H2  O   H1  H2  O   H1  H2  O   H1  
H2  O   H1  H2  O   H1  H2  O   H1  H2  O   H1  H2  O   H1  H2  O   H1  H2  O   
H1  H2  O   H1  H2  O   H1  H2  O   H1  H2  O   H1  H2  O   H1  H2  O   H1  H2  
O   H1  H2  O   H1  H2  O   H1  H2  O   H1  H2  O   H1  H2  O   H1  H2  O   H1  
H2  O   H1  H2  O   H1  H2  O   H1  H2  O   H1  H2  O   H1  H2  O   H1  H2  O   
H1  H2  O   H1  H2  O   H1  H2  O   H1  H2  O   H1  H2  O   H1  H2  O   H1  H2  
O   H1  H2  O   H1  H2  O   H1  H2  O   H1  H2  O   H1  H2  O   H1  H2  O   H1  
H2  O   H1  H2  O   H1  H2  O   H1  H2  O   H1  H2  O   H1  H2  O   H1  H2  O   
H1  H2  O   H1  H2  O   H1  H2  O   H1  H2  O   H1  H2  O   H1  H2  O   H1  H2  
O   H1  H2  O   H1  H2  O   H1  H2  O   H1  H2  O   H1  H2  O   H1  H2  O   H1  
H2  O   H1  H2  O   H1  H2  O   H1  H2  O   H1  H2  O   H1  H2  O   H1  H2  O   
H1  H2  O   H1  H2  O   H1  H2  O   H1  H2  O   H1  H2  O   H1  H2  O   H1  H2  
O   H1  H2  O   H1  H2  O   H1  H2  O   H1  H2  O   H1  H2  O   H1  H2  O   H1  
H2  O   H1  H2  O   H1  H2  O   H1  H2  O   H1  H2  O   H1  H2  O   H1  H2  O   
H1  H2  O   H1  H2  O   H1  H2  O   H1  H2  O   H1  H2  O   H1  H2  O   H1  H2  
O   H1  H2  O   H1  H2  O   H1  H2  O   H1  H2  O   H1  H2  O   H1  H2  O   H1  
H2  O   H1  H2  O   H1  H2  O   H1  H2  O   H1  H2  O   H1  H2  O   H1  H2  O   
H1  H2  O   H1  H2  O   H1  H2  O   H1  H2  O   H1  H2  O   H1  H2  O   H1  H2  
O   H1  H2  O   H1  H2  O   H1  H2  O   H1  H2  O   H1  H2  O   H1  H2  O   H1  
H2  O   H1  H2  O   H1  H2  O   H1  H2  O   H1  H2  O   H1  H2  O   H1  H2  O   
H1  H2  O   H1  H2  O   H1  H2  O   H1  H2  O   H1  H2  O   H1  H2  O   H1  H2  
O   H1  H2  O   H1  H2  O   H1  H2  O   H1  H2  O   H1  H2  O   H1  H2  O   H1  
H2  O   H1  H2  O   H1  H2  O   H1  H2  O   H1  H2  O   H1  H2  O   H1  H2  O   
H1  H2  O   H1  H2  O   H1  H2  O   H1  H2  O   H1  H2  O   H1  H2  O   H1  H2  
O   H1  H2  O   H1  H2  O   H1  H2  O   H1  H2  O   H1  H2  O   H1  H2  O   H1  
H2  O   H1  H2  O   H1  H2  O   H1  H2  O   H1  H2  O   H1  H2  O   H1  H2  O   
H1  H2  O   H1  H2  O   H1  H2  O   H1  H2  O   H1  H2  O   H1  H2  O   H1  H2  
O   H1  H2  O   H1  H2  O   H1  H2  O   H1  H2  O   H1  H2  O   H1  H2  O   H1  
H2  O   H1  H2  O   H1  H2  O   H1  H2  O   H1  H2  O   H1  H2  O   H1  H2  O   
H1  H2  O   H1  H2  O   H1  H2  O   H1  H2  O   H1  H2  O   H1  H2  O   H1  H2  
O   H1  H2  O   H1  H2  O   H1  H2  O   H1  H2  O   H1  H2  O   H1  H2  O   H1  
H2  O   H1  H2  O   H1  H2  O   H1  H2  O   H1  H2  O   H1  H2  O   H1  H2  O   
H1  H2  O   H1  H2  O   H1  H2  O   H1  H2  O   H1  H2  O   H1  H2  O   H1  H2  
O   H1  H2  O   H1  H2  O   H1  H2  O   H1  H2  O   H1  H2  O   H1  H2  O   H1  
H2  O   H1  H2  O   H1  H2  O   H1  H2  O   H1  H2  O   H1  H2  O   H1  H2  O   
H1  H2  O   H1  H2  O   H1  H2  O   H1  H2  O   H1  H2  O   H1  H2  O   H1  H2  
O   H1  H2  O   H1  H2  O   H1  H2  O   H1  H2  O   H1  H2  O   H1  H2  O   H1  
H2  O   H1  H2  O   H1  H2  O   H1  H2  O   H1  H2  O   H1  H2  O   H1  H2  O   
H1  H2  O   H1  H2  O   H1  H2  O   H1  H2  O   H1  H2  O   H1  H2  O   H1  H2  
O   H1  H2  O   H1  H2  O   H1  H2  O   H1  H2  O   H1  H2  O   H1  H2  O   H1  
H2  O   H1  H2  O   H1  H2  O   H1  H2  O   H1  H2  O   H1  H2  O   H1  H2  O   
H1  H2  O   H1  H2  O   H1  H2  O   H1  H2  O   H1  H2  O   H1  H2  O   H1  H2  
O   H1  H2  O   H1  H2  O   H1  H2  O   H1  H2  O   H1  H2  O   H1  H2  O   H1  
H2  O   H1  H2  O   H1  H2  O   H1  H2  O   H1  H2  O   H1  H2  O   H1  H2  O   
H1  H2  O   H1  H2  O   H1  H2  O   H1  H2  O   H1  H2  O   H1  H2  O   H1  H2  
O   H1  H2  O   H1  H2  O   H1  H2  O   H1  H2  O   H1  H2  O   H1  H2  O   H1  
H2  O   H1  H2  O   H1  H2  O   H1  H2  O   H1  H2  O   H1  H2  O   H1  H2  O   
H1  H2  O   H1  H2  O   H1  H2  O   H1  H2  O   H1  H2  O   H1  H2  O   H1  H2  
O   H1  H2  O   H1  H2  O   H1  H2  O   H1  H2  O   H1  H2  O   H1  H2  O   H1  
H2  O   H1  H2  O   H1  H2  O   H1  H2  O   H1  H2  O   H1  H2  O   H1  H2  O   
H1  H2  O   H1  H2  O   H1  H2  O   H1  H2  O   H1  H2  O   H1  H2  O   H1  H2  
O   H1  H2  O   H1  H2  O   H1  H2  O   H1  H2  O   H1  H2  O   H1  H2  O   H1  
H2  O   H1  H2  O   H1  H2  O   H1  H2  O   H1  H2  O   H1  H2  O   H1  H2  O   
H1  H2  O   H1  H2  O   H1  H2  O   H1  H2  O   H1  H2  O   H1  H2  O   H1  H2  
O   H1  H2  O   H1  H2  O   H1  H2  O   H1  H2  O   H1  H2  O   H1  H2  O   H1  
H2  O   H1  H2  O   H1  H2  O   H1  H2  O   H1  H2  O   H1  H2  O   H1  H2  O   
H1  H2  O   H1  H2  O   H1  H2  O   H1  H2  O   H1  H2  O   H1  H2  O   H1  H2  
O   H1  H2  O   H1  H2  O   H1  H2  O   H1  H2  O   H1  H2  O   H1  H2  O   H1  
H2  O   H1  H2  O   H1  H2  O   H1  H2  O   H1  H2  O   H1  H2  O   H1  H2  O   
H1  H2  O   H1  H2  O   H1  H2  O   H1  H2  O   H1  H2  O   H1  H2  O   H1  H2  
O   H1  H2  O   H1  H2  O   H1  H2  O   H1  H2  O   H1  H2  O   H1  H2  O   H1  
H2  O   H1  H2  O   H1  H2  O   H1  H2  O   H1  H2  O   H1  H2  O   H1  H2  O   
H1  H2  O   H1  H2  O   H1  H2  O   H1  H2  O   H1  H2  O   H1  H2  O   H1  H2  
O   H1  H2  O   H1  H2  O   H1  H2  O   H1  H2  O   H1  H2  O   H1  H2  O   H1  
H2  O   H1  H2  O   H1  H2  O   H1  H2  O   H1  H2  O   H1  H2  O   H1  H2  O   
H1  H2  O   H1  H2  O   H1  H2  O   H1  H2  O   H1  H2  O   H1  H2  O   H1  H2  
O   H1  H2  O   H1  H2  O   H1  H2  O   H1  H2  O   H1  H2  O   H1  H2  O   H1  
H2  O   H1  H2  O   H1  H2  O   H1  H2  O   H1  H2  O   H1  H2  O   H1  H2  O   
H1  H2  O   H1  H2  O   H1  H2  O   H1  H2  O   H1  H2  O   H1  H2  O   H1  H2  
O   H1  H2  O   H1  H2  O   H1  H2  O   H1  H2  O   H1  H2  O   H1  H2  O   H1  
H2  O   H1  H2  O   H1  H2  O   H1  H2  O   H1  H2  O   H1  H2  O   H1  H2  O   
H1  H2  O   H1  H2  O   H1  H2  O   H1  H2  O   H1  H2  O   H1  H2  O   H1  H2  
O   H1  H2  O   H1  H2  O   H1  H2  O   H1  H2  O   H1  H2  O   H1  H2  O   H1  
H2  O   H1  H2  O   H1  H2  O   H1  H2  O   H1  H2  O   H1  H2  O   H1  H2  O   
H1  H2  O   H1  H2  O   H1  H2  O   H1  H2  O   H1  H2  O   H1  H2  O   H1  H2  
O   H1  H2  O   H1  H2  O   H1  H2  O   H1  H2  O   H1  H2  O   H1  H2  O   H1  
H2  O   H1  H2  O   H1  H2  O   H1  H2  O   H1  H2  O   H1  H2  O   H1  H2  O   
H1  H2  O   H1  H2  O   H1  H2  O   H1  H2  O   H1  H2  O   H1  H2  O   H1  H2  
O   H1  H2  O   H1  H2  O   H1  H2  O   H1  H2  O   H1  H2  O   H1  H2  O   H1  
H2  O   H1  H2  O   H1  H2  O   H1  H2  O   H1  H2  O   H1  H2  O   H1  H2  O   
H1  H2  O   H1  H2  O   H1  H2  O   H1  H2  O   H1  H2  O   H1  H2  O   H1  H2  
O   H1  H2  O   H1  H2  O   H1  H2  O   H1  H2  O   H1  H2  O   H1  H2  O   H1  
H2  O   H1  H2  O   H1  H2  O   H1  H2  O   H1  H2  O   H1  H2  O   H1  H2  O   
H1  H2  O   H1  H2  O   H1  H2  O   H1  H2  O   H1  H2  O   H1  H2  O   H1  H2  
O   H1  H2  O   H1  H2  O   H1  H2  O   H1  H2  O   H1  H2  O   H1  H2  O   H1  
H2  O   H1  H2  O   H1  H2  O   H1  H2  O   H1  H2  O   H1  H2  O   H1  H2  O   
H1  H2  O   H1  H2  O   H1  H2  O   H1  H2  O   H1  H2  O   H1  H2  O   H1  H2  
O   H1  H2  O   H1  H2  O   H1  H2  O   H1  H2  O   H1  H2  O   H1  H2  O   H1  
H2  O   H1  H2  O   H1  H2  O   H1  H2  O   H1  H2  O   H1  H2  O   H1  H2  O   
H1  H2  O   H1  H2  O   H1  H2  O   H1  H2  O   H1  H2  O   H1  H2  O   H1  H2  
O   H1  H2  O   H1  H2  O   H1  H2  O   H1  H2  O   H1  H2  O   H1  H2  O   H1  
H2  O   H1  H2  O   H1  H2  O   H1  H2  O   H1  H2  O   H1  H2  O   H1  H2  O   
H1  H2  O   H1  H2  O   H1  H2  O   H1  H2  O   H1  H2  O   H1  H2  O   H1  H2  
O   H1  H2  O   H1  H2  O   H1  H2  O   H1  H2  O   H1  H2  O   H1  H2  O   H1  
H2  O   H1  H2  O   H1  H2  O   H1  H2  O   H1  H2  O   H1  H2  O   H1  H2  O   
H1  H2  O   H1  H2  O   H1  H2  O   H1  H2  O   H1  H2  O   H1  H2  O   H1  H2  
O   H1  H2  O   H1  H2  O   H1  H2  O   H1  H2  O   H1  H2  O   H1  H2  O   H1  
H2  O   H1  H2  O   H1  H2  O   H1  H2  O   H1  H2  O   H1  H2  O   H1  H2  O   
H1  H2  O   H1  H2  O   H1  H2  O   H1  H2  O   H1  H2  O   H1  H2  O   H1  H2  
O   H1  H2  O   H1  H2  O   H1  H2  O   H1  H2  O   H1  H2  O   H1  H2  O   H1  
H2  O   H1  H2  O   H1  H2  O   H1  H2  O   H1  H2  O   H1  H2  O   H1  H2  O   
H1  H2  O   H1  H2  O   H1  H2  O   H1  H2  O   H1  H2  O   H1  H2  O   H1  H2  
O   H1  H2  O   H1  H2  O   H1  H2  O   H1  H2  O   H1  H2  O   H1  H2  O   H1  
H2  O   H1  H2  O   H1  H2  O   H1  H2  O   H1  H2  O   H1  H2  O   H1  H2  O   
H1  H2  O   H1  H2  O   H1  H2  O   H1  H2  O   H1  H2  O   H1  H2  O   H1  H2  
O   H1  H2  O   H1  H2  O   H1  H2  O   H1  H2  O   H1  H2  O   H1  H2  O   H1  
H2  O   H1  H2  O   H1  H2  O   H1  H2  O   H1  H2  O   H1  H2  O   H1  H2  O   
H1  H2  O   H1  H2  O   H1  H2  O   H1  H2  O   H1  H2  O   H1  H2  O   H1  H2  
O   H1  H2  O   H1  H2  O   H1  H2  O   H1  H2  O   H1  H2  O   H1  H2  O   H1  
H2  O   H1  H2  O   H1  H2  O   H1  H2  O   H1  H2  O   H1  H2  O   H1  H2  O   
H1  H2  O   H1  H2  O   H1  H2  O   H1  H2  O   H1  H2  O   H1  H2  O   H1  H2  
O   H1  H2  O   H1  H2  O   H1  H2  O   H1  H2  O   H1  H2  O   H1  H2  O   H1  
H2  O   H1  H2  O   H1  H2  O   H1  H2  O   H1  H2  O   H1  H2  O   H1  H2  O   
H1  H2  O   H1  H2  O   H1  H2  O   H1  H2  O   H1  H2  O   H1  H2  O   H1  H2  
O   H1  H2  O   H1  H2  O   H1  H2  O   H1  H2  O   H1  H2  O   H1  H2  O   H1  
H2  O   H1  H2  O   H1  H2  O   H1  H2  O   H1  H2  O   H1  H2  O   H1  H2  O   
H1  H2  O   H1  H2  O   H1  H2  O   H1  H2  O   H1  H2  O   H1  H2  O   H1  H2  
O   H1  H2  O   H1  H2  O   H1  H2  O   H1  H2  O   H1  H2  O   H1  H2  O   H1  
H2  O   H1  H2  O   H1  H2  O   H1  H2  O   H1  H2  O   H1  H2  O   H1  H2  O   
H1  H2  O   H1  H2  O   H1  H2  O   H1  H2  O   H1  H2  O   H1  H2  O   H1  H2  
O   H1  H2  O   H1  H2  O   H1  H2  O   H1  H2  O   H1  H2  O   H1  H2  O   H1  
H2  O   H1  H2  O   H1  H2  O   H1  H2  O   H1  H2  O   H1  H2  O   H1  H2  O   
H1  H2  O   H1  H2  O   H1  H2  O   H1  H2  O   H1  H2  O   H1  H2  O   H1  H2  
O   H1  H2  O   H1  H2  O   H1  H2  O   H1  H2  O   H1  H2  O   H1  H2  O   H1  
H2  O   H1  H2  O   H1  H2  O   H1  H2  O   H1  H2  O   H1  H2  O   H1  H2  O   
H1  H2  O   H1  H2  O   H1  H2  O   H1  H2  O   H1  H2  O   H1  H2  O   H1  H2  
O   H1  H2  O   H1  H2  O   H1  H2  O   H1  H2  O   H1  H2  O   H1  H2  O   H1  
H2  O   H1  H2  O   H1  H2  O   H1  H2  O   H1  H2  O   H1  H2  O   H1  H2  O   
H1  H2  O   H1  H2  O   H1  H2  O   H1  H2  O   H1  H2  O   H1  H2  O   H1  H2  
O   H1  H2  O   H1  H2  O   H1  H2  O   H1  H2  O   H1  H2  O   H1  H2  O   H1  
H2  O   H1  H2  O   H1  H2  O   H1  H2  O   H1  H2  O   H1  H2  O   H1  H2  O   
H1  H2  O   H1  H2  O   H1  H2  O   H1  H2  O   H1  H2  O   H1  H2  O   H1  H2  
O   H1  H2  O   H1  H2  O   H1  H2  O   H1  H2  O   H1  H2  O   H1  H2  O   H1  
H2  O   H1  H2  O   H1  H2  O   H1  H2  O   H1  H2  O   H1  H2  O   H1  H2  O   
H1  H2  O   H1  H2  O   H1  H2  O   H1  H2  O   H1  H2  O   H1  H2  O   H1  H2  
O   H1  H2  O   H1  H2  O   H1  H2  O   H1  H2  O   H1  H2  O   H1  H2  O   H1  
H2  O   H1  H2  O   H1  H2  O   H1  H2  O   H1  H2  O   H1  H2  O   H1  H2  O   
H1  H2  O   H1  H2  O   H1  H2  O   H1  H2  O   H1  H2  O   H1  H2  O   H1  H2  
O   H1  H2  O   H1  H2  O   H1  H2  O   H1  H2  O   H1  H2  O   H1  H2  O   H1  
H2  O   H1  H2  O   H1  H2  O   H1  H2  O   H1  H2  O   H1  H2  O   H1  H2  O   
H1  H2  O   H1  H2  O   H1  H2  O   H1  H2  O   H1  H2  O   H1  H2  O   H1  H2  
O   H1  H2  O   H1  H2  O   H1  H2  O   H1  H2  O   H1  H2  O   H1  H2  O   H1  
H2  O   H1  H2  O   H1  H2  O   H1  H2  O   H1  H2  O   H1  H2  O   H1  H2  O   
H1  H2  O   H1  H2  O   H1  H2  O   H1  H2  O   H1  H2  O   H1  H2  O   H1  H2  
O   H1  H2  O   H1  H2  O   H1  H2  O   H1  H2  O   H1  H2  O   H1  H2  O   H1  
H2  O   H1  H2  O   H1  H2  O   H1  H2  O   H1  H2  O   H1  H2  O   H1  H2  O   
H1  H2  O   H1  H2  O   H1  H2  O   H1  H2  O   H1  H2  O   H1  H2  O   H1  H2  
O   H1  H2  O   H1  H2  O   H1  H2  O   H1  H2  O   H1  H2  O   H1  H2  O   H1  
H2  O   H1  H2  O   H1  H2  O   H1  H2  O   H1  H2  O   H1  H2  O   H1  H2  O   
H1  H2  O   H1  H2  O   H1  H2  O   H1  H2  O   H1  H2  O   H1  H2  O   H1  H2  
O   H1  H2  O   H1  H2  O   H1  H2  O   H1  H2  O   H1  H2  O   H1  H2  O   H1  
H2  O   H1  H2  O   H1  H2  O   H1  H2  O   H1  H2  O   H1  H2  O   H1  H2  O   
H1  H2  O   H1  H2  O   H1  H2  O   H1  H2  O   H1  H2  O   H1  H2  O   H1  H2  
O   H1  H2  O   H1  H2  O   H1  H2  O   H1  H2  O   H1  H2  O   H1  H2  O   H1  
H2  O   H1  H2  O   H1  H2  O   H1  H2  O   H1  H2  O   H1  H2  O   H1  H2  O   
H1  H2  O   H1  H2  O   H1  H2  O   H1  H2  O   H1  H2  O   H1  H2  O   H1  H2  
O   H1  H2  O   H1  H2  O   H1  H2  O   H1  H2  O   H1  H2  O   H1  H2  O   H1  
H2  O   H1  H2  O   H1  H2  O   H1  H2  O   H1  H2  O   H1  H2  O   H1  H2  O   
H1  H2  O   H1  H2  O   H1  H2  O   H1  H2  O   H1  H2  O   H1  H2  O   H1  H2  
O   H1  H2  O   H1  H2  O   H1  H2  O   H1  H2  O   H1  H2  O   H1  H2  O   H1  
H2  O   H1  H2  O   H1  H2  O   H1  H2  O   H1  H2  O   H1  H2  O   H1  H2  O   
H1  H2  O   H1  H2  O   H1  H2  O   H1  H2  O   H1  H2  O   H1  H2  O   H1  H2  
O   H1  H2  O   H1  H2  O   H1  H2  O   H1  H2  O   H1  H2  O   H1  H2  O   H1  
H2  O   H1  H2  O   H1  H2  O   H1  H2  O   H1  H2  O   H1  H2  O   H1  H2  O   
H1  H2  O   H1  H2  O   H1  H2  O   H1  H2  O   H1  H2  O   H1  H2  O   H1  H2  
O   H1  H2  O   H1  H2  O   H1  H2  O   H1  H2  O   H1  H2  O   H1  H2  O   H1  
H2  O   H1  H2  O   H1  H2  O   H1  H2  O   H1  H2  O   H1  H2  O   H1  H2  O   
H1  H2  O   H1  H2  O   H1  H2  O   H1  H2  O   H1  H2  O   H1  H2  O   H1  H2  
O   H1  H2  O   H1  H2  O   H1  H2  O   H1  H2  O   H1  H2  O   H1  H2  O   H1  
H2  O   H1  H2  O   H1  H2  O   H1  H2  O   H1  H2  O   H1  H2  O   H1  H2  O   
H1  H2  O   H1  H2  O   H1  H2  O   H1  H2  O   H1  H2  O   H1  H2  O   H1  H2  
O   H1  H2  O   H1  H2  O   H1  H2  O   H1  H2  O   H1  H2  O   H1  H2  O   H1  
H2  O   H1  H2  O   H1  H2  O   H1  H2  O   H1  H2  O   H1  H2  O   H1  H2  O   
H1  H2  O   H1  H2  O   H1  H2  O   H1  H2  O   H1  H2  O   H1  H2  O   H1  H2  
O   H1  H2  O   H1  H2  O   H1  H2  O   H1  H2  O   H1  H2  O   H1  H2  O   H1  
H2  O   H1  H2  O   H1  H2  O   H1  H2  O   H1  H2  O   H1  H2  O   H1  H2  O   
H1  H2  O   H1  H2  O   H1  H2  O   H1  H2  O   H1  H2  O   H1  H2  O   H1  H2  
O   H1  H2  O   H1  H2  O   H1  H2  O   H1  H2  O   H1  H2  O   H1  H2  O   H1  
H2  O   H1  H2  O   H1  H2  O   H1  H2  O   H1  H2  O   H1  H2  O   H1  H2  O   
H1  H2  O   H1  H2  O   H1  H2  O   H1  H2  O   H1  H2  O   H1  H2  O   H1  H2  
O   H1  H2  O   H1  H2  O   H1  H2  O   H1  H2  O   H1  H2  O   H1  H2  O   H1  
H2  O   H1  H2  O   H1  H2  O   H1  H2  O   H1  H2  O   H1  H2  O   H1  H2  O   
H1  H2  O   H1  H2  O   H1  H2  O   H1  H2  O   H1  H2  O   H1  H2  O   H1  H2  
O   H1  H2  O   H1  H2  O   H1  H2  O   H1  H2  O   H1  H2  O   H1  H2  O   H1  
H2  O   H1  H2  O   H1  H2  O   H1  H2  O   H1  H2  O   H1  H2  O   H1  H2  O   
H1  H2  O   H1  H2  O   H1  H2  O   H1  H2  O   H1  H2  O   H1  H2  O   H1  H2  
O   H1  H2  O   H1  H2  O   H1  H2  O   H1  H2  O   H1  H2  O   H1  H2  O   H1  
H2  O   H1  H2  O   H1  H2  O   H1  H2  O   H1  H2  O   H1  H2  O   H1  H2  O   
H1  H2  O   H1  H2  O   H1  H2  O   H1  H2  O   H1  H2  O   H1  H2  O   H1  H2  
O   H1  H2  O   H1  H2  O   H1  H2  O   H1  H2  O   H1  H2  O   H1  H2  O   H1  
H2  O   H1  H2  O   H1  H2  O   H1  H2  O   H1  H2  O   H1  H2  O   H1  H2  O   
H1  H2  O   H1  H2  O   H1  H2  O   H1  H2  O   H1  H2  O   H1  H2  O   H1  H2  
O   H1  H2  O   H1  H2  O   H1  H2  O   H1  H2  O   H1  H2  O   H1  H2  O   H1  
H2  O   H1  H2  O   H1  H2  O   H1  H2  O   H1  H2  O   H1  H2  O   H1  H2  O   
H1  H2  O   H1  H2  O   H1  H2  O   H1  H2  O   H1  H2  O   H1  H2  O   H1  H2  
O   H1  H2  O   H1  H2  O   H1  H2  O   H1  H2  O   H1  H2  O   H1  H2  O   H1  
H2  O   H1  H2  O   H1  H2  O   H1  H2  O   H1  H2  O   H1  H2  O   H1  H2  O   
H1  H2  O   H1  H2  O   H1  H2  O   H1  H2  O   H1  H2  O   H1  H2  O   H1  H2  
O   H1  H2  O   H1  H2  O   H1  H2  O   H1  H2  O   H1  H2  O   H1  H2  O   H1  
H2  O   H1  H2  O   H1  H2  O   H1  H2  O   H1  H2  O   H1  H2  O   H1  H2  O   
H1  H2  O   H1  H2  O   H1  H2  O   H1  H2  O   H1  H2  O   H1  H2  O   H1  H2  
O   H1  H2  O   H1  H2  O   H1  H2  O   H1  H2  O   H1  H2  O   H1  H2  O   H1  
H2  O   H1  H2  O   H1  H2  O   H1  H2  O   H1  H2  O   H1  H2  O   H1  H2  O   
H1  H2  O   H1  H2  O   H1  H2  O   H1  H2  O   H1  H2  O   H1  H2  O   H1  H2  
O   H1  H2  O   H1  H2  O   H1  H2  O   H1  H2  O   H1  H2  O   H1  H2  O   H1  
H2  O   H1  H2  O   H1  H2  O   H1  H2  O   H1  H2  O   H1  H2  O   H1  H2  O   
H1  H2  O   H1  H2  O   H1  H2  O   H1  H2  O   H1  H2  O   H1  H2  O   H1  H2  
O   H1  H2  O   H1  H2  O   H1  H2  O   H1  H2  O   H1  H2  O   H1  H2  O   H1  
H2  O   H1  H2  O   H1  H2  O   H1  H2  O   H1  H2  O   H1  H2  O   H1  H2  O   
H1  H2  O   H1  H2  O   H1  H2  O   H1  H2  O   H1  H2  O   H1  H2  O   H1  H2  
O   H1  H2  O   H1  H2  O   H1  H2  O   H1  H2  O   H1  H2  O   H1  H2  O   H1  
H2  O   H1  H2  O   H1  H2  O   H1  H2  O   H1  H2  O   H1  H2  O   H1  H2  O   
H1  H2  O   H1  H2  O   H1  H2  O   H1  H2  O   H1  H2  O   H1  H2  O   H1  H2  
O   H1  H2  O   H1  H2  O   H1  H2  O   H1  H2  O   H1  H2  O   H1  H2  O   H1  
H2  O   H1  H2  O   H1  H2  O   H1  H2  O   H1  H2  O   H1  H2  O   H1  H2  O   
H1  H2  O   H1  H2  O   H1  H2  O   H1  H2  O   H1  H2  O   H1  H2  O   H1  H2  
O   H1  H2  O   H1  H2  O   H1  H2  O   H1  H2  O   H1  H2  O   H1  H2  O   H1  
H2  O   H1  H2  O   H1  H2  O   H1  H2  O   H1  H2  O   H1  H2  O   H1  H2  O   
H1  H2  O   H1  H2  O   H1  H2  O   H1  H2  O   H1  H2  O   H1  H2  O   H1  H2  
O   H1  H2  O   H1  H2  O   H1  H2  O   H1  H2  O   H1  H2  O   H1  H2  O   H1  
H2  O   H1  H2  O   H1  H2  O   H1  H2  O   H1  H2  O   H1  H2  O   H1  H2  O   
H1  H2  O   H1  H2  O   H1  H2  O   H1  H2  O   H1  H2  O   H1  H2  O   H1  H2  
O   H1  H2  O   H1  H2  O   H1  H2  O   H1  H2  O   H1  H2  O   H1  H2  O   H1  
H2  O   H1  H2  O   H1  H2  O   H1  H2  O   H1  H2  O   H1  H2  O   H1  H2  O   
H1  H2  O   H1  H2  O   H1  H2  O   H1  H2  O   H1  H2  O   H1  H2  O   H1  H2  
O   H1  H2  O   H1  H2  O   H1  H2  O   H1  H2  O   H1  H2  O   H1  H2  O   H1  
H2  O   H1  H2  O   H1  H2  O   H1  H2  O   H1  H2  O   H1  H2  O   H1  H2  O   
H1  H2  O   H1  H2  O   H1  H2  O   H1  H2  O   H1  H2  O   H1  H2  O   H1  H2  
O   H1  H2  O   H1  H2  O   H1  H2  O   H1  H2  O   H1  H2  O   H1  H2  O   H1  
H2  O   H1  H2  O   H1  H2  O   H1  H2  O   H1  H2  O   H1  H2  O   H1  H2  O   
H1  H2  O   H1  H2  O   H1  H2  O   H1  H2  O   H1  H2  O   H1  H2  O   H1  H2  
O   H1  H2  O   H1  H2  O   H1  H2  O   H1  H2  O   H1  H2  O   H1  H2  O   H1  
H2  O   H1  H2  O   H1  H2  O   H1  H2  O   H1  H2  O   H1  H2  O   H1  H2  O   
H1  H2  O   H1  H2  O   H1  H2  O   H1  H2  O   H1  H2  O   H1  H2  O   H1  H2  
O   H1  H2  O   H1  H2  O   H1  H2  O   H1  H2  O   H1  H2  O   H1  H2  O   H1  
H2  O   H1  H2  O   H1  H2  O   H1  H2  O   H1  H2  O   H1  H2  O   H1  H2  O   
H1  H2  O   H1  H2  O   H1  H2  O   H1  H2  O   H1  H2  O   H1  H2  O   H1  H2  
O   H1  H2  O   H1  H2  O   H1  H2  O   H1  H2  O   H1  H2  O   H1  H2  O   H1  
H2  O   H1  H2  O   H1  H2  O   H1  H2  O   H1  H2  O   H1  H2  O   H1  H2  O   
H1  H2  O   H1  H2  O   H1  H2  O   H1  H2  O   H1  H2  O   H1  H2  O   H1  H2  
O   H1  H2  O   H1  H2  O   H1  H2  O   H1  H2  O   H1  H2  O   H1  H2  O   H1  
H2  O   H1  H2  O   H1  H2  O   H1  H2  O   H1  H2  O   H1  H2  O   H1  H2  O   
H1  H2  O   H1  H2  O   H1  H2  O   H1  H2  O   H1  H2  O   H1  H2  O   H1  H2  
O   H1  H2  O   H1  H2  O   H1  H2  O   H1  H2  O   H1  H2  O   H1  H2  O   H1  
H2  O   H1  H2  O   H1  H2  O   H1  H2  O   H1  H2  O   H1  H2  O   H1  H2  O   
H1  H2  O   H1  H2  O   H1  H2  O   H1  H2  O   H1  H2  O   H1  H2  O   H1  H2  
O   H1  H2  O   H1  H2  O   H1  H2  O   H1  H2  O   H1  H2  O   H1  H2  O   H1  
H2  O   H1  H2  O   H1  H2  O   H1  H2  O   H1  H2  O   H1  H2  O   H1  H2  O   
H1  H2  O   H1  H2  O   H1  H2  O   H1  H2  O   H1  H2  O   H1  H2  O   H1  H2  
O   H1  H2  O   H1  H2  O   H1  H2  
%FLAG CHARGE                                                                    
%FORMAT(5E16.8)                                                                 
 -6.21420519E+00 -3.90221443E+00 -3.74650488E-02 -5.39753637E+00 -5.39753637E+00
 -3.74650488E-02 -3.90221443E+00 -6.21420519E+00 -3.90221443E+00 -3.74650488E-02
 -5.39753637E+00 -5.39753637E+00 -3.74650488E-02 -3.90221443E+00  1.65422039E+00
  1.65422039E+00  4.93817041E+00  4.41327706E+00  4.73484599E+00  4.73484599E+00
  4.41327706E+00  4.93817041E+00  4.41327706E+00  4.73484599E+00  4.73484599E+00
  4.41327706E+00 -7.32694083E+00  3.13350671E+00  3.13350671E+00 -8.31850728E+00
  4.72026815E+00  5.65802415E-02  1.47683541E+00  5.65802415E-02 -7.38968932E-01
 -1.93711249E+00 -1.49838328E+00 -7.38968932E-01 -2.99703990E+00  1.47683541E+00
  1.24995867E+00 -2.34794336E-01 -2.49153508E-01 -1.16934321E+00  3.56482855E-01
 -5.08210836E+00 -7.69053949E-01 -1.84865234E-01 -8.85550935E+00  8.11949243E-01
  9.46101816E-01 -1.08842891E+01 -5.61011772E+00  4.30228503E+00 -1.10303409E+01
 -2.69453150E-01 -1.14920757E+01  4.72026815E+00 -8.31850728E+00  1.76653354E+00
  2.16713258E+00  1.04561380E+00  1.04561380E+00  1.76653354E+00  2.16713258E+00
  9.40398236E-01  9.40398236E-01  5.66932198E-01  5.66932198E-01  6.40112954E-01
  6.40112954E-01  1.02405682E+00  1.02405682E+00  2.48758084E+00  2.73688013E+00
  6.83959453E+00  2.03167712E+00  1.63659943E+00  1.63659943E+00  6.75642795E+00
  1.95532568E+00  8.13197471E+00  2.55369134E+00  8.19646343E+00 -8.31850728E+00
  4.72026815E+00  5.65802415E-02  1.47683541E+00  5.65802415E-02 -7.38968932E-01
 -2.99703990E+00 -1.49838328E+00 -7.38968932E-01 -2.99703990E+00  1.47683541E+00
  1.24995867E+00 -2.34794336E-01 -2.49153508E-01 -1.16934321E+00  3.56482855E-01
 -5.08210836E+00 -7.69053949E-01 -1.84865234E-01 -8.85550935E+00  8.11949243E-01
  9.46101816E-01 -1.08842891E+01 -5.61011772E+00  4.30228503E+00 -1.10303409E+01
 -2.69453150E-01 -1.14920757E+01  4.72026815E+00 -8.31850728E+00  1.76653354E+00
  2.16713258E+00  1.04561380E+00  1.04561380E+00  1.76653354E+00  2.16713258E+00
  9.40398236E-01  9.40398236E-01  5.66932198E-01  5.66932198E-01  6.40112954E-01
  6.40112954E-01  1.02405682E+00  1.02405682E+00  2.48758084E+00  2.73688013E+00
  6.83959453E+00  2.03167712E+00  1.63659943E+00  1.63659943E+00  6.75642795E+00
  1.95532568E+00  8.13197471E+00  2.55369134E+00  8.19646343E+00 -8.31850728E+00
  4.72026815E+00  5.65802415E-02  1.47683541E+00  5.65802415E-02 -7.38968932E-01
 -2.99703990E+00 -1.49838328E+00 -7.38968932E-01 -2.99703990E+00  1.47683541E+00
  1.24995867E+00 -2.34794336E-01 -2.49153508E-01 -1.16934321E+00  3.56482855E-01
 -5.08210836E+00 -7.69053949E-01 -1.84865234E-01 -8.85550935E+00  8.11949243E-01
  9.46101816E-01 -1.08842891E+01 -5.61011772E+00  4.30228503E+00 -1.10303409E+01
 -2.69453150E-01 -1.14920757E+01  4.72026815E+00 -8.31850728E+00  1.76653354E+00
  2.16713258E+00  1.04561380E+00  1.04561380E+00  1.76653354E+00  2.16713258E+00
  9.40398236E-01  9.40398236E-01  5.66932198E-01  5.66932198E-01  6.40112954E-01
  6.40112954E-01  1.02405682E+00  1.02405682E+00  2.48758084E+00  2.73688013E+00
  6.83959453E+00  2.03167712E+00  1.63659943E+00  1.63659943E+00  6.75642795E+00
  1.95532568E+00  8.13197471E+00  2.55369134E+00  8.19646343E+00 -8.31850728E+00
  4.72026815E+00  5.65802415E-02  1.47683541E+00  5.65802415E-02 -7.38968932E-01
 -2.99703990E+00 -1.49838328E+00 -7.38968932E-01 -2.99703990E+00  1.47683541E+00
  1.24995867E+00 -2.34794336E-01 -2.49153508E-01 -1.16934321E+00  3.56482855E-01
 -5.08210836E+00 -7.69053949E-01 -1.84865234E-01 -8.85550935E+00  8.11949243E-01
  9.46101816E-01 -1.08842891E+01 -5.61011772E+00  4.30228503E+00 -1.10303409E+01
 -2.69453150E-01 -1.14920757E+01  4.72026815E+00 -8.31850728E+00  1.76653354E+00
  2.16713258E+00  1.04561380E+00  1.04561380E+00  1.76653354E+00  2.16713258E+00
  9.40398236E-01  9.40398236E-01  5.66932198E-01  5.66932198E-01  6.40112954E-01
  6.40112954E-01  1.02405682E+00  1.02405682E+00  2.48758084E+00  2.73688013E+00
  6.83959453E+00  2.03167712E+00  1.63659943E+00  1.63659943E+00  6.75642795E+00
  1.95532568E+00  8.13197471E+00  2.55369134E+00  8.19646343E+00 -8.31850728E+00
  4.72026815E+00  5.65802415E-02  1.47683541E+00  5.65802415E-02 -7.38968932E-01
 -2.99703990E+00 -1.49838328E+00 -7.38968932E-01 -2.99703990E+00  1.47683541E+00
  1.24995867E+00 -2.34794336E-01 -2.49153508E-01 -1.16934321E+00  3.56482855E-01
 -5.08210836E+00 -7.69053949E-01 -1.84865234E-01 -8.85550935E+00  8.11949243E-01
  9.46101816E-01 -1.08842891E+01 -5.61011772E+00  4.30228503E+00 -1.10303409E+01
 -2.69453150E-01 -1.14920757E+01  4.72026815E+00 -8.31850728E+00  1.76653354E+00
  2.16713258E+00  1.04561380E+00  1.04561380E+00  1.76653354E+00  2.16713258E+00
  9.40398236E-01  9.40398236E-01  5.66932198E-01  5.66932198E-01  6.40112954E-01
  6.40112954E-01  1.02405682E+00  1.02405682E+00  2.48758084E+00  2.73688013E+00
  6.83959453E+00  2.03167712E+00  1.63659943E+00  1.63659943E+00  6.75642795E+00
  1.95532568E+00  8.13197471E+00  2.55369134E+00  8.19646343E+00 -8.31850728E+00
  4.72026815E+00  5.65802415E-02  1.47683541E+00  5.65802415E-02 -7.38968932E-01
 -2.99703990E+00 -1.49838328E+00 -7.38968932E-01 -2.99703990E+00  1.47683541E+00
  1.24995867E+00 -2.34794336E-01 -2.49153508E-01 -1.16934321E+00  3.56482855E-01
 -5.08210836E+00 -7.69053949E-01 -1.84865234E-01 -8.85550935E+00  8.11949243E-01
  9.46101816E-01 -1.08842891E+01 -5.61011772E+00  4.30228503E+00 -1.10303409E+01
 -2.69453150E-01 -1.14920757E+01  4.72026815E+00 -8.31850728E+00  1.76653354E+00
  2.16713258E+00  1.04561380E+00  1.04561380E+00  1.76653354E+00  2.16713258E+00
  9.40398236E-01  9.40398236E-01  5.66932198E-01  5.66932198E-01  6.40112954E-01
  6.40112954E-01  1.02405682E+00  1.02405682E+00  2.48758084E+00  2.73688013E+00
  6.83959453E+00  2.03167712E+00  1.63659943E+00  1.63659943E+00  6.75642795E+00
  1.95532568E+00  8.13197471E+00  2.55369134E+00  8.19646343E+00 -8.31850728E+00
  4.72026815E+00  5.65802415E-02  1.47683541E+00  5.65802415E-02 -7.38968932E-01
 -2.99703990E+00 -1.49838328E+00 -7.38968932E-01 -2.99703990E+00  1.47683541E+00
  1.24995867E+00 -2.34794336E-01 -2.49153508E-01 -1.16934321E+00  3.56482855E-01
 -5.08210836E+00 -7.69053949E-01 -1.84865234E-01 -8.85550935E+00  8.11949243E-01
  9.46101816E-01 -1.08842891E+01 -5.61011772E+00  4.30228503E+00 -1.10303409E+01
 -2.69453150E-01 -1.14920757E+01  4.72026815E+00 -8.31850728E+00  1.76653354E+00
  2.16713258E+00  1.04561380E+00  1.04561380E+00  1.76653354E+00  2.16713258E+00
  9.40398236E-01  9.40398236E-01  5.66932198E-01  5.66932198E-01  6.40112954E-01
  6.40112954E-01  1.02405682E+00  1.02405682E+00  2.48758084E+00  2.73688013E+00
  6.83959453E+00  2.03167712E+00  1.63659943E+00  1.63659943E+00  6.75642795E+00
  1.95532568E+00  8.13197471E+00  2.55369134E+00  8.19646343E+00 -8.31850728E+00
  4.72026815E+00  5.65802415E-02  1.47683541E+00  5.65802415E-02 -7.38968932E-01
 -2.99703990E+00 -1.49838328E+00 -7.38968932E-01 -2.99703990E+00  1.47683541E+00
  1.24995867E+00 -2.34794336E-01 -2.49153508E-01 -1.16934321E+00  3.56482855E-01
 -5.08210836E+00 -7.69053949E-01 -1.84865234E-01 -8.85550935E+00  8.11949243E-01
  9.46101816E-01 -1.08842891E+01 -5.61011772E+00  4.30228503E+00 -1.10303409E+01
 -2.69453150E-01 -1.14920757E+01  4.72026815E+00 -8.31850728E+00  1.76653354E+00
  2.16713258E+00  1.04561380E+00  1.04561380E+00  1.76653354E+00  2.16713258E+00
  9.40398236E-01  9.40398236E-01  5.66932198E-01  5.66932198E-01  6.40112954E-01
  6.40112954E-01  1.02405682E+00  1.02405682E+00  2.48758084E+00  2.73688013E+00
  6.83959453E+00  2.03167712E+00  1.63659943E+00  1.63659943E+00  6.75642795E+00
  1.95532568E+00  8.13197471E+00  2.55369134E+00  8.19646343E+00 -8.31850728E+00
  4.72026815E+00  5.65802415E-02  1.47683541E+00  5.65802415E-02 -7.38968932E-01
 -2.99703990E+00 -1.49838328E+00 -7.38968932E-01 -2.99703990E+00  1.47683541E+00
  1.24995867E+00 -2.34794336E-01 -2.49153508E-01 -1.16934321E+00  3.56482855E-01
 -5.08210836E+00 -7.69053949E-01 -1.84865234E-01 -8.85550935E+00  8.11949243E-01
  9.46101816E-01 -1.08842891E+01 -5.61011772E+00  4.30228503E+00 -1.10303409E+01
 -2.69453150E-01 -1.14920757E+01  4.72026815E+00 -8.31850728E+00  1.76653354E+00
  2.16713258E+00  1.04561380E+00  1.04561380E+00  1.76653354E+00  2.16713258E+00
  9.40398236E-01  9.40398236E-01  5.66932198E-01  5.66932198E-01  6.40112954E-01
  6.40112954E-01  1.02405682E+00  1.02405682E+00  2.48758084E+00  2.73688013E+00
  6.83959453E+00  2.03167712E+00  1.63659943E+00  1.63659943E+00  6.75642795E+00
  1.95532568E+00  8.13197471E+00  2.55369134E+00  8.19646343E+00 -8.31850728E+00
  4.72026815E+00  5.65802415E-02  1.47683541E+00  5.65802415E-02 -7.38968932E-01
 -2.99703990E+00 -1.49838328E+00 -7.38968932E-01 -1.93711249E+00  1.47683541E+00
  1.24995867E+00 -2.34794336E-01 -2.49153508E-01 -1.16934321E+00  3.56482855E-01
 -5.08210836E+00 -7.69053949E-01 -1.84865234E-01 -8.85550935E+00  8.11949243E-01
  9.46101816E-01 -1.08842891E+01 -5.61011772E+00  4.30228503E+00 -1.10303409E+01
 -2.69453150E-01 -1.14920757E+01  4.72026815E+00 -8.31850728E+00  1.76653354E+00
  2.16713258E+00  1.04561380E+00  1.04561380E+00  1.76653354E+00  2.16713258E+00
  9.40398236E-01  9.40398236E-01  5.66932198E-01  5.66932198E-01  6.40112954E-01
  6.40112954E-01  1.02405682E+00  1.02405682E+00  2.48758084E+00  2.73688013E+00
  6.83959453E+00  2.03167712E+00  1.63659943E+00  1.63659943E+00  6.75642795E+00
  1.95532568E+00  8.13197471E+00  2.55369134E+00  8.19646343E+00 -7.32694083E+00
  3.13350671E+00  3.13350671E+00 -7.32694083E+00  3.13350671E+00  3.13350671E+00
 -8.31850728E+00  4.72026815E+00  5.65802415E-02  1.47683541E+00  5.65802415E-02
 -7.38968932E-01 -1.93711249E+00 -1.49838328E+00 -7.38968932E-01 -2.99703990E+00
  1.47683541E+00  1.24995867E+00 -2.34794336E-01 -2.49153508E-01 -1.16934321E+00
  3.56482855E-01 -5.08210836E+00 -7.69053949E-01 -1.84865234E-01 -8.85550935E+00
  8.11949243E-01  9.46101816E-01 -1.08842891E+01 -5.61011772E+00  4.30228503E+00
 -1.10303409E+01 -2.69453150E-01 -1.14920757E+01  4.72026815E+00 -8.31850728E+00
  1.76653354E+00  2.16713258E+00  1.04561380E+00  1.04561380E+00  1.76653354E+00
  2.16713258E+00  9.40398236E-01  9.40398236E-01  5.66932198E-01  5.66932198E-01
  6.40112954E-01  6.40112954E-01  1.02405682E+00  1.02405682E+00  2.48758084E+00
  2.73688013E+00  6.83959453E+00  2.03167712E+00  1.63659943E+00  1.63659943E+00
  6.75642795E+00  1.95532568E+00  8.13197471E+00  2.55369134E+00  8.19646343E+00
 -8.31850728E+00  4.72026815E+00  5.65802415E-02  1.47683541E+00  5.65802415E-02
 -7.38968932E-01 -2.99703990E+00 -1.49838328E+00 -7.38968932E-01 -2.99703990E+00
  1.47683541E+00  1.24995867E+00 -2.34794336E-01 -2.49153508E-01 -1.16934321E+00
  3.56482855E-01 -5.08210836E+00 -7.69053949E-01 -1.84865234E-01 -8.85550935E+00
  8.11949243E-01  9.46101816E-01 -1.08842891E+01 -5.61011772E+00  4.30228503E+00
 -1.10303409E+01 -2.69453150E-01 -1.14920757E+01  4.72026815E+00 -8.31850728E+00
  1.76653354E+00  2.16713258E+00  1.04561380E+00  1.04561380E+00  1.76653354E+00
  2.16713258E+00  9.40398236E-01  9.40398236E-01  5.66932198E-01  5.66932198E-01
  6.40112954E-01  6.40112954E-01  1.02405682E+00  1.02405682E+00  2.48758084E+00
  2.73688013E+00  6.83959453E+00  2.03167712E+00  1.63659943E+00  1.63659943E+00
  6.75642795E+00  1.95532568E+00  8.13197471E+00  2.55369134E+00  8.19646343E+00
 -8.31850728E+00  4.72026815E+00  5.65802415E-02  1.47683541E+00  5.65802415E-02
 -7.38968932E-01 -2.99703990E+00 -1.49838328E+00 -7.38968932E-01 -2.99703990E+00
  1.47683541E+00  1.24995867E+00 -2.34794336E-01 -2.49153508E-01 -1.16934321E+00
  3.56482855E-01 -5.08210836E+00 -7.69053949E-01 -1.84865234E-01 -8.85550935E+00
  8.11949243E-01  9.46101816E-01 -1.08842891E+01 -5.61011772E+00  4.30228503E+00
 -1.10303409E+01 -2.69453150E-01 -1.14920757E+01  4.72026815E+00 -8.31850728E+00
  1.76653354E+00  2.16713258E+00  1.04561380E+00  1.04561380E+00  1.76653354E+00
  2.16713258E+00  9.40398236E-01  9.40398236E-01  5.66932198E-01  5.66932198E-01
  6.40112954E-01  6.40112954E-01  1.02405682E+00  1.02405682E+00  2.48758084E+00
  2.73688013E+00  6.83959453E+00  2.03167712E+00  1.63659943E+00  1.63659943E+00
  6.75642795E+00  1.95532568E+00  8.13197471E+00  2.55369134E+00  8.19646343E+00
 -8.31850728E+00  4.72026815E+00  5.65802415E-02  1.47683541E+00  5.65802415E-02
 -7.38968932E-01 -2.99703990E+00 -1.49838328E+00 -7.38968932E-01 -2.99703990E+00
  1.47683541E+00  1.24995867E+00 -2.34794336E-01 -2.49153508E-01 -1.16934321E+00
  3.56482855E-01 -5.08210836E+00 -7.69053949E-01 -1.84865234E-01 -8.85550935E+00
  8.11949243E-01  9.46101816E-01 -1.08842891E+01 -5.61011772E+00  4.30228503E+00
 -1.10303409E+01 -2.69453150E-01 -1.14920757E+01  4.72026815E+00 -8.31850728E+00
  1.76653354E+00  2.16713258E+00  1.04561380E+00  1.04561380E+00  1.76653354E+00
  2.16713258E+00  9.40398236E-01  9.40398236E-01  5.66932198E-01  5.66932198E-01
  6.40112954E-01  6.40112954E-01  1.02405682E+00  1.02405682E+00  2.48758084E+00
  2.73688013E+00  6.83959453E+00  2.03167712E+00  1.63659943E+00  1.63659943E+00
  6.75642795E+00  1.95532568E+00  8.13197471E+00  2.55369134E+00  8.19646343E+00
 -8.31850728E+00  4.72026815E+00  5.65802415E-02  1.47683541E+00  5.65802415E-02
 -7.38968932E-01 -2.99703990E+00 -1.49838328E+00 -7.38968932E-01 -2.99703990E+00
  1.47683541E+00  1.24995867E+00 -2.34794336E-01 -2.49153508E-01 -1.16934321E+00
  3.56482855E-01 -5.08210836E+00 -7.69053949E-01 -1.84865234E-01 -8.85550935E+00
  8.11949243E-01  9.46101816E-01 -1.08842891E+01 -5.61011772E+00  4.30228503E+00
 -1.10303409E+01 -2.69453150E-01 -1.14920757E+01  4.72026815E+00 -8.31850728E+00
  1.76653354E+00  2.16713258E+00  1.04561380E+00  1.04561380E+00  1.76653354E+00
  2.16713258E+00  9.40398236E-01  9.40398236E-01  5.66932198E-01  5.66932198E-01
  6.40112954E-01  6.40112954E-01  1.02405682E+00  1.02405682E+00  2.48758084E+00
  2.73688013E+00  6.83959453E+00  2.03167712E+00  1.63659943E+00  1.63659943E+00
  6.75642795E+00  1.95532568E+00  8.13197471E+00  2.55369134E+00  8.19646343E+00
 -8.31850728E+00  4.72026815E+00  5.65802415E-02  1.47683541E+00  5.65802415E-02
 -7.38968932E-01 -2.99703990E+00 -1.49838328E+00 -7.38968932E-01 -2.99703990E+00
  1.47683541E+00  1.24995867E+00 -2.34794336E-01 -2.49153508E-01 -1.16934321E+00
  3.56482855E-01 -5.08210836E+00 -7.69053949E-01 -1.84865234E-01 -8.85550935E+00
  8.11949243E-01  9.46101816E-01 -1.08842891E+01 -5.61011772E+00  4.30228503E+00
 -1.10303409E+01 -2.69453150E-01 -1.14920757E+01  4.72026815E+00 -8.31850728E+00
  1.76653354E+00  2.16713258E+00  1.04561380E+00  1.04561380E+00  1.76653354E+00
  2.16713258E+00  9.40398236E-01  9.40398236E-01  5.66932198E-01  5.66932198E-01
  6.40112954E-01  6.40112954E-01  1.02405682E+00  1.02405682E+00  2.48758084E+00
  2.73688013E+00  6.83959453E+00  2.03167712E+00  1.63659943E+00  1.63659943E+00
  6.75642795E+00  1.95532568E+00  8.13197471E+00  2.55369134E+00  8.19646343E+00
 -8.31850728E+00  4.72026815E+00  5.65802415E-02  1.47683541E+00  5.65802415E-02
 -7.38968932E-01 -2.99703990E+00 -1.49838328E+00 -7.38968932E-01 -2.99703990E+00
  1.47683541E+00  1.24995867E+00 -2.34794336E-01 -2.49153508E-01 -1.16934321E+00
  3.56482855E-01 -5.08210836E+00 -7.69053949E-01 -1.84865234E-01 -8.85550935E+00
  8.11949243E-01  9.46101816E-01 -1.08842891E+01 -5.61011772E+00  4.30228503E+00
 -1.10303409E+01 -2.69453150E-01 -1.14920757E+01  4.72026815E+00 -8.31850728E+00
  1.76653354E+00  2.16713258E+00  1.04561380E+00  1.04561380E+00  1.76653354E+00
  2.16713258E+00  9.40398236E-01  9.40398236E-01  5.66932198E-01  5.66932198E-01
  6.40112954E-01  6.40112954E-01  1.02405682E+00  1.02405682E+00  2.48758084E+00
  2.73688013E+00  6.83959453E+00  2.03167712E+00  1.63659943E+00  1.63659943E+00
  6.75642795E+00  1.95532568E+00  8.13197471E+00  2.55369134E+00  8.19646343E+00
 -8.31850728E+00  4.72026815E+00  5.65802415E-02  1.47683541E+00  5.65802415E-02
 -7.38968932E-01 -2.99703990E+00 -1.49838328E+00 -7.38968932E-01 -2.99703990E+00
  1.47683541E+00  1.24995867E+00 -2.34794336E-01 -2.49153508E-01 -1.16934321E+00
  3.56482855E-01 -5.08210836E+00 -7.69053949E-01 -1.84865234E-01 -8.85550935E+00
  8.11949243E-01  9.46101816E-01 -1.08842891E+01 -5.61011772E+00  4.30228503E+00
 -1.10303409E+01 -2.69453150E-01 -1.14920757E+01  4.72026815E+00 -8.31850728E+00
  1.76653354E+00  2.16713258E+00  1.04561380E+00  1.04561380E+00  1.76653354E+00
  2.16713258E+00  9.40398236E-01  9.40398236E-01  5.66932198E-01  5.66932198E-01
  6.40112954E-01  6.40112954E-01  1.02405682E+00  1.02405682E+00  2.48758084E+00
  2.73688013E+00  6.83959453E+00  2.03167712E+00  1.63659943E+00  1.63659943E+00
  6.75642795E+00  1.95532568E+00  8.13197471E+00  2.55369134E+00  8.19646343E+00
 -8.31850728E+00  4.72026815E+00  5.65802415E-02  1.47683541E+00  5.65802415E-02
 -7.38968932E-01 -2.99703990E+00 -1.49838328E+00 -7.38968932E-01 -2.99703990E+00
  1.47683541E+00  1.24995867E+00 -2.34794336E-01 -2.49153508E-01 -1.16934321E+00
  3.56482855E-01 -5.08210836E+00 -7.69053949E-01 -1.84865234E-01 -8.85550935E+00
  8.11949243E-01  9.46101816E-01 -1.08842891E+01 -5.61011772E+00  4.30228503E+00
 -1.10303409E+01 -2.69453150E-01 -1.14920757E+01  4.72026815E+00 -8.31850728E+00
  1.76653354E+00  2.16713258E+00  1.04561380E+00  1.04561380E+00  1.76653354E+00
  2.16713258E+00  9.40398236E-01  9.40398236E-01  5.66932198E-01  5.66932198E-01
  6.40112954E-01  6.40112954E-01  1.02405682E+00  1.02405682E+00  2.48758084E+00
  2.73688013E+00  6.83959453E+00  2.03167712E+00  1.63659943E+00  1.63659943E+00
  6.75642795E+00  1.95532568E+00  8.13197471E+00  2.55369134E+00  8.19646343E+00
 -8.31850728E+00  4.72026815E+00  5.65802415E-02  1.47683541E+00  5.65802415E-02
 -7.38968932E-01 -2.99703990E+00 -1.49838328E+00 -7.38968932E-01 -1.93711249E+00
  1.47683541E+00  1.24995867E+00 -2.34794336E-01 -2.49153508E-01 -1.16934321E+00
  3.56482855E-01 -5.08210836E+00 -7.69053949E-01 -1.84865234E-01 -8.85550935E+00
  8.11949243E-01  9.46101816E-01 -1.08842891E+01 -5.61011772E+00  4.30228503E+00
 -1.10303409E+01 -2.69453150E-01 -1.14920757E+01  4.72026815E+00 -8.31850728E+00
  1.76653354E+00  2.16713258E+00  1.04561380E+00  1.04561380E+00  1.76653354E+00
  2.16713258E+00  9.40398236E-01  9.40398236E-01  5.66932198E-01  5.66932198E-01
  6.40112954E-01  6.40112954E-01  1.02405682E+00  1.02405682E+00  2.48758084E+00
  2.73688013E+00  6.83959453E+00  2.03167712E+00  1.63659943E+00  1.63659943E+00
  6.75642795E+00  1.95532568E+00  8.13197471E+00  2.55369134E+00  8.19646343E+00
 -7.32694083E+00  3.13350671E+00  3.13350671E+00 -1.51973982E+01  7.59869910E+00
  7.59869910E+00 -1.51973982E+01  7.59869910E+00  7.59869910E+00 -1.51973982E+01
  7.59869910E+00  7.59869910E+00 -1.51973982E+01  7.59869910E+00  7.59869910E+00
 -1.51973982E+01  7.59869910E+00  7.59869910E+00 -1.51973982E+01  7.59869910E+00
  7.59869910E+00 -1.51973982E+01  7.59869910E+00  7.59869910E+00 -1.51973982E+01
  7.59869910E+00  7.59869910E+00 -1.51973982E+01  7.59869910E+00  7.59869910E+00
 -1.51973982E+01  7.59869910E+00  7.59869910E+00 -1.51973982E+01  7.59869910E+00
  7.59869910E+00 -1.51973982E+01  7.59869910E+00  7.59869910E+00 -1.51973982E+01
  7.59869910E+00  7.59869910E+00 -1.51973982E+01  7.59869910E+00  7.59869910E+00
 -1.51973982E+01  7.59869910E+00  7.59869910E+00 -1.51973982E+01  7.59869910E+00
  7.59869910E+00 -1.51973982E+01  7.59869910E+00  7.59869910E+00 -1.51973982E+01
  7.59869910E+00  7.59869910E+00 -1.51973982E+01  7.59869910E+00  7.59869910E+00
 -1.51973982E+01  7.59869910E+00  7.59869910E+00 -1.51973982E+01  7.59869910E+00
  7.59869910E+00 -1.51973982E+01  7.59869910E+00  7.59869910E+00 -1.51973982E+01
  7.59869910E+00  7.59869910E+00 -1.51973982E+01  7.59869910E+00  7.59869910E+00
 -1.51973982E+01  7.59869910E+00  7.59869910E+00 -1.51973982E+01  7.59869910E+00
  7.59869910E+00 -1.51973982E+01  7.59869910E+00  7.59869910E+00 -1.51973982E+01
  7.59869910E+00  7.59869910E+00 -1.51973982E+01  7.59869910E+00  7.59869910E+00
 -1.51973982E+01  7.59869910E+00  7.59869910E+00 -1.51973982E+01  7.59869910E+00
  7.59869910E+00 -1.51973982E+01  7.59869910E+00  7.59869910E+00 -1.51973982E+01
  7.59869910E+00  7.59869910E+00 -1.51973982E+01  7.59869910E+00  7.59869910E+00
 -1.51973982E+01  7.59869910E+00  7.59869910E+00 -1.51973982E+01  7.59869910E+00
  7.59869910E+00 -1.51973982E+01  7.59869910E+00  7.59869910E+00 -1.51973982E+01
  7.59869910E+00  7.59869910E+00 -1.51973982E+01  7.59869910E+00  7.59869910E+00
 -1.51973982E+01  7.59869910E+00  7.59869910E+00 -1.51973982E+01  7.59869910E+00
  7.59869910E+00 -1.51973982E+01  7.59869910E+00  7.59869910E+00 -1.51973982E+01
  7.59869910E+00  7.59869910E+00 -1.51973982E+01  7.59869910E+00  7.59869910E+00
 -1.51973982E+01  7.59869910E+00  7.59869910E+00 -1.51973982E+01  7.59869910E+00
  7.59869910E+00 -1.51973982E+01  7.59869910E+00  7.59869910E+00 -1.51973982E+01
  7.59869910E+00  7.59869910E+00 -1.51973982E+01  7.59869910E+00  7.59869910E+00
 -1.51973982E+01  7.59869910E+00  7.59869910E+00 -1.51973982E+01  7.59869910E+00
  7.59869910E+00 -1.51973982E+01  7.59869910E+00  7.59869910E+00 -1.51973982E+01
  7.59869910E+00  7.59869910E+00 -1.51973982E+01  7.59869910E+00  7.59869910E+00
 -1.51973982E+01  7.59869910E+00  7.59869910E+00 -1.51973982E+01  7.59869910E+00
  7.59869910E+00 -1.51973982E+01  7.59869910E+00  7.59869910E+00 -1.51973982E+01
  7.59869910E+00  7.59869910E+00 -1.51973982E+01  7.59869910E+00  7.59869910E+00
 -1.51973982E+01  7.59869910E+00  7.59869910E+00 -1.51973982E+01  7.59869910E+00
  7.59869910E+00 -1.51973982E+01  7.59869910E+00  7.59869910E+00 -1.51973982E+01
  7.59869910E+00  7.59869910E+00 -1.51973982E+01  7.59869910E+00  7.59869910E+00
 -1.51973982E+01  7.59869910E+00  7.59869910E+00 -1.51973982E+01  7.59869910E+00
  7.59869910E+00 -1.51973982E+01  7.59869910E+00  7.59869910E+00 -1.51973982E+01
  7.59869910E+00  7.59869910E+00 -1.51973982E+01  7.59869910E+00  7.59869910E+00
 -1.51973982E+01  7.59869910E+00  7.59869910E+00 -1.51973982E+01  7.59869910E+00
  7.59869910E+00 -1.51973982E+01  7.59869910E+00  7.59869910E+00 -1.51973982E+01
  7.59869910E+00  7.59869910E+00 -1.51973982E+01  7.59869910E+00  7.59869910E+00
 -1.51973982E+01  7.59869910E+00  7.59869910E+00 -1.51973982E+01  7.59869910E+00
  7.59869910E+00 -1.51973982E+01  7.59869910E+00  7.59869910E+00 -1.51973982E+01
  7.59869910E+00  7.59869910E+00 -1.51973982E+01  7.59869910E+00  7.59869910E+00
 -1.51973982E+01  7.59869910E+00  7.59869910E+00 -1.51973982E+01  7.59869910E+00
  7.59869910E+00 -1.51973982E+01  7.59869910E+00  7.59869910E+00 -1.51973982E+01
  7.59869910E+00  7.59869910E+00 -1.51973982E+01  7.59869910E+00  7.59869910E+00
 -1.51973982E+01  7.59869910E+00  7.59869910E+00 -1.51973982E+01  7.59869910E+00
  7.59869910E+00 -1.51973982E+01  7.59869910E+00  7.59869910E+00 -1.51973982E+01
  7.59869910E+00  7.59869910E+00 -1.51973982E+01  7.59869910E+00  7.59869910E+00
 -1.51973982E+01  7.59869910E+00  7.59869910E+00 -1.51973982E+01  7.59869910E+00
  7.59869910E+00 -1.51973982E+01  7.59869910E+00  7.59869910E+00 -1.51973982E+01
  7.59869910E+00  7.59869910E+00 -1.51973982E+01  7.59869910E+00  7.59869910E+00
 -1.51973982E+01  7.59869910E+00  7.59869910E+00 -1.51973982E+01  7.59869910E+00
  7.59869910E+00 -1.51973982E+01  7.59869910E+00  7.59869910E+00 -1.51973982E+01
  7.59869910E+00  7.59869910E+00 -1.51973982E+01  7.59869910E+00  7.59869910E+00
 -1.51973982E+01  7.59869910E+00  7.59869910E+00 -1.51973982E+01  7.59869910E+00
  7.59869910E+00 -1.51973982E+01  7.59869910E+00  7.59869910E+00 -1.51973982E+01
  7.59869910E+00  7.59869910E+00 -1.51973982E+01  7.59869910E+00  7.59869910E+00
 -1.51973982E+01  7.59869910E+00  7.59869910E+00 -1.51973982E+01  7.59869910E+00
  7.59869910E+00 -1.51973982E+01  7.59869910E+00  7.59869910E+00 -1.51973982E+01
  7.59869910E+00  7.59869910E+00 -1.51973982E+01  7.59869910E+00  7.59869910E+00
 -1.51973982E+01  7.59869910E+00  7.59869910E+00 -1.51973982E+01  7.59869910E+00
  7.59869910E+00 -1.51973982E+01  7.59869910E+00  7.59869910E+00 -1.51973982E+01
  7.59869910E+00  7.59869910E+00 -1.51973982E+01  7.59869910E+00  7.59869910E+00
 -1.51973982E+01  7.59869910E+00  7.59869910E+00 -1.51973982E+01  7.59869910E+00
  7.59869910E+00 -1.51973982E+01  7.59869910E+00  7.59869910E+00 -1.51973982E+01
  7.59869910E+00  7.59869910E+00 -1.51973982E+01  7.59869910E+00  7.59869910E+00
 -1.51973982E+01  7.59869910E+00  7.59869910E+00 -1.51973982E+01  7.59869910E+00
  7.59869910E+00 -1.51973982E+01  7.59869910E+00  7.59869910E+00 -1.51973982E+01
  7.59869910E+00  7.59869910E+00 -1.51973982E+01  7.59869910E+00  7.59869910E+00
 -1.51973982E+01  7.59869910E+00  7.59869910E+00 -1.51973982E+01  7.59869910E+00
  7.59869910E+00 -1.51973982E+01  7.59869910E+00  7.59869910E+00 -1.51973982E+01
  7.59869910E+00  7.59869910E+00 -1.51973982E+01  7.59869910E+00  7.59869910E+00
 -1.51973982E+01  7.59869910E+00  7.59869910E+00 -1.51973982E+01  7.59869910E+00
  7.59869910E+00 -1.51973982E+01  7.59869910E+00  7.59869910E+00 -1.51973982E+01
  7.59869910E+00  7.59869910E+00 -1.51973982E+01  7.59869910E+00  7.59869910E+00
 -1.51973982E+01  7.59869910E+00  7.59869910E+00 -1.51973982E+01  7.59869910E+00
  7.59869910E+00 -1.51973982E+01  7.59869910E+00  7.59869910E+00 -1.51973982E+01
  7.59869910E+00  7.59869910E+00 -1.51973982E+01  7.59869910E+00  7.59869910E+00
 -1.51973982E+01  7.59869910E+00  7.59869910E+00 -1.51973982E+01  7.59869910E+00
  7.59869910E+00 -1.51973982E+01  7.59869910E+00  7.59869910E+00 -1.51973982E+01
  7.59869910E+00  7.59869910E+00 -1.51973982E+01  7.59869910E+00  7.59869910E+00
 -1.51973982E+01  7.59869910E+00  7.59869910E+00 -1.51973982E+01  7.59869910E+00
  7.59869910E+00 -1.51973982E+01  7.59869910E+00  7.59869910E+00 -1.51973982E+01
  7.59869910E+00  7.59869910E+00 -1.51973982E+01  7.59869910E+00  7.59869910E+00
 -1.51973982E+01  7.59869910E+00  7.59869910E+00 -1.51973982E+01  7.59869910E+00
  7.59869910E+00 -1.51973982E+01  7.59869910E+00  7.59869910E+00 -1.51973982E+01
  7.59869910E+00  7.59869910E+00 -1.51973982E+01  7.59869910E+00  7.59869910E+00
 -1.51973982E+01  7.59869910E+00  7.59869910E+00 -1.51973982E+01  7.59869910E+00
  7.59869910E+00 -1.51973982E+01  7.59869910E+00  7.59869910E+00 -1.51973982E+01
  7.59869910E+00  7.59869910E+00 -1.51973982E+01  7.59869910E+00  7.59869910E+00
 -1.51973982E+01  7.59869910E+00  7.59869910E+00 -1.51973982E+01  7.59869910E+00
  7.59869910E+00 -1.51973982E+01  7.59869910E+00  7.59869910E+00 -1.51973982E+01
  7.59869910E+00  7.59869910E+00 -1.51973982E+01  7.59869910E+00  7.59869910E+00
 -1.51973982E+01  7.59869910E+00  7.59869910E+00 -1.51973982E+01  7.59869910E+00
  7.59869910E+00 -1.51973982E+01  7.59869910E+00  7.59869910E+00 -1.51973982E+01
  7.59869910E+00  7.59869910E+00 -1.51973982E+01  7.59869910E+00  7.59869910E+00
 -1.51973982E+01  7.59869910E+00  7.59869910E+00 -1.51973982E+01  7.59869910E+00
  7.59869910E+00 -1.51973982E+01  7.59869910E+00  7.59869910E+00 -1.51973982E+01
  7.59869910E+00  7.59869910E+00 -1.51973982E+01  7.59869910E+00  7.59869910E+00
 -1.51973982E+01  7.59869910E+00  7.59869910E+00 -1.51973982E+01  7.59869910E+00
  7.59869910E+00 -1.51973982E+01  7.59869910E+00  7.59869910E+00 -1.51973982E+01
  7.59869910E+00  7.59869910E+00 -1.51973982E+01  7.59869910E+00  7.59869910E+00
 -1.51973982E+01  7.59869910E+00  7.59869910E+00 -1.51973982E+01  7.59869910E+00
  7.59869910E+00 -1.51973982E+01  7.59869910E+00  7.59869910E+00 -1.51973982E+01
  7.59869910E+00  7.59869910E+00 -1.51973982E+01  7.59869910E+00  7.59869910E+00
 -1.51973982E+01  7.59869910E+00  7.59869910E+00 -1.51973982E+01  7.59869910E+00
  7.59869910E+00 -1.51973982E+01  7.59869910E+00  7.59869910E+00 -1.51973982E+01
  7.59869910E+00  7.59869910E+00 -1.51973982E+01  7.59869910E+00  7.59869910E+00
 -1.51973982E+01  7.59869910E+00  7.59869910E+00 -1.51973982E+01  7.59869910E+00
  7.59869910E+00 -1.51973982E+01  7.59869910E+00  7.59869910E+00 -1.51973982E+01
  7.59869910E+00  7.59869910E+00 -1.51973982E+01  7.59869910E+00  7.59869910E+00
 -1.51973982E+01  7.59869910E+00  7.59869910E+00 -1.51973982E+01  7.59869910E+00
  7.59869910E+00 -1.51973982E+01  7.59869910E+00  7.59869910E+00 -1.51973982E+01
  7.59869910E+00  7.59869910E+00 -1.51973982E+01  7.59869910E+00  7.59869910E+00
 -1.51973982E+01  7.59869910E+00  7.59869910E+00 -1.51973982E+01  7.59869910E+00
  7.59869910E+00 -1.51973982E+01  7.59869910E+00  7.59869910E+00 -1.51973982E+01
  7.59869910E+00  7.59869910E+00 -1.51973982E+01  7.59869910E+00  7.59869910E+00
 -1.51973982E+01  7.59869910E+00  7.59869910E+00 -1.51973982E+01  7.59869910E+00
  7.59869910E+00 -1.51973982E+01  7.59869910E+00  7.59869910E+00 -1.51973982E+01
  7.59869910E+00  7.59869910E+00 -1.51973982E+01  7.59869910E+00  7.59869910E+00
 -1.51973982E+01  7.59869910E+00  7.59869910E+00 -1.51973982E+01  7.59869910E+00
  7.59869910E+00 -1.51973982E+01  7.59869910E+00  7.59869910E+00 -1.51973982E+01
  7.59869910E+00  7.59869910E+00 -1.51973982E+01  7.59869910E+00  7.59869910E+00
 -1.51973982E+01  7.59869910E+00  7.59869910E+00 -1.51973982E+01  7.59869910E+00
  7.59869910E+00 -1.51973982E+01  7.59869910E+00  7.59869910E+00 -1.51973982E+01
  7.59869910E+00  7.59869910E+00 -1.51973982E+01  7.59869910E+00  7.59869910E+00
 -1.51973982E+01  7.59869910E+00  7.59869910E+00 -1.51973982E+01  7.59869910E+00
  7.59869910E+00 -1.51973982E+01  7.59869910E+00  7.59869910E+00 -1.51973982E+01
  7.59869910E+00  7.59869910E+00 -1.51973982E+01  7.59869910E+00  7.59869910E+00
 -1.51973982E+01  7.59869910E+00  7.59869910E+00 -1.51973982E+01  7.59869910E+00
  7.59869910E+00 -1.51973982E+01  7.59869910E+00  7.59869910E+00 -1.51973982E+01
  7.59869910E+00  7.59869910E+00 -1.51973982E+01  7.59869910E+00  7.59869910E+00
 -1.51973982E+01  7.59869910E+00  7.59869910E+00 -1.51973982E+01  7.59869910E+00
  7.59869910E+00 -1.51973982E+01  7.59869910E+00  7.59869910E+00 -1.51973982E+01
  7.59869910E+00  7.59869910E+00 -1.51973982E+01  7.59869910E+00  7.59869910E+00
 -1.51973982E+01  7.59869910E+00  7.59869910E+00 -1.51973982E+01  7.59869910E+00
  7.59869910E+00 -1.51973982E+01  7.59869910E+00  7.59869910E+00 -1.51973982E+01
  7.59869910E+00  7.59869910E+00 -1.51973982E+01  7.59869910E+00  7.59869910E+00
 -1.51973982E+01  7.59869910E+00  7.59869910E+00 -1.51973982E+01  7.59869910E+00
  7.59869910E+00 -1.51973982E+01  7.59869910E+00  7.59869910E+00 -1.51973982E+01
  7.59869910E+00  7.59869910E+00 -1.51973982E+01  7.59869910E+00  7.59869910E+00
 -1.51973982E+01  7.59869910E+00  7.59869910E+00 -1.51973982E+01  7.59869910E+00
  7.59869910E+00 -1.51973982E+01  7.59869910E+00  7.59869910E+00 -1.51973982E+01
  7.59869910E+00  7.59869910E+00 -1.51973982E+01  7.59869910E+00  7.59869910E+00
 -1.51973982E+01  7.59869910E+00  7.59869910E+00 -1.51973982E+01  7.59869910E+00
  7.59869910E+00 -1.51973982E+01  7.59869910E+00  7.59869910E+00 -1.51973982E+01
  7.59869910E+00  7.59869910E+00 -1.51973982E+01  7.59869910E+00  7.59869910E+00
 -1.51973982E+01  7.59869910E+00  7.59869910E+00 -1.51973982E+01  7.59869910E+00
  7.59869910E+00 -1.51973982E+01  7.59869910E+00  7.59869910E+00 -1.51973982E+01
  7.59869910E+00  7.59869910E+00 -1.51973982E+01  7.59869910E+00  7.59869910E+00
 -1.51973982E+01  7.59869910E+00  7.59869910E+00 -1.51973982E+01  7.59869910E+00
  7.59869910E+00 -1.51973982E+01  7.59869910E+00  7.59869910E+00 -1.51973982E+01
  7.59869910E+00  7.59869910E+00 -1.51973982E+01  7.59869910E+00  7.59869910E+00
 -1.51973982E+01  7.59869910E+00  7.59869910E+00 -1.51973982E+01  7.59869910E+00
  7.59869910E+00 -1.51973982E+01  7.59869910E+00  7.59869910E+00 -1.51973982E+01
  7.59869910E+00  7.59869910E+00 -1.51973982E+01  7.59869910E+00  7.59869910E+00
 -1.51973982E+01  7.59869910E+00  7.59869910E+00 -1.51973982E+01  7.59869910E+00
  7.59869910E+00 -1.51973982E+01  7.59869910E+00  7.59869910E+00 -1.51973982E+01
  7.59869910E+00  7.59869910E+00 -1.51973982E+01  7.59869910E+00  7.59869910E+00
 -1.51973982E+01  7.59869910E+00  7.59869910E+00 -1.51973982E+01  7.59869910E+00
  7.59869910E+00 -1.51973982E+01  7.59869910E+00  7.59869910E+00 -1.51973982E+01
  7.59869910E+00  7.59869910E+00 -1.51973982E+01  7.59869910E+00  7.59869910E+00
 -1.51973982E+01  7.59869910E+00  7.59869910E+00 -1.51973982E+01  7.59869910E+00
  7.59869910E+00 -1.51973982E+01  7.59869910E+00  7.59869910E+00 -1.51973982E+01
  7.59869910E+00  7.59869910E+00 -1.51973982E+01  7.59869910E+00  7.59869910E+00
 -1.51973982E+01  7.59869910E+00  7.59869910E+00 -1.51973982E+01  7.59869910E+00
  7.59869910E+00 -1.51973982E+01  7.59869910E+00  7.59869910E+00 -1.51973982E+01
  7.59869910E+00  7.59869910E+00 -1.51973982E+01  7.59869910E+00  7.59869910E+00
 -1.51973982E+01  7.59869910E+00  7.59869910E+00 -1.51973982E+01  7.59869910E+00
  7.59869910E+00 -1.51973982E+01  7.59869910E+00  7.59869910E+00 -1.51973982E+01
  7.59869910E+00  7.59869910E+00 -1.51973982E+01  7.59869910E+00  7.59869910E+00
 -1.51973982E+01  7.59869910E+00  7.59869910E+00 -1.51973982E+01  7.59869910E+00
  7.59869910E+00 -1.51973982E+01  7.59869910E+00  7.59869910E+00 -1.51973982E+01
  7.59869910E+00  7.59869910E+00 -1.51973982E+01  7.59869910E+00  7.59869910E+00
 -1.51973982E+01  7.59869910E+00  7.59869910E+00 -1.51973982E+01  7.59869910E+00
  7.59869910E+00 -1.51973982E+01  7.59869910E+00  7.59869910E+00 -1.51973982E+01
  7.59869910E+00  7.59869910E+00 -1.51973982E+01  7.59869910E+00  7.59869910E+00
 -1.51973982E+01  7.59869910E+00  7.59869910E+00 -1.51973982E+01  7.59869910E+00
  7.59869910E+00 -1.51973982E+01  7.59869910E+00  7.59869910E+00 -1.51973982E+01
  7.59869910E+00  7.59869910E+00 -1.51973982E+01  7.59869910E+00  7.59869910E+00
 -1.51973982E+01  7.59869910E+00  7.59869910E+00 -1.51973982E+01  7.59869910E+00
  7.59869910E+00 -1.51973982E+01  7.59869910E+00  7.59869910E+00 -1.51973982E+01
  7.59869910E+00  7.59869910E+00 -1.51973982E+01  7.59869910E+00  7.59869910E+00
 -1.51973982E+01  7.59869910E+00  7.59869910E+00 -1.51973982E+01  7.59869910E+00
  7.59869910E+00 -1.51973982E+01  7.59869910E+00  7.59869910E+00 -1.51973982E+01
  7.59869910E+00  7.59869910E+00 -1.51973982E+01  7.59869910E+00  7.59869910E+00
 -1.51973982E+01  7.59869910E+00  7.59869910E+00 -1.51973982E+01  7.59869910E+00
  7.59869910E+00 -1.51973982E+01  7.59869910E+00  7.59869910E+00 -1.51973982E+01
  7.59869910E+00  7.59869910E+00 -1.51973982E+01  7.59869910E+00  7.59869910E+00
 -1.51973982E+01  7.59869910E+00  7.59869910E+00 -1.51973982E+01  7.59869910E+00
  7.59869910E+00 -1.51973982E+01  7.59869910E+00  7.59869910E+00 -1.51973982E+01
  7.59869910E+00  7.59869910E+00 -1.51973982E+01  7.59869910E+00  7.59869910E+00
 -1.51973982E+01  7.59869910E+00  7.59869910E+00 -1.51973982E+01  7.59869910E+00
  7.59869910E+00 -1.51973982E+01  7.59869910E+00  7.59869910E+00 -1.51973982E+01
  7.59869910E+00  7.59869910E+00 -1.51973982E+01  7.59869910E+00  7.59869910E+00
 -1.51973982E+01  7.59869910E+00  7.59869910E+00 -1.51973982E+01  7.59869910E+00
  7.59869910E+00 -1.51973982E+01  7.59869910E+00  7.59869910E+00 -1.51973982E+01
  7.59869910E+00  7.59869910E+00 -1.51973982E+01  7.59869910E+00  7.59869910E+00
 -1.51973982E+01  7.59869910E+00  7.59869910E+00 -1.51973982E+01  7.59869910E+00
  7.59869910E+00 -1.51973982E+01  7.59869910E+00  7.59869910E+00 -1.51973982E+01
  7.59869910E+00  7.59869910E+00 -1.51973982E+01  7.59869910E+00  7.59869910E+00
 -1.51973982E+01  7.59869910E+00  7.59869910E+00 -1.51973982E+01  7.59869910E+00
  7.59869910E+00 -1.51973982E+01  7.59869910E+00  7.59869910E+00 -1.51973982E+01
  7.59869910E+00  7.59869910E+00 -1.51973982E+01  7.59869910E+00  7.59869910E+00
 -1.51973982E+01  7.59869910E+00  7.59869910E+00 -1.51973982E+01  7.59869910E+00
  7.59869910E+00 -1.51973982E+01  7.59869910E+00  7.59869910E+00 -1.51973982E+01
  7.59869910E+00  7.59869910E+00 -1.51973982E+01  7.59869910E+00  7.59869910E+00
 -1.51973982E+01  7.59869910E+00  7.59869910E+00 -1.51973982E+01  7.59869910E+00
  7.59869910E+00 -1.51973982E+01  7.59869910E+00  7.59869910E+00 -1.51973982E+01
  7.59869910E+00  7.59869910E+00 -1.51973982E+01  7.59869910E+00  7.59869910E+00
 -1.51973982E+01  7.59869910E+00  7.59869910E+00 -1.51973982E+01  7.59869910E+00
  7.59869910E+00 -1.51973982E+01  7.59869910E+00  7.59869910E+00 -1.51973982E+01
  7.59869910E+00  7.59869910E+00 -1.51973982E+01  7.59869910E+00  7.59869910E+00
 -1.51973982E+01  7.59869910E+00  7.59869910E+00 -1.51973982E+01  7.59869910E+00
  7.59869910E+00 -1.51973982E+01  7.59869910E+00  7.59869910E+00 -1.51973982E+01
  7.59869910E+00  7.59869910E+00 -1.51973982E+01  7.59869910E+00  7.59869910E+00
 -1.51973982E+01  7.59869910E+00  7.59869910E+00 -1.51973982E+01  7.59869910E+00
  7.59869910E+00 -1.51973982E+01  7.59869910E+00  7.59869910E+00 -1.51973982E+01
  7.59869910E+00  7.59869910E+00 -1.51973982E+01  7.59869910E+00  7.59869910E+00
 -1.51973982E+01  7.59869910E+00  7.59869910E+00 -1.51973982E+01  7.59869910E+00
  7.59869910E+00 -1.51973982E+01  7.59869910E+00  7.59869910E+00 -1.51973982E+01
  7.59869910E+00  7.59869910E+00 -1.51973982E+01  7.59869910E+00  7.59869910E+00
 -1.51973982E+01  7.59869910E+00  7.59869910E+00 -1.51973982E+01  7.59869910E+00
  7.59869910E+00 -1.51973982E+01  7.59869910E+00  7.59869910E+00 -1.51973982E+01
  7.59869910E+00  7.59869910E+00 -1.51973982E+01  7.59869910E+00  7.59869910E+00
 -1.51973982E+01  7.59869910E+00  7.59869910E+00 -1.51973982E+01  7.59869910E+00
  7.59869910E+00 -1.51973982E+01  7.59869910E+00  7.59869910E+00 -1.51973982E+01
  7.59869910E+00  7.59869910E+00 -1.51973982E+01  7.59869910E+00  7.59869910E+00
 -1.51973982E+01  7.59869910E+00  7.59869910E+00 -1.51973982E+01  7.59869910E+00
  7.59869910E+00 -1.51973982E+01  7.59869910E+00  7.59869910E+00 -1.51973982E+01
  7.59869910E+00  7.59869910E+00 -1.51973982E+01  7.59869910E+00  7.59869910E+00
 -1.51973982E+01  7.59869910E+00  7.59869910E+00 -1.51973982E+01  7.59869910E+00
  7.59869910E+00 -1.51973982E+01  7.59869910E+00  7.59869910E+00 -1.51973982E+01
  7.59869910E+00  7.59869910E+00 -1.51973982E+01  7.59869910E+00  7.59869910E+00
 -1.51973982E+01  7.59869910E+00  7.59869910E+00 -1.51973982E+01  7.59869910E+00
  7.59869910E+00 -1.51973982E+01  7.59869910E+00  7.59869910E+00 -1.51973982E+01
  7.59869910E+00  7.59869910E+00 -1.51973982E+01  7.59869910E+00  7.59869910E+00
 -1.51973982E+01  7.59869910E+00  7.59869910E+00 -1.51973982E+01  7.59869910E+00
  7.59869910E+00 -1.51973982E+01  7.59869910E+00  7.59869910E+00 -1.51973982E+01
  7.59869910E+00  7.59869910E+00 -1.51973982E+01  7.59869910E+00  7.59869910E+00
 -1.51973982E+01  7.59869910E+00  7.59869910E+00 -1.51973982E+01  7.59869910E+00
  7.59869910E+00 -1.51973982E+01  7.59869910E+00  7.59869910E+00 -1.51973982E+01
  7.59869910E+00  7.59869910E+00 -1.51973982E+01  7.59869910E+00  7.59869910E+00
 -1.51973982E+01  7.59869910E+00  7.59869910E+00 -1.51973982E+01  7.59869910E+00
  7.59869910E+00 -1.51973982E+01  7.59869910E+00  7.59869910E+00 -1.51973982E+01
  7.59869910E+00  7.59869910E+00 -1.51973982E+01  7.59869910E+00  7.59869910E+00
 -1.51973982E+01  7.59869910E+00  7.59869910E+00 -1.51973982E+01  7.59869910E+00
  7.59869910E+00 -1.51973982E+01  7.59869910E+00  7.59869910E+00 -1.51973982E+01
  7.59869910E+00  7.59869910E+00 -1.51973982E+01  7.59869910E+00  7.59869910E+00
 -1.51973982E+01  7.59869910E+00  7.59869910E+00 -1.51973982E+01  7.59869910E+00
  7.59869910E+00 -1.51973982E+01  7.59869910E+00  7.59869910E+00 -1.51973982E+01
  7.59869910E+00  7.59869910E+00 -1.51973982E+01  7.59869910E+00  7.59869910E+00
 -1.51973982E+01  7.59869910E+00  7.59869910E+00 -1.51973982E+01  7.59869910E+00
  7.59869910E+00 -1.51973982E+01  7.59869910E+00  7.59869910E+00 -1.51973982E+01
  7.59869910E+00  7.59869910E+00 -1.51973982E+01  7.59869910E+00  7.59869910E+00
 -1.51973982E+01  7.59869910E+00  7.59869910E+00 -1.51973982E+01  7.59869910E+00
  7.59869910E+00 -1.51973982E+01  7.59869910E+00  7.59869910E+00 -1.51973982E+01
  7.59869910E+00  7.59869910E+00 -1.51973982E+01  7.59869910E+00  7.59869910E+00
 -1.51973982E+01  7.59869910E+00  7.59869910E+00 -1.51973982E+01  7.59869910E+00
  7.59869910E+00 -1.51973982E+01  7.59869910E+00  7.59869910E+00 -1.51973982E+01
  7.59869910E+00  7.59869910E+00 -1.51973982E+01  7.59869910E+00  7.59869910E+00
 -1.51973982E+01  7.59869910E+00  7.59869910E+00 -1.51973982E+01  7.59869910E+00
  7.59869910E+00 -1.51973982E+01  7.59869910E+00  7.59869910E+00 -1.51973982E+01
  7.59869910E+00  7.59869910E+00 -1.51973982E+01  7.59869910E+00  7.59869910E+00
 -1.51973982E+01  7.59869910E+00  7.59869910E+00 -1.51973982E+01  7.59869910E+00
  7.59869910E+00 -1.51973982E+01  7.59869910E+00  7.59869910E+00 -1.51973982E+01
  7.59869910E+00  7.59869910E+00 -1.51973982E+01  7.59869910E+00  7.59869910E+00
 -1.51973982E+01  7.59869910E+00  7.59869910E+00 -1.51973982E+01  7.59869910E+00
  7.59869910E+00 -1.51973982E+01  7.59869910E+00  7.59869910E+00 -1.51973982E+01
  7.59869910E+00  7.59869910E+00 -1.51973982E+01  7.59869910E+00  7.59869910E+00
 -1.51973982E+01  7.59869910E+00  7.59869910E+00 -1.51973982E+01  7.59869910E+00
  7.59869910E+00 -1.51973982E+01  7.59869910E+00  7.59869910E+00 -1.51973982E+01
  7.59869910E+00  7.59869910E+00 -1.51973982E+01  7.59869910E+00  7.59869910E+00
 -1.51973982E+01  7.59869910E+00  7.59869910E+00 -1.51973982E+01  7.59869910E+00
  7.59869910E+00 -1.51973982E+01  7.59869910E+00  7.59869910E+00 -1.51973982E+01
  7.59869910E+00  7.59869910E+00 -1.51973982E+01  7.59869910E+00  7.59869910E+00
 -1.51973982E+01  7.59869910E+00  7.59869910E+00 -1.51973982E+01  7.59869910E+00
  7.59869910E+00 -1.51973982E+01  7.59869910E+00  7.59869910E+00 -1.51973982E+01
  7.59869910E+00  7.59869910E+00 -1.51973982E+01  7.59869910E+00  7.59869910E+00
 -1.51973982E+01  7.59869910E+00  7.59869910E+00 -1.51973982E+01  7.59869910E+00
  7.59869910E+00 -1.51973982E+01  7.59869910E+00  7.59869910E+00 -1.51973982E+01
  7.59869910E+00  7.59869910E+00 -1.51973982E+01  7.59869910E+00  7.59869910E+00
 -1.51973982E+01  7.59869910E+00  7.59869910E+00 -1.51973982E+01  7.59869910E+00
  7.59869910E+00 -1.51973982E+01  7.59869910E+00  7.59869910E+00 -1.51973982E+01
  7.59869910E+00  7.59869910E+00 -1.51973982E+01  7.59869910E+00  7.59869910E+00
 -1.51973982E+01  7.59869910E+00  7.59869910E+00 -1.51973982E+01  7.59869910E+00
  7.59869910E+00 -1.51973982E+01  7.59869910E+00  7.59869910E+00 -1.51973982E+01
  7.59869910E+00  7.59869910E+00 -1.51973982E+01  7.59869910E+00  7.59869910E+00
 -1.51973982E+01  7.59869910E+00  7.59869910E+00 -1.51973982E+01  7.59869910E+00
  7.59869910E+00 -1.51973982E+01  7.59869910E+00  7.59869910E+00 -1.51973982E+01
  7.59869910E+00  7.59869910E+00 -1.51973982E+01  7.59869910E+00  7.59869910E+00
 -1.51973982E+01  7.59869910E+00  7.59869910E+00 -1.51973982E+01  7.59869910E+00
  7.59869910E+00 -1.51973982E+01  7.59869910E+00  7.59869910E+00 -1.51973982E+01
  7.59869910E+00  7.59869910E+00 -1.51973982E+01  7.59869910E+00  7.59869910E+00
 -1.51973982E+01  7.59869910E+00  7.59869910E+00 -1.51973982E+01  7.59869910E+00
  7.59869910E+00 -1.51973982E+01  7.59869910E+00  7.59869910E+00 -1.51973982E+01
  7.59869910E+00  7.59869910E+00 -1.51973982E+01  7.59869910E+00  7.59869910E+00
 -1.51973982E+01  7.59869910E+00  7.59869910E+00 -1.51973982E+01  7.59869910E+00
  7.59869910E+00 -1.51973982E+01  7.59869910E+00  7.59869910E+00 -1.51973982E+01
  7.59869910E+00  7.59869910E+00 -1.51973982E+01  7.59869910E+00  7.59869910E+00
 -1.51973982E+01  7.59869910E+00  7.59869910E+00 -1.51973982E+01  7.59869910E+00
  7.59869910E+00 -1.51973982E+01  7.59869910E+00  7.59869910E+00 -1.51973982E+01
  7.59869910E+00  7.59869910E+00 -1.51973982E+01  7.59869910E+00  7.59869910E+00
 -1.51973982E+01  7.59869910E+00  7.59869910E+00 -1.51973982E+01  7.59869910E+00
  7.59869910E+00 -1.51973982E+01  7.59869910E+00  7.59869910E+00 -1.51973982E+01
  7.59869910E+00  7.59869910E+00 -1.51973982E+01  7.59869910E+00  7.59869910E+00
 -1.51973982E+01  7.59869910E+00  7.59869910E+00 -1.51973982E+01  7.59869910E+00
  7.59869910E+00 -1.51973982E+01  7.59869910E+00  7.59869910E+00 -1.51973982E+01
  7.59869910E+00  7.59869910E+00 -1.51973982E+01  7.59869910E+00  7.59869910E+00
 -1.51973982E+01  7.59869910E+00  7.59869910E+00 -1.51973982E+01  7.59869910E+00
  7.59869910E+00 -1.51973982E+01  7.59869910E+00  7.59869910E+00 -1.51973982E+01
  7.59869910E+00  7.59869910E+00 -1.51973982E+01  7.59869910E+00  7.59869910E+00
 -1.51973982E+01  7.59869910E+00  7.59869910E+00 -1.51973982E+01  7.59869910E+00
  7.59869910E+00 -1.51973982E+01  7.59869910E+00  7.59869910E+00 -1.51973982E+01
  7.59869910E+00  7.59869910E+00 -1.51973982E+01  7.59869910E+00  7.59869910E+00
 -1.51973982E+01  7.59869910E+00  7.59869910E+00 -1.51973982E+01  7.59869910E+00
  7.59869910E+00 -1.51973982E+01  7.59869910E+00  7.59869910E+00 -1.51973982E+01
  7.59869910E+00  7.59869910E+00 -1.51973982E+01  7.59869910E+00  7.59869910E+00
 -1.51973982E+01  7.59869910E+00  7.59869910E+00 -1.51973982E+01  7.59869910E+00
  7.59869910E+00 -1.51973982E+01  7.59869910E+00  7.59869910E+00 -1.51973982E+01
  7.59869910E+00  7.59869910E+00 -1.51973982E+01  7.59869910E+00  7.59869910E+00
 -1.51973982E+01  7.59869910E+00  7.59869910E+00 -1.51973982E+01  7.59869910E+00
  7.59869910E+00 -1.51973982E+01  7.59869910E+00  7.59869910E+00 -1.51973982E+01
  7.59869910E+00  7.59869910E+00 -1.51973982E+01  7.59869910E+00  7.59869910E+00
 -1.51973982E+01  7.59869910E+00  7.59869910E+00 -1.51973982E+01  7.59869910E+00
  7.59869910E+00 -1.51973982E+01  7.59869910E+00  7.59869910E+00 -1.51973982E+01
  7.59869910E+00  7.59869910E+00 -1.51973982E+01  7.59869910E+00  7.59869910E+00
 -1.51973982E+01  7.59869910E+00  7.59869910E+00 -1.51973982E+01  7.59869910E+00
  7.59869910E+00 -1.51973982E+01  7.59869910E+00  7.59869910E+00 -1.51973982E+01
  7.59869910E+00  7.59869910E+00 -1.51973982E+01  7.59869910E+00  7.59869910E+00
 -1.51973982E+01  7.59869910E+00  7.59869910E+00 -1.51973982E+01  7.59869910E+00
  7.59869910E+00 -1.51973982E+01  7.59869910E+00  7.59869910E+00 -1.51973982E+01
  7.59869910E+00  7.59869910E+00 -1.51973982E+01  7.59869910E+00  7.59869910E+00
 -1.51973982E+01  7.59869910E+00  7.59869910E+00 -1.51973982E+01  7.59869910E+00
  7.59869910E+00 -1.51973982E+01  7.59869910E+00  7.59869910E+00 -1.51973982E+01
  7.59869910E+00  7.59869910E+00 -1.51973982E+01  7.59869910E+00  7.59869910E+00
 -1.51973982E+01  7.59869910E+00  7.59869910E+00 -1.51973982E+01  7.59869910E+00
  7.59869910E+00 -1.51973982E+01  7.59869910E+00  7.59869910E+00 -1.51973982E+01
  7.59869910E+00  7.59869910E+00 -1.51973982E+01  7.59869910E+00  7.59869910E+00
 -1.51973982E+01  7.59869910E+00  7.59869910E+00 -1.51973982E+01  7.59869910E+00
  7.59869910E+00 -1.51973982E+01  7.59869910E+00  7.59869910E+00 -1.51973982E+01
  7.59869910E+00  7.59869910E+00 -1.51973982E+01  7.59869910E+00  7.59869910E+00
 -1.51973982E+01  7.59869910E+00  7.59869910E+00 -1.51973982E+01  7.59869910E+00
  7.59869910E+00 -1.51973982E+01  7.59869910E+00  7.59869910E+00 -1.51973982E+01
  7.59869910E+00  7.59869910E+00 -1.51973982E+01  7.59869910E+00  7.59869910E+00
 -1.51973982E+01  7.59869910E+00  7.59869910E+00 -1.51973982E+01  7.59869910E+00
  7.59869910E+00 -1.51973982E+01  7.59869910E+00  7.59869910E+00 -1.51973982E+01
  7.59869910E+00  7.59869910E+00 -1.51973982E+01  7.59869910E+00  7.59869910E+00
 -1.51973982E+01  7.59869910E+00  7.59869910E+00 -1.51973982E+01  7.59869910E+00
  7.59869910E+00 -1.51973982E+01  7.59869910E+00  7.59869910E+00 -1.51973982E+01
  7.59869910E+00  7.59869910E+00 -1.51973982E+01  7.59869910E+00  7.59869910E+00
 -1.51973982E+01  7.59869910E+00  7.59869910E+00 -1.51973982E+01  7.59869910E+00
  7.59869910E+00 -1.51973982E+01  7.59869910E+00  7.59869910E+00 -1.51973982E+01
  7.59869910E+00  7.59869910E+00 -1.51973982E+01  7.59869910E+00  7.59869910E+00
 -1.51973982E+01  7.59869910E+00  7.59869910E+00 -1.51973982E+01  7.59869910E+00
  7.59869910E+00 -1.51973982E+01  7.59869910E+00  7.59869910E+00 -1.51973982E+01
  7.59869910E+00  7.59869910E+00 -1.51973982E+01  7.59869910E+00  7.59869910E+00
 -1.51973982E+01  7.59869910E+00  7.59869910E+00 -1.51973982E+01  7.59869910E+00
  7.59869910E+00 -1.51973982E+01  7.59869910E+00  7.59869910E+00 -1.51973982E+01
  7.59869910E+00  7.59869910E+00 -1.51973982E+01  7.59869910E+00  7.59869910E+00
 -1.51973982E+01  7.59869910E+00  7.59869910E+00 -1.51973982E+01  7.59869910E+00
  7.59869910E+00 -1.51973982E+01  7.59869910E+00  7.59869910E+00 -1.51973982E+01
  7.59869910E+00  7.59869910E+00 -1.51973982E+01  7.59869910E+00  7.59869910E+00
 -1.51973982E+01  7.59869910E+00  7.59869910E+00 -1.51973982E+01  7.59869910E+00
  7.59869910E+00 -1.51973982E+01  7.59869910E+00  7.59869910E+00 -1.51973982E+01
  7.59869910E+00  7.59869910E+00 -1.51973982E+01  7.59869910E+00  7.59869910E+00
 -1.51973982E+01  7.59869910E+00  7.59869910E+00 -1.51973982E+01  7.59869910E+00
  7.59869910E+00 -1.51973982E+01  7.59869910E+00  7.59869910E+00 -1.51973982E+01
  7.59869910E+00  7.59869910E+00 -1.51973982E+01  7.59869910E+00  7.59869910E+00
 -1.51973982E+01  7.59869910E+00  7.59869910E+00 -1.51973982E+01  7.59869910E+00
  7.59869910E+00 -1.51973982E+01  7.59869910E+00  7.59869910E+00 -1.51973982E+01
  7.59869910E+00  7.59869910E+00 -1.51973982E+01  7.59869910E+00  7.59869910E+00
 -1.51973982E+01  7.59869910E+00  7.59869910E+00 -1.51973982E+01  7.59869910E+00
  7.59869910E+00 -1.51973982E+01  7.59869910E+00  7.59869910E+00 -1.51973982E+01
  7.59869910E+00  7.59869910E+00 -1.51973982E+01  7.59869910E+00  7.59869910E+00
 -1.51973982E+01  7.59869910E+00  7.59869910E+00 -1.51973982E+01  7.59869910E+00
  7.59869910E+00 -1.51973982E+01  7.59869910E+00  7.59869910E+00 -1.51973982E+01
  7.59869910E+00  7.59869910E+00 -1.51973982E+01  7.59869910E+00  7.59869910E+00
 -1.51973982E+01  7.59869910E+00  7.59869910E+00 -1.51973982E+01  7.59869910E+00
  7.59869910E+00 -1.51973982E+01  7.59869910E+00  7.59869910E+00 -1.51973982E+01
  7.59869910E+00  7.59869910E+00 -1.51973982E+01  7.59869910E+00  7.59869910E+00
 -1.51973982E+01  7.59869910E+00  7.59869910E+00 -1.51973982E+01  7.59869910E+00
  7.59869910E+00 -1.51973982E+01  7.59869910E+00  7.59869910E+00 -1.51973982E+01
  7.59869910E+00  7.59869910E+00 -1.51973982E+01  7.59869910E+00  7.59869910E+00
 -1.51973982E+01  7.59869910E+00  7.59869910E+00 -1.51973982E+01  7.59869910E+00
  7.59869910E+00 -1.51973982E+01  7.59869910E+00  7.59869910E+00 -1.51973982E+01
  7.59869910E+00  7.59869910E+00 -1.51973982E+01  7.59869910E+00  7.59869910E+00
 -1.51973982E+01  7.59869910E+00  7.59869910E+00 -1.51973982E+01  7.59869910E+00
  7.59869910E+00 -1.51973982E+01  7.59869910E+00  7.59869910E+00 -1.51973982E+01
  7.59869910E+00  7.59869910E+00 -1.51973982E+01  7.59869910E+00  7.59869910E+00
 -1.51973982E+01  7.59869910E+00  7.59869910E+00 -1.51973982E+01  7.59869910E+00
  7.59869910E+00 -1.51973982E+01  7.59869910E+00  7.59869910E+00 -1.51973982E+01
  7.59869910E+00  7.59869910E+00 -1.51973982E+01  7.59869910E+00  7.59869910E+00
 -1.51973982E+01  7.59869910E+00  7.59869910E+00 -1.51973982E+01  7.59869910E+00
  7.59869910E+00 -1.51973982E+01  7.59869910E+00  7.59869910E+00 -1.51973982E+01
  7.59869910E+00  7.59869910E+00 -1.51973982E+01  7.59869910E+00  7.59869910E+00
 -1.51973982E+01  7.59869910E+00  7.59869910E+00 -1.51973982E+01  7.59869910E+00
  7.59869910E+00 -1.51973982E+01  7.59869910E+00  7.59869910E+00 -1.51973982E+01
  7.59869910E+00  7.59869910E+00 -1.51973982E+01  7.59869910E+00  7.59869910E+00
 -1.51973982E+01  7.59869910E+00  7.59869910E+00 -1.51973982E+01  7.59869910E+00
  7.59869910E+00 -1.51973982E+01  7.59869910E+00  7.59869910E+00 -1.51973982E+01
  7.59869910E+00  7.59869910E+00 -1.51973982E+01  7.59869910E+00  7.59869910E+00
 -1.51973982E+01  7.59869910E+00  7.59869910E+00 -1.51973982E+01  7.59869910E+00
  7.59869910E+00 -1.51973982E+01  7.59869910E+00  7.59869910E+00 -1.51973982E+01
  7.59869910E+00  7.59869910E+00 -1.51973982E+01  7.59869910E+00  7.59869910E+00
 -1.51973982E+01  7.59869910E+00  7.59869910E+00 -1.51973982E+01  7.59869910E+00
  7.59869910E+00 -1.51973982E+01  7.59869910E+00  7.59869910E+00 -1.51973982E+01
  7.59869910E+00  7.59869910E+00 -1.51973982E+01  7.59869910E+00  7.59869910E+00
 -1.51973982E+01  7.59869910E+00  7.59869910E+00 -1.51973982E+01  7.59869910E+00
  7.59869910E+00 -1.51973982E+01  7.59869910E+00  7.59869910E+00 -1.51973982E+01
  7.59869910E+00  7.59869910E+00 -1.51973982E+01  7.59869910E+00  7.59869910E+00
 -1.51973982E+01  7.59869910E+00  7.59869910E+00 -1.51973982E+01  7.59869910E+00
  7.59869910E+00 -1.51973982E+01  7.59869910E+00  7.59869910E+00 -1.51973982E+01
  7.59869910E+00  7.59869910E+00 -1.51973982E+01  7.59869910E+00  7.59869910E+00
 -1.51973982E+01  7.59869910E+00  7.59869910E+00 -1.51973982E+01  7.59869910E+00
  7.59869910E+00 -1.51973982E+01  7.59869910E+00  7.59869910E+00 -1.51973982E+01
  7.59869910E+00  7.59869910E+00 -1.51973982E+01  7.59869910E+00  7.59869910E+00
 -1.51973982E+01  7.59869910E+00  7.59869910E+00 -1.51973982E+01  7.59869910E+00
  7.59869910E+00 -1.51973982E+01  7.59869910E+00  7.59869910E+00 -1.51973982E+01
  7.59869910E+00  7.59869910E+00 -1.51973982E+01  7.59869910E+00  7.59869910E+00
 -1.51973982E+01  7.59869910E+00  7.59869910E+00 -1.51973982E+01  7.59869910E+00
  7.59869910E+00 -1.51973982E+01  7.59869910E+00  7.59869910E+00 -1.51973982E+01
  7.59869910E+00  7.59869910E+00 -1.51973982E+01  7.59869910E+00  7.59869910E+00
 -1.51973982E+01  7.59869910E+00  7.59869910E+00 -1.51973982E+01  7.59869910E+00
  7.59869910E+00 -1.51973982E+01  7.59869910E+00  7.59869910E+00 -1.51973982E+01
  7.59869910E+00  7.59869910E+00 -1.51973982E+01  7.59869910E+00  7.59869910E+00
 -1.51973982E+01  7.59869910E+00  7.59869910E+00 -1.51973982E+01  7.59869910E+00
  7.59869910E+00 -1.51973982E+01  7.59869910E+00  7.59869910E+00 -1.51973982E+01
  7.59869910E+00  7.59869910E+00 -1.51973982E+01  7.59869910E+00  7.59869910E+00
 -1.51973982E+01  7.59869910E+00  7.59869910E+00 -1.51973982E+01  7.59869910E+00
  7.59869910E+00 -1.51973982E+01  7.59869910E+00  7.59869910E+00 -1.51973982E+01
  7.59869910E+00  7.59869910E+00 -1.51973982E+01  7.59869910E+00  7.59869910E+00
 -1.51973982E+01  7.59869910E+00  7.59869910E+00 -1.51973982E+01  7.59869910E+00
  7.59869910E+00 -1.51973982E+01  7.59869910E+00  7.59869910E+00 -1.51973982E+01
  7.59869910E+00  7.59869910E+00 -1.51973982E+01  7.59869910E+00  7.59869910E+00
 -1.51973982E+01  7.59869910E+00  7.59869910E+00 -1.51973982E+01  7.59869910E+00
  7.59869910E+00 -1.51973982E+01  7.59869910E+00  7.59869910E+00 -1.51973982E+01
  7.59869910E+00  7.59869910E+00 -1.51973982E+01  7.59869910E+00  7.59869910E+00
 -1.51973982E+01  7.59869910E+00  7.59869910E+00 -1.51973982E+01  7.59869910E+00
  7.59869910E+00 -1.51973982E+01  7.59869910E+00  7.59869910E+00 -1.51973982E+01
  7.59869910E+00  7.59869910E+00 -1.51973982E+01  7.59869910E+00  7.59869910E+00
 -1.51973982E+01  7.59869910E+00  7.59869910E+00 -1.51973982E+01  7.59869910E+00
  7.59869910E+00 -1.51973982E+01  7.59869910E+00  7.59869910E+00 -1.51973982E+01
  7.59869910E+00  7.59869910E+00 -1.51973982E+01  7.59869910E+00  7.59869910E+00
 -1.51973982E+01  7.59869910E+00  7.59869910E+00 -1.51973982E+01  7.59869910E+00
  7.59869910E+00 -1.51973982E+01  7.59869910E+00  7.59869910E+00 -1.51973982E+01
  7.59869910E+00  7.59869910E+00 -1.51973982E+01  7.59869910E+00  7.59869910E+00
 -1.51973982E+01  7.59869910E+00  7.59869910E+00 -1.51973982E+01  7.59869910E+00
  7.59869910E+00 -1.51973982E+01  7.59869910E+00  7.59869910E+00 -1.51973982E+01
  7.59869910E+00  7.59869910E+00 -1.51973982E+01  7.59869910E+00  7.59869910E+00
 -1.51973982E+01  7.59869910E+00  7.59869910E+00 -1.51973982E+01  7.59869910E+00
  7.59869910E+00 -1.51973982E+01  7.59869910E+00  7.59869910E+00 -1.51973982E+01
  7.59869910E+00  7.59869910E+00 -1.51973982E+01  7.59869910E+00  7.59869910E+00
 -1.51973982E+01  7.59869910E+00  7.59869910E+00 -1.51973982E+01  7.59869910E+00
  7.59869910E+00 -1.51973982E+01  7.59869910E+00  7.59869910E+00 -1.51973982E+01
  7.59869910E+00  7.59869910E+00 -1.51973982E+01  7.59869910E+00  7.59869910E+00
 -1.51973982E+01  7.59869910E+00  7.59869910E+00 -1.51973982E+01  7.59869910E+00
  7.59869910E+00 -1.51973982E+01  7.59869910E+00  7.59869910E+00 -1.51973982E+01
  7.59869910E+00  7.59869910E+00 -1.51973982E+01  7.59869910E+00  7.59869910E+00
 -1.51973982E+01  7.59869910E+00  7.59869910E+00 -1.51973982E+01  7.59869910E+00
  7.59869910E+00 -1.51973982E+01  7.59869910E+00  7.59869910E+00 -1.51973982E+01
  7.59869910E+00  7.59869910E+00 -1.51973982E+01  7.59869910E+00  7.59869910E+00
 -1.51973982E+01  7.59869910E+00  7.59869910E+00 -1.51973982E+01  7.59869910E+00
  7.59869910E+00 -1.51973982E+01  7.59869910E+00  7.59869910E+00 -1.51973982E+01
  7.59869910E+00  7.59869910E+00 -1.51973982E+01  7.59869910E+00  7.59869910E+00
 -1.51973982E+01  7.59869910E+00  7.59869910E+00 -1.51973982E+01  7.59869910E+00
  7.59869910E+00 -1.51973982E+01  7.59869910E+00  7.59869910E+00 -1.51973982E+01
  7.59869910E+00  7.59869910E+00 -1.51973982E+01  7.59869910E+00  7.59869910E+00
 -1.51973982E+01  7.59869910E+00  7.59869910E+00 -1.51973982E+01  7.59869910E+00
  7.59869910E+00 -1.51973982E+01  7.59869910E+00  7.59869910E+00 -1.51973982E+01
  7.59869910E+00  7.59869910E+00 -1.51973982E+01  7.59869910E+00  7.59869910E+00
 -1.51973982E+01  7.59869910E+00  7.59869910E+00 -1.51973982E+01  7.59869910E+00
  7.59869910E+00 -1.51973982E+01  7.59869910E+00  7.59869910E+00 -1.51973982E+01
  7.59869910E+00  7.59869910E+00 -1.51973982E+01  7.59869910E+00  7.59869910E+00
 -1.51973982E+01  7.59869910E+00  7.59869910E+00 -1.51973982E+01  7.59869910E+00
  7.59869910E+00 -1.51973982E+01  7.59869910E+00  7.59869910E+00 -1.51973982E+01
  7.59869910E+00  7.59869910E+00 -1.51973982E+01  7.59869910E+00  7.59869910E+00
 -1.51973982E+01  7.59869910E+00  7.59869910E+00 -1.51973982E+01  7.59869910E+00
  7.59869910E+00 -1.51973982E+01  7.59869910E+00  7.59869910E+00 -1.51973982E+01
  7.59869910E+00  7.59869910E+00 -1.51973982E+01  7.59869910E+00  7.59869910E+00
 -1.51973982E+01  7.59869910E+00  7.59869910E+00 -1.51973982E+01  7.59869910E+00
  7.59869910E+00 -1.51973982E+01  7.59869910E+00  7.59869910E+00 -1.51973982E+01
  7.59869910E+00  7.59869910E+00 -1.51973982E+01  7.59869910E+00  7.59869910E+00
 -1.51973982E+01  7.59869910E+00  7.59869910E+00 -1.51973982E+01  7.59869910E+00
  7.59869910E+00 -1.51973982E+01  7.59869910E+00  7.59869910E+00 -1.51973982E+01
  7.59869910E+00  7.59869910E+00 -1.51973982E+01  7.59869910E+00  7.59869910E+00
 -1.51973982E+01  7.59869910E+00  7.59869910E+00 -1.51973982E+01  7.59869910E+00
  7.59869910E+00 -1.51973982E+01  7.59869910E+00  7.59869910E+00 -1.51973982E+01
  7.59869910E+00  7.59869910E+00 -1.51973982E+01  7.59869910E+00  7.59869910E+00
 -1.51973982E+01  7.59869910E+00  7.59869910E+00 -1.51973982E+01  7.59869910E+00
  7.59869910E+00 -1.51973982E+01  7.59869910E+00  7.59869910E+00 -1.51973982E+01
  7.59869910E+00  7.59869910E+00 -1.51973982E+01  7.59869910E+00  7.59869910E+00
 -1.51973982E+01  7.59869910E+00  7.59869910E+00 -1.51973982E+01  7.59869910E+00
  7.59869910E+00 -1.51973982E+01  7.59869910E+00  7.59869910E+00 -1.51973982E+01
  7.59869910E+00  7.59869910E+00 -1.51973982E+01  7.59869910E+00  7.59869910E+00
 -1.51973982E+01  7.59869910E+00  7.59869910E+00 -1.51973982E+01  7.59869910E+00
  7.59869910E+00 -1.51973982E+01  7.59869910E+00  7.59869910E+00 -1.51973982E+01
  7.59869910E+00  7.59869910E+00 -1.51973982E+01  7.59869910E+00  7.59869910E+00
 -1.51973982E+01  7.59869910E+00  7.59869910E+00 -1.51973982E+01  7.59869910E+00
  7.59869910E+00 -1.51973982E+01  7.59869910E+00  7.59869910E+00 -1.51973982E+01
  7.59869910E+00  7.59869910E+00 -1.51973982E+01  7.59869910E+00  7.59869910E+00
 -1.51973982E+01  7.59869910E+00  7.59869910E+00 -1.51973982E+01  7.59869910E+00
  7.59869910E+00 -1.51973982E+01  7.59869910E+00  7.59869910E+00 -1.51973982E+01
  7.59869910E+00  7.59869910E+00 -1.51973982E+01  7.59869910E+00  7.59869910E+00
 -1.51973982E+01  7.59869910E+00  7.59869910E+00 -1.51973982E+01  7.59869910E+00
  7.59869910E+00 -1.51973982E+01  7.59869910E+00  7.59869910E+00 -1.51973982E+01
  7.59869910E+00  7.59869910E+00 -1.51973982E+01  7.59869910E+00  7.59869910E+00
 -1.51973982E+01  7.59869910E+00  7.59869910E+00 -1.51973982E+01  7.59869910E+00
  7.59869910E+00 -1.51973982E+01  7.59869910E+00  7.59869910E+00 -1.51973982E+01
  7.59869910E+00  7.59869910E+00 -1.51973982E+01  7.59869910E+00  7.59869910E+00
 -1.51973982E+01  7.59869910E+00  7.59869910E+00 -1.51973982E+01  7.59869910E+00
  7.59869910E+00 -1.51973982E+01  7.59869910E+00  7.59869910E+00 -1.51973982E+01
  7.59869910E+00  7.59869910E+00 -1.51973982E+01  7.59869910E+00  7.59869910E+00
 -1.51973982E+01  7.59869910E+00  7.59869910E+00 -1.51973982E+01  7.59869910E+00
  7.59869910E+00 -1.51973982E+01  7.59869910E+00  7.59869910E+00 -1.51973982E+01
  7.59869910E+00  7.59869910E+00 -1.51973982E+01  7.59869910E+00  7.59869910E+00
 -1.51973982E+01  7.59869910E+00  7.59869910E+00 -1.51973982E+01  7.59869910E+00
  7.59869910E+00 -1.51973982E+01  7.59869910E+00  7.59869910E+00 -1.51973982E+01
  7.59869910E+00  7.59869910E+00 -1.51973982E+01  7.59869910E+00  7.59869910E+00
 -1.51973982E+01  7.59869910E+00  7.59869910E+00 -1.51973982E+01  7.59869910E+00
  7.59869910E+00 -1.51973982E+01  7.59869910E+00  7.59869910E+00 -1.51973982E+01
  7.59869910E+00  7.59869910E+00 -1.51973982E+01  7.59869910E+00  7.59869910E+00
 -1.51973982E+01  7.59869910E+00  7.59869910E+00 -1.51973982E+01  7.59869910E+00
  7.59869910E+00 -1.51973982E+01  7.59869910E+00  7.59869910E+00 -1.51973982E+01
  7.59869910E+00  7.59869910E+00 -1.51973982E+01  7.59869910E+00  7.59869910E+00
 -1.51973982E+01  7.59869910E+00  7.59869910E+00 -1.51973982E+01  7.59869910E+00
  7.59869910E+00 -1.51973982E+01  7.59869910E+00  7.59869910E+00 -1.51973982E+01
  7.59869910E+00  7.59869910E+00 -1.51973982E+01  7.59869910E+00  7.59869910E+00
 -1.51973982E+01  7.59869910E+00  7.59869910E+00 -1.51973982E+01  7.59869910E+00
  7.59869910E+00 -1.51973982E+01  7.59869910E+00  7.59869910E+00 -1.51973982E+01
  7.59869910E+00  7.59869910E+00 -1.51973982E+01  7.59869910E+00  7.59869910E+00
 -1.51973982E+01  7.59869910E+00  7.59869910E+00 -1.51973982E+01  7.59869910E+00
  7.59869910E+00 -1.51973982E+01  7.59869910E+00  7.59869910E+00 -1.51973982E+01
  7.59869910E+00  7.59869910E+00 -1.51973982E+01  7.59869910E+00  7.59869910E+00
 -1.51973982E+01  7.59869910E+00  7.59869910E+00 -1.51973982E+01  7.59869910E+00
  7.59869910E+00 -1.51973982E+01  7.59869910E+00  7.59869910E+00 -1.51973982E+01
  7.59869910E+00  7.59869910E+00 -1.51973982E+01  7.59869910E+00  7.59869910E+00
 -1.51973982E+01  7.59869910E+00  7.59869910E+00 -1.51973982E+01  7.59869910E+00
  7.59869910E+00 -1.51973982E+01  7.59869910E+00  7.59869910E+00 -1.51973982E+01
  7.59869910E+00  7.59869910E+00 -1.51973982E+01  7.59869910E+00  7.59869910E+00
 -1.51973982E+01  7.59869910E+00  7.59869910E+00 -1.51973982E+01  7.59869910E+00
  7.59869910E+00 -1.51973982E+01  7.59869910E+00  7.59869910E+00 -1.51973982E+01
  7.59869910E+00  7.59869910E+00 -1.51973982E+01  7.59869910E+00  7.59869910E+00
 -1.51973982E+01  7.59869910E+00  7.59869910E+00 -1.51973982E+01  7.59869910E+00
  7.59869910E+00 -1.51973982E+01  7.59869910E+00  7.59869910E+00 -1.51973982E+01
  7.59869910E+00  7.59869910E+00 -1.51973982E+01  7.59869910E+00  7.59869910E+00
 -1.51973982E+01  7.59869910E+00  7.59869910E+00 -1.51973982E+01  7.59869910E+00
  7.59869910E+00 -1.51973982E+01  7.59869910E+00  7.59869910E+00 -1.51973982E+01
  7.59869910E+00  7.59869910E+00 -1.51973982E+01  7.59869910E+00  7.59869910E+00
 -1.51973982E+01  7.59869910E+00  7.59869910E+00 -1.51973982E+01  7.59869910E+00
  7.59869910E+00 -1.51973982E+01  7.59869910E+00  7.59869910E+00 -1.51973982E+01
  7.59869910E+00  7.59869910E+00 -1.51973982E+01  7.59869910E+00  7.59869910E+00
 -1.51973982E+01  7.59869910E+00  7.59869910E+00 -1.51973982E+01  7.59869910E+00
  7.59869910E+00 -1.51973982E+01  7.59869910E+00  7.59869910E+00 -1.51973982E+01
  7.59869910E+00  7.59869910E+00 -1.51973982E+01  7.59869910E+00  7.59869910E+00
 -1.51973982E+01  7.59869910E+00  7.59869910E+00 -1.51973982E+01  7.59869910E+00
  7.59869910E+00 -1.51973982E+01  7.59869910E+00  7.59869910E+00 -1.51973982E+01
  7.59869910E+00  7.59869910E+00 -1.51973982E+01  7.59869910E+00  7.59869910E+00
 -1.51973982E+01  7.59869910E+00  7.59869910E+00 -1.51973982E+01  7.59869910E+00
  7.59869910E+00 -1.51973982E+01  7.59869910E+00  7.59869910E+00 -1.51973982E+01
  7.59869910E+00  7.59869910E+00 -1.51973982E+01  7.59869910E+00  7.59869910E+00
 -1.51973982E+01  7.59869910E+00  7.59869910E+00 -1.51973982E+01  7.59869910E+00
  7.59869910E+00 -1.51973982E+01  7.59869910E+00  7.59869910E+00 -1.51973982E+01
  7.59869910E+00  7.59869910E+00 -1.51973982E+01  7.59869910E+00  7.59869910E+00
 -1.51973982E+01  7.59869910E+00  7.59869910E+00 -1.51973982E+01  7.59869910E+00
  7.59869910E+00 -1.51973982E+01  7.59869910E+00  7.59869910E+00 -1.51973982E+01
  7.59869910E+00  7.59869910E+00 -1.51973982E+01  7.59869910E+00  7.59869910E+00
 -1.51973982E+01  7.59869910E+00  7.59869910E+00 -1.51973982E+01  7.59869910E+00
  7.59869910E+00 -1.51973982E+01  7.59869910E+00  7.59869910E+00 -1.51973982E+01
  7.59869910E+00  7.59869910E+00 -1.51973982E+01  7.59869910E+00  7.59869910E+00
 -1.51973982E+01  7.59869910E+00  7.59869910E+00 -1.51973982E+01  7.59869910E+00
  7.59869910E+00 -1.51973982E+01  7.59869910E+00  7.59869910E+00 -1.51973982E+01
  7.59869910E+00  7.59869910E+00 -1.51973982E+01  7.59869910E+00  7.59869910E+00
 -1.51973982E+01  7.59869910E+00  7.59869910E+00 -1.51973982E+01  7.59869910E+00
  7.59869910E+00 -1.51973982E+01  7.59869910E+00  7.59869910E+00 -1.51973982E+01
  7.59869910E+00  7.59869910E+00 -1.51973982E+01  7.59869910E+00  7.59869910E+00
 -1.51973982E+01  7.59869910E+00  7.59869910E+00 -1.51973982E+01  7.59869910E+00
  7.59869910E+00 -1.51973982E+01  7.59869910E+00  7.59869910E+00 -1.51973982E+01
  7.59869910E+00  7.59869910E+00 -1.51973982E+01  7.59869910E+00  7.59869910E+00
 -1.51973982E+01  7.59869910E+00  7.59869910E+00 -1.51973982E+01  7.59869910E+00
  7.59869910E+00 -1.51973982E+01  7.59869910E+00  7.59869910E+00 -1.51973982E+01
  7.59869910E+00  7.59869910E+00 -1.51973982E+01  7.59869910E+00  7.59869910E+00
 -1.51973982E+01  7.59869910E+00  7.59869910E+00 -1.51973982E+01  7.59869910E+00
  7.59869910E+00 -1.51973982E+01  7.59869910E+00  7.59869910E+00 -1.51973982E+01
  7.59869910E+00  7.59869910E+00 -1.51973982E+01  7.59869910E+00  7.59869910E+00
 -1.51973982E+01  7.59869910E+00  7.59869910E+00 -1.51973982E+01  7.59869910E+00
  7.59869910E+00 -1.51973982E+01  7.59869910E+00  7.59869910E+00 -1.51973982E+01
  7.59869910E+00  7.59869910E+00 -1.51973982E+01  7.59869910E+00  7.59869910E+00
 -1.51973982E+01  7.59869910E+00  7.59869910E+00 -1.51973982E+01  7.59869910E+00
  7.59869910E+00 -1.51973982E+01  7.59869910E+00  7.59869910E+00 -1.51973982E+01
  7.59869910E+00  7.59869910E+00 -1.51973982E+01  7.59869910E+00  7.59869910E+00
 -1.51973982E+01  7.59869910E+00  7.59869910E+00 -1.51973982E+01  7.59869910E+00
  7.59869910E+00 -1.51973982E+01  7.59869910E+00  7.59869910E+00 -1.51973982E+01
  7.59869910E+00  7.59869910E+00 -1.51973982E+01  7.59869910E+00  7.59869910E+00
 -1.51973982E+01  7.59869910E+00  7.59869910E+00 -1.51973982E+01  7.59869910E+00
  7.59869910E+00 -1.51973982E+01  7.59869910E+00  7.59869910E+00 -1.51973982E+01
  7.59869910E+00  7.59869910E+00 -1.51973982E+01  7.59869910E+00  7.59869910E+00
 -1.51973982E+01  7.59869910E+00  7.59869910E+00 -1.51973982E+01  7.59869910E+00
  7.59869910E+00 -1.51973982E+01  7.59869910E+00  7.59869910E+00 -1.51973982E+01
  7.59869910E+00  7.59869910E+00 -1.51973982E+01  7.59869910E+00  7.59869910E+00
 -1.51973982E+01  7.59869910E+00  7.59869910E+00 -1.51973982E+01  7.59869910E+00
  7.59869910E+00 -1.51973982E+01  7.59869910E+00  7.59869910E+00 -1.51973982E+01
  7.59869910E+00  7.59869910E+00 -1.51973982E+01  7.59869910E+00  7.59869910E+00
 -1.51973982E+01  7.59869910E+00  7.59869910E+00 -1.51973982E+01  7.59869910E+00
  7.59869910E+00 -1.51973982E+01  7.59869910E+00  7.59869910E+00 -1.51973982E+01
  7.59869910E+00  7.59869910E+00 -1.51973982E+01  7.59869910E+00  7.59869910E+00
 -1.51973982E+01  7.59869910E+00  7.59869910E+00 -1.51973982E+01  7.59869910E+00
  7.59869910E+00 -1.51973982E+01  7.59869910E+00  7.59869910E+00 -1.51973982E+01
  7.59869910E+00  7.59869910E+00 -1.51973982E+01  7.59869910E+00  7.59869910E+00
 -1.51973982E+01  7.59869910E+00  7.59869910E+00 -1.51973982E+01  7.59869910E+00
  7.59869910E+00 -1.51973982E+01  7.59869910E+00  7.59869910E+00 -1.51973982E+01
  7.59869910E+00  7.59869910E+00 -1.51973982E+01  7.59869910E+00  7.59869910E+00
 -1.51973982E+01  7.59869910E+00  7.59869910E+00 -1.51973982E+01  7.59869910E+00
  7.59869910E+00 -1.51973982E+01  7.59869910E+00  7.59869910E+00 -1.51973982E+01
  7.59869910E+00  7.59869910E+00 -1.51973982E+01  7.59869910E+00  7.59869910E+00
 -1.51973982E+01  7.59869910E+00  7.59869910E+00 -1.51973982E+01  7.59869910E+00
  7.59869910E+00 -1.51973982E+01  7.59869910E+00  7.59869910E+00 -1.51973982E+01
  7.59869910E+00  7.59869910E+00 -1.51973982E+01  7.59869910E+00  7.59869910E+00
 -1.51973982E+01  7.59869910E+00  7.59869910E+00 -1.51973982E+01  7.59869910E+00
  7.59869910E+00 -1.51973982E+01  7.59869910E+00  7.59869910E+00 -1.51973982E+01
  7.59869910E+00  7.59869910E+00 -1.51973982E+01  7.59869910E+00  7.59869910E+00
 -1.51973982E+01  7.59869910E+00  7.59869910E+00 -1.51973982E+01  7.59869910E+00
  7.59869910E+00 -1.51973982E+01  7.59869910E+00  7.59869910E+00 -1.51973982E+01
  7.59869910E+00  7.59869910E+00 -1.51973982E+01  7.59869910E+00  7.59869910E+00
 -1.51973982E+01  7.59869910E+00  7.59869910E+00 -1.51973982E+01  7.59869910E+00
  7.59869910E+00 -1.51973982E+01  7.59869910E+00  7.59869910E+00 -1.51973982E+01
  7.59869910E+00  7.59869910E+00 -1.51973982E+01  7.59869910E+00  7.59869910E+00
 -1.51973982E+01  7.59869910E+00  7.59869910E+00 -1.51973982E+01  7.59869910E+00
  7.59869910E+00 -1.51973982E+01  7.59869910E+00  7.59869910E+00 -1.51973982E+01
  7.59869910E+00  7.59869910E+00 -1.51973982E+01  7.59869910E+00  7.59869910E+00
 -1.51973982E+01  7.59869910E+00  7.59869910E+00 -1.51973982E+01  7.59869910E+00
  7.59869910E+00 -1.51973982E+01  7.59869910E+00  7.59869910E+00 -1.51973982E+01
  7.59869910E+00  7.59869910E+00 -1.51973982E+01  7.59869910E+00  7.59869910E+00
 -1.51973982E+01  7.59869910E+00  7.59869910E+00 -1.51973982E+01  7.59869910E+00
  7.59869910E+00 -1.51973982E+01  7.59869910E+00  7.59869910E+00 -1.51973982E+01
  7.59869910E+00  7.59869910E+00 -1.51973982E+01  7.59869910E+00  7.59869910E+00
 -1.51973982E+01  7.59869910E+00  7.59869910E+00 -1.51973982E+01  7.59869910E+00
  7.59869910E+00 -1.51973982E+01  7.59869910E+00  7.59869910E+00 -1.51973982E+01
  7.59869910E+00  7.59869910E+00 -1.51973982E+01  7.59869910E+00  7.59869910E+00
 -1.51973982E+01  7.59869910E+00  7.59869910E+00 -1.51973982E+01  7.59869910E+00
  7.59869910E+00 -1.51973982E+01  7.59869910E+00  7.59869910E+00 -1.51973982E+01
  7.59869910E+00  7.59869910E+00 -1.51973982E+01  7.59869910E+00  7.59869910E+00
 -1.51973982E+01  7.59869910E+00  7.59869910E+00 -1.51973982E+01  7.59869910E+00
  7.59869910E+00 -1.51973982E+01  7.59869910E+00  7.59869910E+00 -1.51973982E+01
  7.59869910E+00  7.59869910E+00 -1.51973982E+01  7.59869910E+00  7.59869910E+00
 -1.51973982E+01  7.59869910E+00  7.59869910E+00 -1.51973982E+01  7.59869910E+00
  7.59869910E+00 -1.51973982E+01  7.59869910E+00  7.59869910E+00 -1.51973982E+01
  7.59869910E+00  7.59869910E+00 -1.51973982E+01  7.59869910E+00  7.59869910E+00
 -1.51973982E+01  7.59869910E+00  7.59869910E+00 -1.51973982E+01  7.59869910E+00
  7.59869910E+00 -1.51973982E+01  7.59869910E+00  7.59869910E+00 -1.51973982E+01
  7.59869910E+00  7.59869910E+00 -1.51973982E+01  7.59869910E+00  7.59869910E+00
 -1.51973982E+01  7.59869910E+00  7.59869910E+00 -1.51973982E+01  7.59869910E+00
  7.59869910E+00 -1.51973982E+01  7.59869910E+00  7.59869910E+00 -1.51973982E+01
  7.59869910E+00  7.59869910E+00 -1.51973982E+01  7.59869910E+00  7.59869910E+00
 -1.51973982E+01  7.59869910E+00  7.59869910E+00 -1.51973982E+01  7.59869910E+00
  7.59869910E+00 -1.51973982E+01  7.59869910E+00  7.59869910E+00 -1.51973982E+01
  7.59869910E+00  7.59869910E+00 -1.51973982E+01  7.59869910E+00  7.59869910E+00
 -1.51973982E+01  7.59869910E+00  7.59869910E+00 -1.51973982E+01  7.59869910E+00
  7.59869910E+00 -1.51973982E+01  7.59869910E+00  7.59869910E+00 -1.51973982E+01
  7.59869910E+00  7.59869910E+00 -1.51973982E+01  7.59869910E+00  7.59869910E+00
 -1.51973982E+01  7.59869910E+00  7.59869910E+00 -1.51973982E+01  7.59869910E+00
  7.59869910E+00 -1.51973982E+01  7.59869910E+00  7.59869910E+00 -1.51973982E+01
  7.59869910E+00  7.59869910E+00 -1.51973982E+01  7.59869910E+00  7.59869910E+00
 -1.51973982E+01  7.59869910E+00  7.59869910E+00 -1.51973982E+01  7.59869910E+00
  7.59869910E+00 -1.51973982E+01  7.59869910E+00  7.59869910E+00 -1.51973982E+01
  7.59869910E+00  7.59869910E+00 -1.51973982E+01  7.59869910E+00  7.59869910E+00
 -1.51973982E+01  7.59869910E+00  7.59869910E+00 -1.51973982E+01  7.59869910E+00
  7.59869910E+00 -1.51973982E+01  7.59869910E+00  7.59869910E+00 -1.51973982E+01
  7.59869910E+00  7.59869910E+00 -1.51973982E+01  7.59869910E+00  7.59869910E+00
 -1.51973982E+01  7.59869910E+00  7.59869910E+00 -1.51973982E+01  7.59869910E+00
  7.59869910E+00 -1.51973982E+01  7.59869910E+00  7.59869910E+00 -1.51973982E+01
  7.59869910E+00  7.59869910E+00 -1.51973982E+01  7.59869910E+00  7.59869910E+00
 -1.51973982E+01  7.59869910E+00  7.59869910E+00 -1.51973982E+01  7.59869910E+00
  7.59869910E+00 -1.51973982E+01  7.59869910E+00  7.59869910E+00 -1.51973982E+01
  7.59869910E+00  7.59869910E+00 -1.51973982E+01  7.59869910E+00  7.59869910E+00
 -1.51973982E+01  7.59869910E+00  7.59869910E+00 -1.51973982E+01  7.59869910E+00
  7.59869910E+00 -1.51973982E+01  7.59869910E+00  7.59869910E+00 -1.51973982E+01
  7.59869910E+00  7.59869910E+00 -1.51973982E+01  7.59869910E+00  7.59869910E+00
 -1.51973982E+01  7.59869910E+00  7.59869910E+00 -1.51973982E+01  7.59869910E+00
  7.59869910E+00 -1.51973982E+01  7.59869910E+00  7.59869910E+00 -1.51973982E+01
  7.59869910E+00  7.59869910E+00 -1.51973982E+01  7.59869910E+00  7.59869910E+00
 -1.51973982E+01  7.59869910E+00  7.59869910E+00 -1.51973982E+01  7.59869910E+00
  7.59869910E+00 -1.51973982E+01  7.59869910E+00  7.59869910E+00 -1.51973982E+01
  7.59869910E+00  7.59869910E+00 -1.51973982E+01  7.59869910E+00  7.59869910E+00
 -1.51973982E+01  7.59869910E+00  7.59869910E+00 -1.51973982E+01  7.59869910E+00
  7.59869910E+00 -1.51973982E+01  7.59869910E+00  7.59869910E+00 -1.51973982E+01
  7.59869910E+00  7.59869910E+00 -1.51973982E+01  7.59869910E+00  7.59869910E+00
 -1.51973982E+01  7.59869910E+00  7.59869910E+00 -1.51973982E+01  7.59869910E+00
  7.59869910E+00 -1.51973982E+01  7.59869910E+00  7.59869910E+00 -1.51973982E+01
  7.59869910E+00  7.59869910E+00 -1.51973982E+01  7.59869910E+00  7.59869910E+00
 -1.51973982E+01  7.59869910E+00  7.59869910E+00 -1.51973982E+01  7.59869910E+00
  7.59869910E+00 -1.51973982E+01  7.59869910E+00  7.59869910E+00 -1.51973982E+01
  7.59869910E+00  7.59869910E+00 -1.51973982E+01  7.59869910E+00  7.59869910E+00
 -1.51973982E+01  7.59869910E+00  7.59869910E+00 -1.51973982E+01  7.59869910E+00
  7.59869910E+00 -1.51973982E+01  7.59869910E+00  7.59869910E+00 -1.51973982E+01
  7.59869910E+00  7.59869910E+00 -1.51973982E+01  7.59869910E+00  7.59869910E+00
 -1.51973982E+01  7.59869910E+00  7.59869910E+00 -1.51973982E+01  7.59869910E+00
  7.59869910E+00 -1.51973982E+01  7.59869910E+00  7.59869910E+00 -1.51973982E+01
  7.59869910E+00  7.59869910E+00 -1.51973982E+01  7.59869910E+00  7.59869910E+00
 -1.51973982E+01  7.59869910E+00  7.59869910E+00 -1.51973982E+01  7.59869910E+00
  7.59869910E+00 -1.51973982E+01  7.59869910E+00  7.59869910E+00 -1.51973982E+01
  7.59869910E+00  7.59869910E+00 -1.51973982E+01  7.59869910E+00  7.59869910E+00
 -1.51973982E+01  7.59869910E+00  7.59869910E+00 -1.51973982E+01  7.59869910E+00
  7.59869910E+00 -1.51973982E+01  7.59869910E+00  7.59869910E+00 -1.51973982E+01
  7.59869910E+00  7.59869910E+00 -1.51973982E+01  7.59869910E+00  7.59869910E+00
 -1.51973982E+01  7.59869910E+00  7.59869910E+00 -1.51973982E+01  7.59869910E+00
  7.59869910E+00 -1.51973982E+01  7.59869910E+00  7.59869910E+00 -1.51973982E+01
  7.59869910E+00  7.59869910E+00 -1.51973982E+01  7.59869910E+00  7.59869910E+00
 -1.51973982E+01  7.59869910E+00  7.59869910E+00 -1.51973982E+01  7.59869910E+00
  7.59869910E+00 -1.51973982E+01  7.59869910E+00  7.59869910E+00 -1.51973982E+01
  7.59869910E+00  7.59869910E+00 -1.51973982E+01  7.59869910E+00  7.59869910E+00
 -1.51973982E+01  7.59869910E+00  7.59869910E+00 -1.51973982E+01  7.59869910E+00
  7.59869910E+00 -1.51973982E+01  7.59869910E+00  7.59869910E+00 -1.51973982E+01
  7.59869910E+00  7.59869910E+00 -1.51973982E+01  7.59869910E+00  7.59869910E+00
 -1.51973982E+01  7.59869910E+00  7.59869910E+00 -1.51973982E+01  7.59869910E+00
  7.59869910E+00 -1.51973982E+01  7.59869910E+00  7.59869910E+00 -1.51973982E+01
  7.59869910E+00  7.59869910E+00 -1.51973982E+01  7.59869910E+00  7.59869910E+00
 -1.51973982E+01  7.59869910E+00  7.59869910E+00 -1.51973982E+01  7.59869910E+00
  7.59869910E+00 -1.51973982E+01  7.59869910E+00  7.59869910E+00 -1.51973982E+01
  7.59869910E+00  7.59869910E+00 -1.51973982E+01  7.59869910E+00  7.59869910E+00
 -1.51973982E+01  7.59869910E+00  7.59869910E+00 -1.51973982E+01  7.59869910E+00
  7.59869910E+00 -1.51973982E+01  7.59869910E+00  7.59869910E+00 -1.51973982E+01
  7.59869910E+00  7.59869910E+00 -1.51973982E+01  7.59869910E+00  7.59869910E+00
 -1.51973982E+01  7.59869910E+00  7.59869910E+00 -1.51973982E+01  7.59869910E+00
  7.59869910E+00 -1.51973982E+01  7.59869910E+00  7.59869910E+00 -1.51973982E+01
  7.59869910E+00  7.59869910E+00 -1.51973982E+01  7.59869910E+00  7.59869910E+00
 -1.51973982E+01  7.59869910E+00  7.59869910E+00 -1.51973982E+01  7.59869910E+00
  7.59869910E+00 -1.51973982E+01  7.59869910E+00  7.59869910E+00 -1.51973982E+01
  7.59869910E+00  7.59869910E+00 -1.51973982E+01  7.59869910E+00  7.59869910E+00
 -1.51973982E+01  7.59869910E+00  7.59869910E+00 -1.51973982E+01  7.59869910E+00
  7.59869910E+00 -1.51973982E+01  7.59869910E+00  7.59869910E+00 -1.51973982E+01
  7.59869910E+00  7.59869910E+00 -1.51973982E+01  7.59869910E+00  7.59869910E+00
 -1.51973982E+01  7.59869910E+00  7.59869910E+00 -1.51973982E+01  7.59869910E+00
  7.59869910E+00 -1.51973982E+01  7.59869910E+00  7.59869910E+00 -1.51973982E+01
  7.59869910E+00  7.59869910E+00 -1.51973982E+01  7.59869910E+00  7.59869910E+00
 -1.51973982E+01  7.59869910E+00  7.59869910E+00 -1.51973982E+01  7.59869910E+00
  7.59869910E+00 -1.51973982E+01  7.59869910E+00  7.59869910E+00 -1.51973982E+01
  7.59869910E+00  7.59869910E+00 -1.51973982E+01  7.59869910E+00  7.59869910E+00
 -1.51973982E+01  7.59869910E+00  7.59869910E+00 -1.51973982E+01  7.59869910E+00
  7.59869910E+00 -1.51973982E+01  7.59869910E+00  7.59869910E+00 -1.51973982E+01
  7.59869910E+00  7.59869910E+00 -1.51973982E+01  7.59869910E+00  7.59869910E+00
 -1.51973982E+01  7.59869910E+00  7.59869910E+00 -1.51973982E+01  7.59869910E+00
  7.59869910E+00 -1.51973982E+01  7.59869910E+00  7.59869910E+00 -1.51973982E+01
  7.59869910E+00  7.59869910E+00 -1.51973982E+01  7.59869910E+00  7.59869910E+00
 -1.51973982E+01  7.59869910E+00  7.59869910E+00 -1.51973982E+01  7.59869910E+00
  7.59869910E+00 -1.51973982E+01  7.59869910E+00  7.59869910E+00 -1.51973982E+01
  7.59869910E+00  7.59869910E+00 -1.51973982E+01  7.59869910E+00  7.59869910E+00
 -1.51973982E+01  7.59869910E+00  7.59869910E+00 -1.51973982E+01  7.59869910E+00
  7.59869910E+00 -1.51973982E+01  7.59869910E+00  7.59869910E+00 -1.51973982E+01
  7.59869910E+00  7.59869910E+00 -1.51973982E+01  7.59869910E+00  7.59869910E+00
 -1.51973982E+01  7.59869910E+00  7.59869910E+00 -1.51973982E+01  7.59869910E+00
  7.59869910E+00 -1.51973982E+01  7.59869910E+00  7.59869910E+00 -1.51973982E+01
  7.59869910E+00  7.59869910E+00 -1.51973982E+01  7.59869910E+00  7.59869910E+00
 -1.51973982E+01  7.59869910E+00  7.59869910E+00 -1.51973982E+01  7.59869910E+00
  7.59869910E+00 -1.51973982E+01  7.59869910E+00  7.59869910E+00 -1.51973982E+01
  7.59869910E+00  7.59869910E+00 -1.51973982E+01  7.59869910E+00  7.59869910E+00
 -1.51973982E+01  7.59869910E+00  7.59869910E+00 -1.51973982E+01  7.59869910E+00
  7.59869910E+00 -1.51973982E+01  7.59869910E+00  7.59869910E+00 -1.51973982E+01
  7.59869910E+00  7.59869910E+00 -1.51973982E+01  7.59869910E+00  7.59869910E+00
 -1.51973982E+01  7.59869910E+00  7.59869910E+00 -1.51973982E+01  7.59869910E+00
  7.59869910E+00 -1.51973982E+01  7.59869910E+00  7.59869910E+00 -1.51973982E+01
  7.59869910E+00  7.59869910E+00 -1.51973982E+01  7.59869910E+00  7.59869910E+00
 -1.51973982E+01  7.59869910E+00  7.59869910E+00 -1.51973982E+01  7.59869910E+00
  7.59869910E+00 -1.51973982E+01  7.59869910E+00  7.59869910E+00 -1.51973982E+01
  7.59869910E+00  7.59869910E+00 -1.51973982E+01  7.59869910E+00  7.59869910E+00
 -1.51973982E+01  7.59869910E+00  7.59869910E+00 -1.51973982E+01  7.59869910E+00
  7.59869910E+00 -1.51973982E+01  7.59869910E+00  7.59869910E+00 -1.51973982E+01
  7.59869910E+00  7.59869910E+00 -1.51973982E+01  7.59869910E+00  7.59869910E+00
 -1.51973982E+01  7.59869910E+00  7.59869910E+00 -1.51973982E+01  7.59869910E+00
  7.59869910E+00 -1.51973982E+01  7.59869910E+00  7.59869910E+00 -1.51973982E+01
  7.59869910E+00  7.59869910E+00 -1.51973982E+01  7.59869910E+00  7.59869910E+00
 -1.51973982E+01  7.59869910E+00  7.59869910E+00 -1.51973982E+01  7.59869910E+00
  7.59869910E+00 -1.51973982E+01  7.59869910E+00  7.59869910E+00 -1.51973982E+01
  7.59869910E+00  7.59869910E+00 -1.51973982E+01  7.59869910E+00  7.59869910E+00
 -1.51973982E+01  7.59869910E+00  7.59869910E+00 -1.51973982E+01  7.59869910E+00
  7.59869910E+00 -1.51973982E+01  7.59869910E+00  7.59869910E+00 -1.51973982E+01
  7.59869910E+00  7.59869910E+00 -1.51973982E+01  7.59869910E+00  7.59869910E+00
 -1.51973982E+01  7.59869910E+00  7.59869910E+00 -1.51973982E+01  7.59869910E+00
  7.59869910E+00 -1.51973982E+01  7.59869910E+00  7.59869910E+00 -1.51973982E+01
  7.59869910E+00  7.59869910E+00 -1.51973982E+01  7.59869910E+00  7.59869910E+00
 -1.51973982E+01  7.59869910E+00  7.59869910E+00 -1.51973982E+01  7.59869910E+00
  7.59869910E+00 -1.51973982E+01  7.59869910E+00  7.59869910E+00 -1.51973982E+01
  7.59869910E+00  7.59869910E+00 -1.51973982E+01  7.59869910E+00  7.59869910E+00
 -1.51973982E+01  7.59869910E+00  7.59869910E+00 -1.51973982E+01  7.59869910E+00
  7.59869910E+00 -1.51973982E+01  7.59869910E+00  7.59869910E+00 -1.51973982E+01
  7.59869910E+00  7.59869910E+00 -1.51973982E+01  7.59869910E+00  7.59869910E+00
 -1.51973982E+01  7.59869910E+00  7.59869910E+00 -1.51973982E+01  7.59869910E+00
  7.59869910E+00 -1.51973982E+01  7.59869910E+00  7.59869910E+00 -1.51973982E+01
  7.59869910E+00  7.59869910E+00 -1.51973982E+01  7.59869910E+00  7.59869910E+00
 -1.51973982E+01  7.59869910E+00  7.59869910E+00 -1.51973982E+01  7.59869910E+00
  7.59869910E+00 -1.51973982E+01  7.59869910E+00  7.59869910E+00 -1.51973982E+01
  7.59869910E+00  7.59869910E+00 -1.51973982E+01  7.59869910E+00  7.59869910E+00
 -1.51973982E+01  7.59869910E+00  7.59869910E+00 -1.51973982E+01  7.59869910E+00
  7.59869910E+00 -1.51973982E+01  7.59869910E+00  7.59869910E+00 -1.51973982E+01
  7.59869910E+00  7.59869910E+00 -1.51973982E+01  7.59869910E+00  7.59869910E+00
 -1.51973982E+01  7.59869910E+00  7.59869910E+00 -1.51973982E+01  7.59869910E+00
  7.59869910E+00 -1.51973982E+01  7.59869910E+00  7.59869910E+00 -1.51973982E+01
  7.59869910E+00  7.59869910E+00 -1.51973982E+01  7.59869910E+00  7.59869910E+00
 -1.51973982E+01  7.59869910E+00  7.59869910E+00 -1.51973982E+01  7.59869910E+00
  7.59869910E+00 -1.51973982E+01  7.59869910E+00  7.59869910E+00 -1.51973982E+01
  7.59869910E+00  7.59869910E+00 -1.51973982E+01  7.59869910E+00  7.59869910E+00
 -1.51973982E+01  7.59869910E+00  7.59869910E+00 -1.51973982E+01  7.59869910E+00
  7.59869910E+00 -1.51973982E+01  7.59869910E+00  7.59869910E+00 -1.51973982E+01
  7.59869910E+00  7.59869910E+00 -1.51973982E+01  7.59869910E+00  7.59869910E+00
 -1.51973982E+01  7.59869910E+00  7.59869910E+00 -1.51973982E+01  7.59869910E+00
  7.59869910E+00 -1.51973982E+01  7.59869910E+00  7.59869910E+00 -1.51973982E+01
  7.59869910E+00  7.59869910E+00 -1.51973982E+01  7.59869910E+00  7.59869910E+00
 -1.51973982E+01  7.59869910E+00  7.59869910E+00 -1.51973982E+01  7.59869910E+00
  7.59869910E+00 -1.51973982E+01  7.59869910E+00  7.59869910E+00 -1.51973982E+01
  7.59869910E+00  7.59869910E+00 -1.51973982E+01  7.59869910E+00  7.59869910E+00
 -1.51973982E+01  7.59869910E+00  7.59869910E+00 -1.51973982E+01  7.59869910E+00
  7.59869910E+00 -1.51973982E+01  7.59869910E+00  7.59869910E+00 -1.51973982E+01
  7.59869910E+00  7.59869910E+00 -1.51973982E+01  7.59869910E+00  7.59869910E+00
 -1.51973982E+01  7.59869910E+00  7.59869910E+00 -1.51973982E+01  7.59869910E+00
  7.59869910E+00 -1.51973982E+01  7.59869910E+00  7.59869910E+00 -1.51973982E+01
  7.59869910E+00  7.59869910E+00 -1.51973982E+01  7.59869910E+00  7.59869910E+00
 -1.51973982E+01  7.59869910E+00  7.59869910E+00 -1.51973982E+01  7.59869910E+00
  7.59869910E+00 -1.51973982E+01  7.59869910E+00  7.59869910E+00 -1.51973982E+01
  7.59869910E+00  7.59869910E+00 -1.51973982E+01  7.59869910E+00  7.59869910E+00
 -1.51973982E+01  7.59869910E+00  7.59869910E+00 -1.51973982E+01  7.59869910E+00
  7.59869910E+00 -1.51973982E+01  7.59869910E+00  7.59869910E+00 -1.51973982E+01
  7.59869910E+00  7.59869910E+00 -1.51973982E+01  7.59869910E+00  7.59869910E+00
 -1.51973982E+01  7.59869910E+00  7.59869910E+00 -1.51973982E+01  7.59869910E+00
  7.59869910E+00 -1.51973982E+01  7.59869910E+00  7.59869910E+00 -1.51973982E+01
  7.59869910E+00  7.59869910E+00 -1.51973982E+01  7.59869910E+00  7.59869910E+00
 -1.51973982E+01  7.59869910E+00  7.59869910E+00 -1.51973982E+01  7.59869910E+00
  7.59869910E+00 -1.51973982E+01  7.59869910E+00  7.59869910E+00 -1.51973982E+01
  7.59869910E+00  7.59869910E+00 -1.51973982E+01  7.59869910E+00  7.59869910E+00
 -1.51973982E+01  7.59869910E+00  7.59869910E+00 -1.51973982E+01  7.59869910E+00
  7.59869910E+00 -1.51973982E+01  7.59869910E+00  7.59869910E+00 -1.51973982E+01
  7.59869910E+00  7.59869910E+00 -1.51973982E+01  7.59869910E+00  7.59869910E+00
 -1.51973982E+01  7.59869910E+00  7.59869910E+00 -1.51973982E+01  7.59869910E+00
  7.59869910E+00 -1.51973982E+01  7.59869910E+00  7.59869910E+00 -1.51973982E+01
  7.59869910E+00  7.59869910E+00 -1.51973982E+01  7.59869910E+00  7.59869910E+00
 -1.51973982E+01  7.59869910E+00  7.59869910E+00 -1.51973982E+01  7.59869910E+00
  7.59869910E+00 -1.51973982E+01  7.59869910E+00  7.59869910E+00 -1.51973982E+01
  7.59869910E+00  7.59869910E+00 -1.51973982E+01  7.59869910E+00  7.59869910E+00
 -1.51973982E+01  7.59869910E+00  7.59869910E+00 -1.51973982E+01  7.59869910E+00
  7.59869910E+00 -1.51973982E+01  7.59869910E+00  7.59869910E+00 -1.51973982E+01
  7.59869910E+00  7.59869910E+00 -1.51973982E+01  7.59869910E+00  7.59869910E+00
 -1.51973982E+01  7.59869910E+00  7.59869910E+00 -1.51973982E+01  7.59869910E+00
  7.59869910E+00 -1.51973982E+01  7.59869910E+00  7.59869910E+00 -1.51973982E+01
  7.59869910E+00  7.59869910E+00 -1.51973982E+01  7.59869910E+00  7.59869910E+00
 -1.51973982E+01  7.59869910E+00  7.59869910E+00 -1.51973982E+01  7.59869910E+00
  7.59869910E+00 -1.51973982E+01  7.59869910E+00  7.59869910E+00 -1.51973982E+01
  7.59869910E+00  7.59869910E+00 -1.51973982E+01  7.59869910E+00  7.59869910E+00
 -1.51973982E+01  7.59869910E+00  7.59869910E+00 -1.51973982E+01  7.59869910E+00
  7.59869910E+00 -1.51973982E+01  7.59869910E+00  7.59869910E+00 -1.51973982E+01
  7.59869910E+00  7.59869910E+00 -1.51973982E+01  7.59869910E+00  7.59869910E+00
 -1.51973982E+01  7.59869910E+00  7.59869910E+00 -1.51973982E+01  7.59869910E+00
  7.59869910E+00 -1.51973982E+01  7.59869910E+00  7.59869910E+00 -1.51973982E+01
  7.59869910E+00  7.59869910E+00 -1.51973982E+01  7.59869910E+00  7.59869910E+00
 -1.51973982E+01  7.59869910E+00  7.59869910E+00 -1.51973982E+01  7.59869910E+00
  7.59869910E+00 -1.51973982E+01  7.59869910E+00  7.59869910E+00 -1.51973982E+01
  7.59869910E+00  7.59869910E+00 -1.51973982E+01  7.59869910E+00  7.59869910E+00
 -1.51973982E+01  7.59869910E+00  7.59869910E+00 -1.51973982E+01  7.59869910E+00
  7.59869910E+00 -1.51973982E+01  7.59869910E+00  7.59869910E+00 -1.51973982E+01
  7.59869910E+00  7.59869910E+00 -1.51973982E+01  7.59869910E+00  7.59869910E+00
 -1.51973982E+01  7.59869910E+00  7.59869910E+00 -1.51973982E+01  7.59869910E+00
  7.59869910E+00 -1.51973982E+01  7.59869910E+00  7.59869910E+00 -1.51973982E+01
  7.59869910E+00  7.59869910E+00 -1.51973982E+01  7.59869910E+00  7.59869910E+00
 -1.51973982E+01  7.59869910E+00  7.59869910E+00 -1.51973982E+01  7.59869910E+00
  7.59869910E+00 -1.51973982E+01  7.59869910E+00  7.59869910E+00 -1.51973982E+01
  7.59869910E+00  7.59869910E+00 -1.51973982E+01  7.59869910E+00  7.59869910E+00
 -1.51973982E+01  7.59869910E+00  7.59869910E+00 -1.51973982E+01  7.59869910E+00
  7.59869910E+00 -1.51973982E+01  7.59869910E+00  7.59869910E+00 -1.51973982E+01
  7.59869910E+00  7.59869910E+00 -1.51973982E+01  7.59869910E+00  7.59869910E+00
 -1.51973982E+01  7.59869910E+00  7.59869910E+00 -1.51973982E+01  7.59869910E+00
  7.59869910E+00 -1.51973982E+01  7.59869910E+00  7.59869910E+00 -1.51973982E+01
  7.59869910E+00  7.59869910E+00 -1.51973982E+01  7.59869910E+00  7.59869910E+00
 -1.51973982E+01  7.59869910E+00  7.59869910E+00 -1.51973982E+01  7.59869910E+00
  7.59869910E+00 -1.51973982E+01  7.59869910E+00  7.59869910E+00 -1.51973982E+01
  7.59869910E+00  7.59869910E+00 -1.51973982E+01  7.59869910E+00  7.59869910E+00
 -1.51973982E+01  7.59869910E+00  7.59869910E+00 -1.51973982E+01  7.59869910E+00
  7.59869910E+00 -1.51973982E+01  7.59869910E+00  7.59869910E+00 -1.51973982E+01
  7.59869910E+00  7.59869910E+00 -1.51973982E+01  7.59869910E+00  7.59869910E+00
 -1.51973982E+01  7.59869910E+00  7.59869910E+00 -1.51973982E+01  7.59869910E+00
  7.59869910E+00 -1.51973982E+01  7.59869910E+00  7.59869910E+00 -1.51973982E+01
  7.59869910E+00  7.59869910E+00 -1.51973982E+01  7.59869910E+00  7.59869910E+00
 -1.51973982E+01  7.59869910E+00  7.59869910E+00 -1.51973982E+01  7.59869910E+00
  7.59869910E+00 -1.51973982E+01  7.59869910E+00  7.59869910E+00 -1.51973982E+01
  7.59869910E+00  7.59869910E+00 -1.51973982E+01  7.59869910E+00  7.59869910E+00
 -1.51973982E+01  7.59869910E+00  7.59869910E+00 -1.51973982E+01  7.59869910E+00
  7.59869910E+00 -1.51973982E+01  7.59869910E+00  7.59869910E+00 -1.51973982E+01
  7.59869910E+00  7.59869910E+00 -1.51973982E+01  7.59869910E+00  7.59869910E+00
 -1.51973982E+01  7.59869910E+00  7.59869910E+00 -1.51973982E+01  7.59869910E+00
  7.59869910E+00 -1.51973982E+01  7.59869910E+00  7.59869910E+00 -1.51973982E+01
  7.59869910E+00  7.59869910E+00 -1.51973982E+01  7.59869910E+00  7.59869910E+00
 -1.51973982E+01  7.59869910E+00  7.59869910E+00 -1.51973982E+01  7.59869910E+00
  7.59869910E+00 -1.51973982E+01  7.59869910E+00  7.59869910E+00 -1.51973982E+01
  7.59869910E+00  7.59869910E+00 -1.51973982E+01  7.59869910E+00  7.59869910E+00
 -1.51973982E+01  7.59869910E+00  7.59869910E+00 -1.51973982E+01  7.59869910E+00
  7.59869910E+00 -1.51973982E+01  7.59869910E+00  7.59869910E+00 -1.51973982E+01
  7.59869910E+00  7.59869910E+00 -1.51973982E+01  7.59869910E+00  7.59869910E+00
 -1.51973982E+01  7.59869910E+00  7.59869910E+00 -1.51973982E+01  7.59869910E+00
  7.59869910E+00 -1.51973982E+01  7.59869910E+00  7.59869910E+00 -1.51973982E+01
  7.59869910E+00  7.59869910E+00 -1.51973982E+01  7.59869910E+00  7.59869910E+00
 -1.51973982E+01  7.59869910E+00  7.59869910E+00 -1.51973982E+01  7.59869910E+00
  7.59869910E+00 -1.51973982E+01  7.59869910E+00  7.59869910E+00 -1.51973982E+01
  7.59869910E+00  7.59869910E+00 -1.51973982E+01  7.59869910E+00  7.59869910E+00
 -1.51973982E+01  7.59869910E+00  7.59869910E+00 -1.51973982E+01  7.59869910E+00
  7.59869910E+00 -1.51973982E+01  7.59869910E+00  7.59869910E+00 -1.51973982E+01
  7.59869910E+00  7.59869910E+00 -1.51973982E+01  7.59869910E+00  7.59869910E+00
 -1.51973982E+01  7.59869910E+00  7.59869910E+00 -1.51973982E+01  7.59869910E+00
  7.59869910E+00 -1.51973982E+01  7.59869910E+00  7.59869910E+00 -1.51973982E+01
  7.59869910E+00  7.59869910E+00 -1.51973982E+01  7.59869910E+00  7.59869910E+00
 -1.51973982E+01  7.59869910E+00  7.59869910E+00 -1.51973982E+01  7.59869910E+00
  7.59869910E+00 -1.51973982E+01  7.59869910E+00  7.59869910E+00 -1.51973982E+01
  7.59869910E+00  7.59869910E+00 -1.51973982E+01  7.59869910E+00  7.59869910E+00
 -1.51973982E+01  7.59869910E+00  7.59869910E+00 -1.51973982E+01  7.59869910E+00
  7.59869910E+00 -1.51973982E+01  7.59869910E+00  7.59869910E+00 -1.51973982E+01
  7.59869910E+00  7.59869910E+00 -1.51973982E+01  7.59869910E+00  7.59869910E+00
 -1.51973982E+01  7.59869910E+00  7.59869910E+00 -1.51973982E+01  7.59869910E+00
  7.59869910E+00 -1.51973982E+01  7.59869910E+00  7.59869910E+00 -1.51973982E+01
  7.59869910E+00  7.59869910E+00 -1.51973982E+01  7.59869910E+00  7.59869910E+00
 -1.51973982E+01  7.59869910E+00  7.59869910E+00 -1.51973982E+01  7.59869910E+00
  7.59869910E+00 -1.51973982E+01  7.59869910E+00  7.59869910E+00 -1.51973982E+01
  7.59869910E+00  7.59869910E+00 -1.51973982E+01  7.59869910E+00  7.59869910E+00
 -1.51973982E+01  7.59869910E+00  7.59869910E+00 -1.51973982E+01  7.59869910E+00
  7.59869910E+00 -1.51973982E+01  7.59869910E+00  7.59869910E+00 -1.51973982E+01
  7.59869910E+00  7.59869910E+00 -1.51973982E+01  7.59869910E+00  7.59869910E+00
 -1.51973982E+01  7.59869910E+00  7.59869910E+00 -1.51973982E+01  7.59869910E+00
  7.59869910E+00 -1.51973982E+01  7.59869910E+00  7.59869910E+00 -1.51973982E+01
  7.59869910E+00  7.59869910E+00 -1.51973982E+01  7.59869910E+00  7.59869910E+00
 -1.51973982E+01  7.59869910E+00  7.59869910E+00 -1.51973982E+01  7.59869910E+00
  7.59869910E+00 -1.51973982E+01  7.59869910E+00  7.59869910E+00 -1.51973982E+01
  7.59869910E+00  7.59869910E+00 -1.51973982E+01  7.59869910E+00  7.59869910E+00
 -1.51973982E+01  7.59869910E+00  7.59869910E+00 -1.51973982E+01  7.59869910E+00
  7.59869910E+00 -1.51973982E+01  7.59869910E+00  7.59869910E+00 -1.51973982E+01
  7.59869910E+00  7.59869910E+00 -1.51973982E+01  7.59869910E+00  7.59869910E+00
 -1.51973982E+01  7.59869910E+00  7.59869910E+00 -1.51973982E+01  7.59869910E+00
  7.59869910E+00 -1.51973982E+01  7.59869910E+00  7.59869910E+00 -1.51973982E+01
  7.59869910E+00  7.59869910E+00 -1.51973982E+01  7.59869910E+00  7.59869910E+00
 -1.51973982E+01  7.59869910E+00  7.59869910E+00 -1.51973982E+01  7.59869910E+00
  7.59869910E+00 -1.51973982E+01  7.59869910E+00  7.59869910E+00 -1.51973982E+01
  7.59869910E+00  7.59869910E+00 -1.51973982E+01  7.59869910E+00  7.59869910E+00
 -1.51973982E+01  7.59869910E+00  7.59869910E+00 -1.51973982E+01  7.59869910E+00
  7.59869910E+00 -1.51973982E+01  7.59869910E+00  7.59869910E+00 -1.51973982E+01
  7.59869910E+00  7.59869910E+00 -1.51973982E+01  7.59869910E+00  7.59869910E+00
 -1.51973982E+01  7.59869910E+00  7.59869910E+00 -1.51973982E+01  7.59869910E+00
  7.59869910E+00 -1.51973982E+01  7.59869910E+00  7.59869910E+00 -1.51973982E+01
  7.59869910E+00  7.59869910E+00 -1.51973982E+01  7.59869910E+00  7.59869910E+00
 -1.51973982E+01  7.59869910E+00  7.59869910E+00 -1.51973982E+01  7.59869910E+00
  7.59869910E+00 -1.51973982E+01  7.59869910E+00  7.59869910E+00 -1.51973982E+01
  7.59869910E+00  7.59869910E+00 -1.51973982E+01  7.59869910E+00  7.59869910E+00
 -1.51973982E+01  7.59869910E+00  7.59869910E+00 -1.51973982E+01  7.59869910E+00
  7.59869910E+00 -1.51973982E+01  7.59869910E+00  7.59869910E+00 -1.51973982E+01
  7.59869910E+00  7.59869910E+00 -1.51973982E+01  7.59869910E+00  7.59869910E+00
 -1.51973982E+01  7.59869910E+00  7.59869910E+00 -1.51973982E+01  7.59869910E+00
  7.59869910E+00 -1.51973982E+01  7.59869910E+00  7.59869910E+00 -1.51973982E+01
  7.59869910E+00  7.59869910E+00 -1.51973982E+01  7.59869910E+00  7.59869910E+00
 -1.51973982E+01  7.59869910E+00  7.59869910E+00 -1.51973982E+01  7.59869910E+00
  7.59869910E+00 -1.51973982E+01  7.59869910E+00  7.59869910E+00 -1.51973982E+01
  7.59869910E+00  7.59869910E+00 -1.51973982E+01  7.59869910E+00  7.59869910E+00
 -1.51973982E+01  7.59869910E+00  7.59869910E+00 -1.51973982E+01  7.59869910E+00
  7.59869910E+00 -1.51973982E+01  7.59869910E+00  7.59869910E+00 -1.51973982E+01
  7.59869910E+00  7.59869910E+00 -1.51973982E+01  7.59869910E+00  7.59869910E+00
 -1.51973982E+01  7.59869910E+00  7.59869910E+00 -1.51973982E+01  7.59869910E+00
  7.59869910E+00 -1.51973982E+01  7.59869910E+00  7.59869910E+00 -1.51973982E+01
  7.59869910E+00  7.59869910E+00 -1.51973982E+01  7.59869910E+00  7.59869910E+00
 -1.51973982E+01  7.59869910E+00  7.59869910E+00 -1.51973982E+01  7.59869910E+00
  7.59869910E+00 -1.51973982E+01  7.59869910E+00  7.59869910E+00 -1.51973982E+01
  7.59869910E+00  7.59869910E+00 -1.51973982E+01  7.59869910E+00  7.59869910E+00
 -1.51973982E+01  7.59869910E+00  7.59869910E+00 -1.51973982E+01  7.59869910E+00
  7.59869910E+00 -1.51973982E+01  7.59869910E+00  7.59869910E+00 -1.51973982E+01
  7.59869910E+00  7.59869910E+00 -1.51973982E+01  7.59869910E+00  7.59869910E+00
 -1.51973982E+01  7.59869910E+00  7.59869910E+00 -1.51973982E+01  7.59869910E+00
  7.59869910E+00 -1.51973982E+01  7.59869910E+00  7.59869910E+00 -1.51973982E+01
  7.59869910E+00  7.59869910E+00 -1.51973982E+01  7.59869910E+00  7.59869910E+00
 -1.51973982E+01  7.59869910E+00  7.59869910E+00 -1.51973982E+01  7.59869910E+00
  7.59869910E+00 -1.51973982E+01  7.59869910E+00  7.59869910E+00 -1.51973982E+01
  7.59869910E+00  7.59869910E+00 -1.51973982E+01  7.59869910E+00  7.59869910E+00
 -1.51973982E+01  7.59869910E+00  7.59869910E+00 -1.51973982E+01  7.59869910E+00
  7.59869910E+00 -1.51973982E+01  7.59869910E+00  7.59869910E+00 -1.51973982E+01
  7.59869910E+00  7.59869910E+00 -1.51973982E+01  7.59869910E+00  7.59869910E+00
 -1.51973982E+01  7.59869910E+00  7.59869910E+00 -1.51973982E+01  7.59869910E+00
  7.59869910E+00 -1.51973982E+01  7.59869910E+00  7.59869910E+00 -1.51973982E+01
  7.59869910E+00  7.59869910E+00 -1.51973982E+01  7.59869910E+00  7.59869910E+00
 -1.51973982E+01  7.59869910E+00  7.59869910E+00 -1.51973982E+01  7.59869910E+00
  7.59869910E+00 -1.51973982E+01  7.59869910E+00  7.59869910E+00 -1.51973982E+01
  7.59869910E+00  7.59869910E+00 -1.51973982E+01  7.59869910E+00  7.59869910E+00
 -1.51973982E+01  7.59869910E+00  7.59869910E+00 -1.51973982E+01  7.59869910E+00
  7.59869910E+00 -1.51973982E+01  7.59869910E+00  7.59869910E+00 -1.51973982E+01
  7.59869910E+00  7.59869910E+00 -1.51973982E+01  7.59869910E+00  7.59869910E+00
 -1.51973982E+01  7.59869910E+00  7.59869910E+00 -1.51973982E+01  7.59869910E+00
  7.59869910E+00 -1.51973982E+01  7.59869910E+00  7.59869910E+00 -1.51973982E+01
  7.59869910E+00  7.59869910E+00 -1.51973982E+01  7.59869910E+00  7.59869910E+00
 -1.51973982E+01  7.59869910E+00  7.59869910E+00 -1.51973982E+01  7.59869910E+00
  7.59869910E+00 -1.51973982E+01  7.59869910E+00  7.59869910E+00 -1.51973982E+01
  7.59869910E+00  7.59869910E+00 -1.51973982E+01  7.59869910E+00  7.59869910E+00
 -1.51973982E+01  7.59869910E+00  7.59869910E+00 -1.51973982E+01  7.59869910E+00
  7.59869910E+00 -1.51973982E+01  7.59869910E+00  7.59869910E+00 -1.51973982E+01
  7.59869910E+00  7.59869910E+00 -1.51973982E+01  7.59869910E+00  7.59869910E+00
 -1.51973982E+01  7.59869910E+00  7.59869910E+00 -1.51973982E+01  7.59869910E+00
  7.59869910E+00 -1.51973982E+01  7.59869910E+00  7.59869910E+00 -1.51973982E+01
  7.59869910E+00  7.59869910E+00 -1.51973982E+01  7.59869910E+00  7.59869910E+00
 -1.51973982E+01  7.59869910E+00  7.59869910E+00 -1.51973982E+01  7.59869910E+00
  7.59869910E+00 -1.51973982E+01  7.59869910E+00  7.59869910E+00 -1.51973982E+01
  7.59869910E+00  7.59869910E+00 -1.51973982E+01  7.59869910E+00  7.59869910E+00
 -1.51973982E+01  7.59869910E+00  7.59869910E+00 -1.51973982E+01  7.59869910E+00
  7.59869910E+00 -1.51973982E+01  7.59869910E+00  7.59869910E+00 -1.51973982E+01
  7.59869910E+00  7.59869910E+00 -1.51973982E+01  7.59869910E+00  7.59869910E+00
 -1.51973982E+01  7.59869910E+00  7.59869910E+00 -1.51973982E+01  7.59869910E+00
  7.59869910E+00 -1.51973982E+01  7.59869910E+00  7.59869910E+00 -1.51973982E+01
  7.59869910E+00  7.59869910E+00 -1.51973982E+01  7.59869910E+00  7.59869910E+00
 -1.51973982E+01  7.59869910E+00  7.59869910E+00 -1.51973982E+01  7.59869910E+00
  7.59869910E+00 -1.51973982E+01  7.59869910E+00  7.59869910E+00 -1.51973982E+01
  7.59869910E+00  7.59869910E+00 -1.51973982E+01  7.59869910E+00  7.59869910E+00
 -1.51973982E+01  7.59869910E+00  7.59869910E+00 -1.51973982E+01  7.59869910E+00
  7.59869910E+00 -1.51973982E+01  7.59869910E+00  7.59869910E+00 -1.51973982E+01
  7.59869910E+00  7.59869910E+00 -1.51973982E+01  7.59869910E+00  7.59869910E+00
 -1.51973982E+01  7.59869910E+00  7.59869910E+00 -1.51973982E+01  7.59869910E+00
  7.59869910E+00 -1.51973982E+01  7.59869910E+00  7.59869910E+00 -1.51973982E+01
  7.59869910E+00  7.59869910E+00 -1.51973982E+01  7.59869910E+00  7.59869910E+00
 -1.51973982E+01  7.59869910E+00  7.59869910E+00 -1.51973982E+01  7.59869910E+00
  7.59869910E+00 -1.51973982E+01  7.59869910E+00  7.59869910E+00 -1.51973982E+01
  7.59869910E+00  7.59869910E+00 -1.51973982E+01  7.59869910E+00  7.59869910E+00
 -1.51973982E+01  7.59869910E+00  7.59869910E+00 -1.51973982E+01  7.59869910E+00
  7.59869910E+00 -1.51973982E+01  7.59869910E+00  7.59869910E+00 -1.51973982E+01
  7.59869910E+00  7.59869910E+00 -1.51973982E+01  7.59869910E+00  7.59869910E+00
 -1.51973982E+01  7.59869910E+00  7.59869910E+00 -1.51973982E+01  7.59869910E+00
  7.59869910E+00 -1.51973982E+01  7.59869910E+00  7.59869910E+00 -1.51973982E+01
  7.59869910E+00  7.59869910E+00 -1.51973982E+01  7.59869910E+00  7.59869910E+00
 -1.51973982E+01  7.59869910E+00  7.59869910E+00 -1.51973982E+01  7.59869910E+00
  7.59869910E+00 -1.51973982E+01  7.59869910E+00  7.59869910E+00 -1.51973982E+01
  7.59869910E+00  7.59869910E+00 -1.51973982E+01  7.59869910E+00  7.59869910E+00
 -1.51973982E+01  7.59869910E+00  7.59869910E+00 -1.51973982E+01  7.59869910E+00
  7.59869910E+00 -1.51973982E+01  7.59869910E+00  7.59869910E+00 -1.51973982E+01
  7.59869910E+00  7.59869910E+00 -1.51973982E+01  7.59869910E+00  7.59869910E+00
 -1.51973982E+01  7.59869910E+00  7.59869910E+00 -1.51973982E+01  7.59869910E+00
  7.59869910E+00 -1.51973982E+01  7.59869910E+00  7.59869910E+00 -1.51973982E+01
  7.59869910E+00  7.59869910E+00 -1.51973982E+01  7.59869910E+00  7.59869910E+00
 -1.51973982E+01  7.59869910E+00  7.59869910E+00 -1.51973982E+01  7.59869910E+00
  7.59869910E+00 -1.51973982E+01  7.59869910E+00  7.59869910E+00 -1.51973982E+01
  7.59869910E+00  7.59869910E+00 -1.51973982E+01  7.59869910E+00  7.59869910E+00
 -1.51973982E+01  7.59869910E+00  7.59869910E+00 -1.51973982E+01  7.59869910E+00
  7.59869910E+00 -1.51973982E+01  7.59869910E+00  7.59869910E+00 -1.51973982E+01
  7.59869910E+00  7.59869910E+00 -1.51973982E+01  7.59869910E+00  7.59869910E+00
 -1.51973982E+01  7.59869910E+00  7.59869910E+00 -1.51973982E+01  7.59869910E+00
  7.59869910E+00 -1.51973982E+01  7.59869910E+00  7.59869910E+00 -1.51973982E+01
  7.59869910E+00  7.59869910E+00 -1.51973982E+01  7.59869910E+00  7.59869910E+00
 -1.51973982E+01  7.59869910E+00  7.59869910E+00 -1.51973982E+01  7.59869910E+00
  7.59869910E+00 -1.51973982E+01  7.59869910E+00  7.59869910E+00 -1.51973982E+01
  7.59869910E+00  7.59869910E+00 -1.51973982E+01  7.59869910E+00  7.59869910E+00
 -1.51973982E+01  7.59869910E+00  7.59869910E+00 -1.51973982E+01  7.59869910E+00
  7.59869910E+00 -1.51973982E+01  7.59869910E+00  7.59869910E+00 -1.51973982E+01
  7.59869910E+00  7.59869910E+00 -1.51973982E+01  7.59869910E+00  7.59869910E+00
 -1.51973982E+01  7.59869910E+00  7.59869910E+00 -1.51973982E+01  7.59869910E+00
  7.59869910E+00 -1.51973982E+01  7.59869910E+00  7.59869910E+00 -1.51973982E+01
  7.59869910E+00  7.59869910E+00 -1.51973982E+01  7.59869910E+00  7.59869910E+00
 -1.51973982E+01  7.59869910E+00  7.59869910E+00 -1.51973982E+01  7.59869910E+00
  7.59869910E+00 -1.51973982E+01  7.59869910E+00  7.59869910E+00 -1.51973982E+01
  7.59869910E+00  7.59869910E+00 -1.51973982E+01  7.59869910E+00  7.59869910E+00
 -1.51973982E+01  7.59869910E+00  7.59869910E+00 -1.51973982E+01  7.59869910E+00
  7.59869910E+00 -1.51973982E+01  7.59869910E+00  7.59869910E+00 -1.51973982E+01
  7.59869910E+00  7.59869910E+00 -1.51973982E+01  7.59869910E+00  7.59869910E+00
 -1.51973982E+01  7.59869910E+00  7.59869910E+00 -1.51973982E+01  7.59869910E+00
  7.59869910E+00 -1.51973982E+01  7.59869910E+00  7.59869910E+00 -1.51973982E+01
  7.59869910E+00  7.59869910E+00 -1.51973982E+01  7.59869910E+00  7.59869910E+00
 -1.51973982E+01  7.59869910E+00  7.59869910E+00 -1.51973982E+01  7.59869910E+00
  7.59869910E+00 -1.51973982E+01  7.59869910E+00  7.59869910E+00 -1.51973982E+01
  7.59869910E+00  7.59869910E+00 -1.51973982E+01  7.59869910E+00  7.59869910E+00
 -1.51973982E+01  7.59869910E+00  7.59869910E+00 -1.51973982E+01  7.59869910E+00
  7.59869910E+00 -1.51973982E+01  7.59869910E+00  7.59869910E+00 -1.51973982E+01
  7.59869910E+00  7.59869910E+00 -1.51973982E+01  7.59869910E+00  7.59869910E+00
 -1.51973982E+01  7.59869910E+00  7.59869910E+00 -1.51973982E+01  7.59869910E+00
  7.59869910E+00 -1.51973982E+01  7.59869910E+00  7.59869910E+00 -1.51973982E+01
  7.59869910E+00  7.59869910E+00 -1.51973982E+01  7.59869910E+00  7.59869910E+00
 -1.51973982E+01  7.59869910E+00  7.59869910E+00 -1.51973982E+01  7.59869910E+00
  7.59869910E+00 -1.51973982E+01  7.59869910E+00  7.59869910E+00 -1.51973982E+01
  7.59869910E+00  7.59869910E+00 -1.51973982E+01  7.59869910E+00  7.59869910E+00
 -1.51973982E+01  7.59869910E+00  7.59869910E+00 -1.51973982E+01  7.59869910E+00
  7.59869910E+00 -1.51973982E+01  7.59869910E+00  7.59869910E+00 -1.51973982E+01
  7.59869910E+00  7.59869910E+00 -1.51973982E+01  7.59869910E+00  7.59869910E+00
 -1.51973982E+01  7.59869910E+00  7.59869910E+00 -1.51973982E+01  7.59869910E+00
  7.59869910E+00 -1.51973982E+01  7.59869910E+00  7.59869910E+00 -1.51973982E+01
  7.59869910E+00  7.59869910E+00 -1.51973982E+01  7.59869910E+00  7.59869910E+00
 -1.51973982E+01  7.59869910E+00  7.59869910E+00 -1.51973982E+01  7.59869910E+00
  7.59869910E+00 -1.51973982E+01  7.59869910E+00  7.59869910E+00 -1.51973982E+01
  7.59869910E+00  7.59869910E+00 -1.51973982E+01  7.59869910E+00  7.59869910E+00
 -1.51973982E+01  7.59869910E+00  7.59869910E+00 -1.51973982E+01  7.59869910E+00
  7.59869910E+00 -1.51973982E+01  7.59869910E+00  7.59869910E+00 -1.51973982E+01
  7.59869910E+00  7.59869910E+00 -1.51973982E+01  7.59869910E+00  7.59869910E+00
 -1.51973982E+01  7.59869910E+00  7.59869910E+00 -1.51973982E+01  7.59869910E+00
  7.59869910E+00 -1.51973982E+01  7.59869910E+00  7.59869910E+00 -1.51973982E+01
  7.59869910E+00  7.59869910E+00 -1.51973982E+01  7.59869910E+00  7.59869910E+00
 -1.51973982E+01  7.59869910E+00  7.59869910E+00 -1.51973982E+01  7.59869910E+00
  7.59869910E+00 -1.51973982E+01  7.59869910E+00  7.59869910E+00 -1.51973982E+01
  7.59869910E+00  7.59869910E+00 -1.51973982E+01  7.59869910E+00  7.59869910E+00
 -1.51973982E+01  7.59869910E+00  7.59869910E+00 -1.51973982E+01  7.59869910E+00
  7.59869910E+00 -1.51973982E+01  7.59869910E+00  7.59869910E+00 -1.51973982E+01
  7.59869910E+00  7.59869910E+00 -1.51973982E+01  7.59869910E+00  7.59869910E+00
 -1.51973982E+01  7.59869910E+00  7.59869910E+00 -1.51973982E+01  7.59869910E+00
  7.59869910E+00 -1.51973982E+01  7.59869910E+00  7.59869910E+00 -1.51973982E+01
  7.59869910E+00  7.59869910E+00 -1.51973982E+01  7.59869910E+00  7.59869910E+00
 -1.51973982E+01  7.59869910E+00  7.59869910E+00 -1.51973982E+01  7.59869910E+00
  7.59869910E+00 -1.51973982E+01  7.59869910E+00  7.59869910E+00 -1.51973982E+01
  7.59869910E+00  7.59869910E+00 -1.51973982E+01  7.59869910E+00  7.59869910E+00
 -1.51973982E+01  7.59869910E+00  7.59869910E+00 -1.51973982E+01  7.59869910E+00
  7.59869910E+00 -1.51973982E+01  7.59869910E+00  7.59869910E+00 -1.51973982E+01
  7.59869910E+00  7.59869910E+00 -1.51973982E+01  7.59869910E+00  7.59869910E+00
 -1.51973982E+01  7.59869910E+00  7.59869910E+00 -1.51973982E+01  7.59869910E+00
  7.59869910E+00 -1.51973982E+01  7.59869910E+00  7.59869910E+00 -1.51973982E+01
  7.59869910E+00  7.59869910E+00 -1.51973982E+01  7.59869910E+00  7.59869910E+00
 -1.51973982E+01  7.59869910E+00  7.59869910E+00 -1.51973982E+01  7.59869910E+00
  7.59869910E+00 -1.51973982E+01  7.59869910E+00  7.59869910E+00 -1.51973982E+01
  7.59869910E+00  7.59869910E+00 -1.51973982E+01  7.59869910E+00  7.59869910E+00
 -1.51973982E+01  7.59869910E+00  7.59869910E+00 -1.51973982E+01  7.59869910E+00
  7.59869910E+00 -1.51973982E+01  7.59869910E+00  7.59869910E+00 -1.51973982E+01
  7.59869910E+00  7.59869910E+00 -1.51973982E+01  7.59869910E+00  7.59869910E+00
 -1.51973982E+01  7.59869910E+00  7.59869910E+00 -1.51973982E+01  7.59869910E+00
  7.59869910E+00 -1.51973982E+01  7.59869910E+00  7.59869910E+00 -1.51973982E+01
  7.59869910E+00  7.59869910E+00 -1.51973982E+01  7.59869910E+00  7.59869910E+00
 -1.51973982E+01  7.59869910E+00  7.59869910E+00 -1.51973982E+01  7.59869910E+00
  7.59869910E+00 -1.51973982E+01  7.59869910E+00  7.59869910E+00 -1.51973982E+01
  7.59869910E+00  7.59869910E+00 -1.51973982E+01  7.59869910E+00  7.59869910E+00
 -1.51973982E+01  7.59869910E+00  7.59869910E+00 -1.51973982E+01  7.59869910E+00
  7.59869910E+00 -1.51973982E+01  7.59869910E+00  7.59869910E+00 -1.51973982E+01
  7.59869910E+00  7.59869910E+00 -1.51973982E+01  7.59869910E+00  7.59869910E+00
 -1.51973982E+01  7.59869910E+00  7.59869910E+00 -1.51973982E+01  7.59869910E+00
  7.59869910E+00 -1.51973982E+01  7.59869910E+00  7.59869910E+00 -1.51973982E+01
  7.59869910E+00  7.59869910E+00 -1.51973982E+01  7.59869910E+00  7.59869910E+00
 -1.51973982E+01  7.59869910E+00  7.59869910E+00 -1.51973982E+01  7.59869910E+00
  7.59869910E+00 -1.51973982E+01  7.59869910E+00  7.59869910E+00 -1.51973982E+01
  7.59869910E+00  7.59869910E+00 -1.51973982E+01  7.59869910E+00  7.59869910E+00
 -1.51973982E+01  7.59869910E+00  7.59869910E+00 -1.51973982E+01  7.59869910E+00
  7.59869910E+00 -1.51973982E+01  7.59869910E+00  7.59869910E+00 -1.51973982E+01
  7.59869910E+00  7.59869910E+00 -1.51973982E+01  7.59869910E+00  7.59869910E+00
 -1.51973982E+01  7.59869910E+00  7.59869910E+00 -1.51973982E+01  7.59869910E+00
  7.59869910E+00 -1.51973982E+01  7.59869910E+00  7.59869910E+00 -1.51973982E+01
  7.59869910E+00  7.59869910E+00 -1.51973982E+01  7.59869910E+00  7.59869910E+00
 -1.51973982E+01  7.59869910E+00  7.59869910E+00 -1.51973982E+01  7.59869910E+00
  7.59869910E+00 -1.51973982E+01  7.59869910E+00  7.59869910E+00 -1.51973982E+01
  7.59869910E+00  7.59869910E+00 -1.51973982E+01  7.59869910E+00  7.59869910E+00
 -1.51973982E+01  7.59869910E+00  7.59869910E+00 -1.51973982E+01  7.59869910E+00
  7.59869910E+00 -1.51973982E+01  7.59869910E+00  7.59869910E+00 -1.51973982E+01
  7.59869910E+00  7.59869910E+00 -1.51973982E+01  7.59869910E+00  7.59869910E+00
 -1.51973982E+01  7.59869910E+00  7.59869910E+00 -1.51973982E+01  7.59869910E+00
  7.59869910E+00 -1.51973982E+01  7.59869910E+00  7.59869910E+00 -1.51973982E+01
  7.59869910E+00  7.59869910E+00 -1.51973982E+01  7.59869910E+00  7.59869910E+00
 -1.51973982E+01  7.59869910E+00  7.59869910E+00 -1.51973982E+01  7.59869910E+00
  7.59869910E+00 -1.51973982E+01  7.59869910E+00  7.59869910E+00 -1.51973982E+01
  7.59869910E+00  7.59869910E+00 -1.51973982E+01  7.59869910E+00  7.59869910E+00
 -1.51973982E+01  7.59869910E+00  7.59869910E+00 -1.51973982E+01  7.59869910E+00
  7.59869910E+00 -1.51973982E+01  7.59869910E+00  7.59869910E+00 -1.51973982E+01
  7.59869910E+00  7.59869910E+00 -1.51973982E+01  7.59869910E+00  7.59869910E+00
 -1.51973982E+01  7.59869910E+00  7.59869910E+00 -1.51973982E+01  7.59869910E+00
  7.59869910E+00 -1.51973982E+01  7.59869910E+00  7.59869910E+00 -1.51973982E+01
  7.59869910E+00  7.59869910E+00 -1.51973982E+01  7.59869910E+00  7.59869910E+00
 -1.51973982E+01  7.59869910E+00  7.59869910E+00 -1.51973982E+01  7.59869910E+00
  7.59869910E+00 -1.51973982E+01  7.59869910E+00  7.59869910E+00 -1.51973982E+01
  7.59869910E+00  7.59869910E+00 -1.51973982E+01  7.59869910E+00  7.59869910E+00
 -1.51973982E+01  7.59869910E+00  7.59869910E+00 -1.51973982E+01  7.59869910E+00
  7.59869910E+00 -1.51973982E+01  7.59869910E+00  7.59869910E+00 -1.51973982E+01
  7.59869910E+00  7.59869910E+00 -1.51973982E+01  7.59869910E+00  7.59869910E+00
 -1.51973982E+01  7.59869910E+00  7.59869910E+00 -1.51973982E+01  7.59869910E+00
  7.59869910E+00 -1.51973982E+01  7.59869910E+00  7.59869910E+00 -1.51973982E+01
  7.59869910E+00  7.59869910E+00 -1.51973982E+01  7.59869910E+00  7.59869910E+00
 -1.51973982E+01  7.59869910E+00  7.59869910E+00 -1.51973982E+01  7.59869910E+00
  7.59869910E+00 -1.51973982E+01  7.59869910E+00  7.59869910E+00 -1.51973982E+01
  7.59869910E+00  7.59869910E+00 -1.51973982E+01  7.59869910E+00  7.59869910E+00
 -1.51973982E+01  7.59869910E+00  7.59869910E+00 -1.51973982E+01  7.59869910E+00
  7.59869910E+00 -1.51973982E+01  7.59869910E+00  7.59869910E+00 -1.51973982E+01
  7.59869910E+00  7.59869910E+00 -1.51973982E+01  7.59869910E+00  7.59869910E+00
 -1.51973982E+01  7.59869910E+00  7.59869910E+00 -1.51973982E+01  7.59869910E+00
  7.59869910E+00 -1.51973982E+01  7.59869910E+00  7.59869910E+00 -1.51973982E+01
  7.59869910E+00  7.59869910E+00 -1.51973982E+01  7.59869910E+00  7.59869910E+00
 -1.51973982E+01  7.59869910E+00  7.59869910E+00 -1.51973982E+01  7.59869910E+00
  7.59869910E+00 -1.51973982E+01  7.59869910E+00  7.59869910E+00 -1.51973982E+01
  7.59869910E+00  7.59869910E+00 -1.51973982E+01  7.59869910E+00  7.59869910E+00
 -1.51973982E+01  7.59869910E+00  7.59869910E+00 -1.51973982E+01  7.59869910E+00
  7.59869910E+00 -1.51973982E+01  7.59869910E+00  7.59869910E+00 -1.51973982E+01
  7.59869910E+00  7.59869910E+00 -1.51973982E+01  7.59869910E+00  7.59869910E+00
 -1.51973982E+01  7.59869910E+00  7.59869910E+00 -1.51973982E+01  7.59869910E+00
  7.59869910E+00 -1.51973982E+01  7.59869910E+00  7.59869910E+00 -1.51973982E+01
  7.59869910E+00  7.59869910E+00 -1.51973982E+01  7.59869910E+00  7.59869910E+00
 -1.51973982E+01  7.59869910E+00  7.59869910E+00 -1.51973982E+01  7.59869910E+00
  7.59869910E+00 -1.51973982E+01  7.59869910E+00  7.59869910E+00 -1.51973982E+01
  7.59869910E+00  7.59869910E+00 -1.51973982E+01  7.59869910E+00  7.59869910E+00
 -1.51973982E+01  7.59869910E+00  7.59869910E+00 -1.51973982E+01  7.59869910E+00
  7.59869910E+00 -1.51973982E+01  7.59869910E+00  7.59869910E+00 -1.51973982E+01
  7.59869910E+00  7.59869910E+00 -1.51973982E+01  7.59869910E+00  7.59869910E+00
 -1.51973982E+01  7.59869910E+00  7.59869910E+00 -1.51973982E+01  7.59869910E+00
  7.59869910E+00 -1.51973982E+01  7.59869910E+00  7.59869910E+00 -1.51973982E+01
  7.59869910E+00  7.59869910E+00 -1.51973982E+01  7.59869910E+00  7.59869910E+00
 -1.51973982E+01  7.59869910E+00  7.59869910E+00 -1.51973982E+01  7.59869910E+00
  7.59869910E+00 -1.51973982E+01  7.59869910E+00  7.59869910E+00 -1.51973982E+01
  7.59869910E+00  7.59869910E+00 -1.51973982E+01  7.59869910E+00  7.59869910E+00
 -1.51973982E+01  7.59869910E+00  7.59869910E+00 -1.51973982E+01  7.59869910E+00
  7.59869910E+00 -1.51973982E+01  7.59869910E+00  7.59869910E+00 -1.51973982E+01
  7.59869910E+00  7.59869910E+00 -1.51973982E+01  7.59869910E+00  7.59869910E+00
 -1.51973982E+01  7.59869910E+00  7.59869910E+00 -1.51973982E+01  7.59869910E+00
  7.59869910E+00 -1.51973982E+01  7.59869910E+00  7.59869910E+00 -1.51973982E+01
  7.59869910E+00  7.59869910E+00 -1.51973982E+01  7.59869910E+00  7.59869910E+00
 -1.51973982E+01  7.59869910E+00  7.59869910E+00 -1.51973982E+01  7.59869910E+00
  7.59869910E+00 -1.51973982E+01  7.59869910E+00  7.59869910E+00 -1.51973982E+01
  7.59869910E+00  7.59869910E+00 -1.51973982E+01  7.59869910E+00  7.59869910E+00
 -1.51973982E+01  7.59869910E+00  7.59869910E+00 -1.51973982E+01  7.59869910E+00
  7.59869910E+00 -1.51973982E+01  7.59869910E+00  7.59869910E+00 -1.51973982E+01
  7.59869910E+00  7.59869910E+00 -1.51973982E+01  7.59869910E+00  7.59869910E+00
 -1.51973982E+01  7.59869910E+00  7.59869910E+00 -1.51973982E+01  7.59869910E+00
  7.59869910E+00 -1.51973982E+01  7.59869910E+00  7.59869910E+00 -1.51973982E+01
  7.59869910E+00  7.59869910E+00 -1.51973982E+01  7.59869910E+00  7.59869910E+00
 -1.51973982E+01  7.59869910E+00  7.59869910E+00 -1.51973982E+01  7.59869910E+00
  7.59869910E+00 -1.51973982E+01  7.59869910E+00  7.59869910E+00 -1.51973982E+01
  7.59869910E+00  7.59869910E+00 -1.51973982E+01  7.59869910E+00  7.59869910E+00
 -1.51973982E+01  7.59869910E+00  7.59869910E+00 -1.51973982E+01  7.59869910E+00
  7.59869910E+00 -1.51973982E+01  7.59869910E+00  7.59869910E+00 -1.51973982E+01
  7.59869910E+00  7.59869910E+00 -1.51973982E+01  7.59869910E+00  7.59869910E+00
 -1.51973982E+01  7.59869910E+00  7.59869910E+00 -1.51973982E+01  7.59869910E+00
  7.59869910E+00 -1.51973982E+01  7.59869910E+00  7.59869910E+00 -1.51973982E+01
  7.59869910E+00  7.59869910E+00 -1.51973982E+01  7.59869910E+00  7.59869910E+00
 -1.51973982E+01  7.59869910E+00  7.59869910E+00 -1.51973982E+01  7.59869910E+00
  7.59869910E+00 -1.51973982E+01  7.59869910E+00  7.59869910E+00 -1.51973982E+01
  7.59869910E+00  7.59869910E+00 -1.51973982E+01  7.59869910E+00  7.59869910E+00
 -1.51973982E+01  7.59869910E+00  7.59869910E+00 -1.51973982E+01  7.59869910E+00
  7.59869910E+00 -1.51973982E+01  7.59869910E+00  7.59869910E+00 -1.51973982E+01
  7.59869910E+00  7.59869910E+00 -1.51973982E+01  7.59869910E+00  7.59869910E+00
 -1.51973982E+01  7.59869910E+00  7.59869910E+00 -1.51973982E+01  7.59869910E+00
  7.59869910E+00 -1.51973982E+01  7.59869910E+00  7.59869910E+00 -1.51973982E+01
  7.59869910E+00  7.59869910E+00 -1.51973982E+01  7.59869910E+00  7.59869910E+00
 -1.51973982E+01  7.59869910E+00  7.59869910E+00 -1.51973982E+01  7.59869910E+00
  7.59869910E+00 -1.51973982E+01  7.59869910E+00  7.59869910E+00 -1.51973982E+01
  7.59869910E+00  7.59869910E+00 -1.51973982E+01  7.59869910E+00  7.59869910E+00
 -1.51973982E+01  7.59869910E+00  7.59869910E+00 -1.51973982E+01  7.59869910E+00
  7.59869910E+00 -1.51973982E+01  7.59869910E+00  7.59869910E+00 -1.51973982E+01
  7.59869910E+00  7.59869910E+00 -1.51973982E+01  7.59869910E+00  7.59869910E+00
 -1.51973982E+01  7.59869910E+00  7.59869910E+00 -1.51973982E+01  7.59869910E+00
  7.59869910E+00 -1.51973982E+01  7.59869910E+00  7.59869910E+00 -1.51973982E+01
  7.59869910E+00  7.59869910E+00 -1.51973982E+01  7.59869910E+00  7.59869910E+00
 -1.51973982E+01  7.59869910E+00  7.59869910E+00 -1.51973982E+01  7.59869910E+00
  7.59869910E+00 -1.51973982E+01  7.59869910E+00  7.59869910E+00 -1.51973982E+01
  7.59869910E+00  7.59869910E+00 -1.51973982E+01  7.59869910E+00  7.59869910E+00
 -1.51973982E+01  7.59869910E+00  7.59869910E+00 -1.51973982E+01  7.59869910E+00
  7.59869910E+00 -1.51973982E+01  7.59869910E+00  7.59869910E+00 -1.51973982E+01
  7.59869910E+00  7.59869910E+00 -1.51973982E+01  7.59869910E+00  7.59869910E+00
 -1.51973982E+01  7.59869910E+00  7.59869910E+00 -1.51973982E+01  7.59869910E+00
  7.59869910E+00 -1.51973982E+01  7.59869910E+00  7.59869910E+00 -1.51973982E+01
  7.59869910E+00  7.59869910E+00 -1.51973982E+01  7.59869910E+00  7.59869910E+00
 -1.51973982E+01  7.59869910E+00  7.59869910E+00 -1.51973982E+01  7.59869910E+00
  7.59869910E+00 -1.51973982E+01  7.59869910E+00  7.59869910E+00 -1.51973982E+01
  7.59869910E+00  7.59869910E+00 -1.51973982E+01  7.59869910E+00  7.59869910E+00
 -1.51973982E+01  7.59869910E+00  7.59869910E+00 -1.51973982E+01  7.59869910E+00
  7.59869910E+00 -1.51973982E+01  7.59869910E+00  7.59869910E+00 -1.51973982E+01
  7.59869910E+00  7.59869910E+00 -1.51973982E+01  7.59869910E+00  7.59869910E+00
 -1.51973982E+01  7.59869910E+00  7.59869910E+00 -1.51973982E+01  7.59869910E+00
  7.59869910E+00 -1.51973982E+01  7.59869910E+00  7.59869910E+00 -1.51973982E+01
  7.59869910E+00  7.59869910E+00 -1.51973982E+01  7.59869910E+00  7.59869910E+00
 -1.51973982E+01  7.59869910E+00  7.59869910E+00 -1.51973982E+01  7.59869910E+00
  7.59869910E+00 -1.51973982E+01  7.59869910E+00  7.59869910E+00 -1.51973982E+01
  7.59869910E+00  7.59869910E+00 -1.51973982E+01  7.59869910E+00  7.59869910E+00
 -1.51973982E+01  7.59869910E+00  7.59869910E+00 -1.51973982E+01  7.59869910E+00
  7.59869910E+00 -1.51973982E+01  7.59869910E+00  7.59869910E+00 -1.51973982E+01
  7.59869910E+00  7.59869910E+00 -1.51973982E+01  7.59869910E+00  7.59869910E+00
 -1.51973982E+01  7.59869910E+00  7.59869910E+00 -1.51973982E+01  7.59869910E+00
  7.59869910E+00 -1.51973982E+01  7.59869910E+00  7.59869910E+00 -1.51973982E+01
  7.59869910E+00  7.59869910E+00 -1.51973982E+01  7.59869910E+00  7.59869910E+00
 -1.51973982E+01  7.59869910E+00  7.59869910E+00 -1.51973982E+01  7.59869910E+00
  7.59869910E+00 -1.51973982E+01  7.59869910E+00  7.59869910E+00 -1.51973982E+01
  7.59869910E+00  7.59869910E+00 -1.51973982E+01  7.59869910E+00  7.59869910E+00
 -1.51973982E+01  7.59869910E+00  7.59869910E+00 -1.51973982E+01  7.59869910E+00
  7.59869910E+00 -1.51973982E+01  7.59869910E+00  7.59869910E+00 -1.51973982E+01
  7.59869910E+00  7.59869910E+00 -1.51973982E+01  7.59869910E+00  7.59869910E+00
 -1.51973982E+01  7.59869910E+00  7.59869910E+00 -1.51973982E+01  7.59869910E+00
  7.59869910E+00 -1.51973982E+01  7.59869910E+00  7.59869910E+00 -1.51973982E+01
  7.59869910E+00  7.59869910E+00 -1.51973982E+01  7.59869910E+00  7.59869910E+00
 -1.51973982E+01  7.59869910E+00  7.59869910E+00 -1.51973982E+01  7.59869910E+00
  7.59869910E+00 -1.51973982E+01  7.59869910E+00  7.59869910E+00 -1.51973982E+01
  7.59869910E+00  7.59869910E+00 -1.51973982E+01  7.59869910E+00  7.59869910E+00
 -1.51973982E+01  7.59869910E+00  7.59869910E+00 -1.51973982E+01  7.59869910E+00
  7.59869910E+00 -1.51973982E+01  7.59869910E+00  7.59869910E+00 -1.51973982E+01
  7.59869910E+00  7.59869910E+00 -1.51973982E+01  7.59869910E+00  7.59869910E+00
 -1.51973982E+01  7.59869910E+00  7.59869910E+00 -1.51973982E+01  7.59869910E+00
  7.59869910E+00 -1.51973982E+01  7.59869910E+00  7.59869910E+00 -1.51973982E+01
  7.59869910E+00  7.59869910E+00 -1.51973982E+01  7.59869910E+00  7.59869910E+00
 -1.51973982E+01  7.59869910E+00  7.59869910E+00 -1.51973982E+01  7.59869910E+00
  7.59869910E+00 -1.51973982E+01  7.59869910E+00  7.59869910E+00 -1.51973982E+01
  7.59869910E+00  7.59869910E+00 -1.51973982E+01  7.59869910E+00  7.59869910E+00
 -1.51973982E+01  7.59869910E+00  7.59869910E+00 -1.51973982E+01  7.59869910E+00
  7.59869910E+00 -1.51973982E+01  7.59869910E+00  7.59869910E+00 -1.51973982E+01
  7.59869910E+00  7.59869910E+00 -1.51973982E+01  7.59869910E+00  7.59869910E+00
 -1.51973982E+01  7.59869910E+00  7.59869910E+00 -1.51973982E+01  7.59869910E+00
  7.59869910E+00 -1.51973982E+01  7.59869910E+00  7.59869910E+00 -1.51973982E+01
  7.59869910E+00  7.59869910E+00 -1.51973982E+01  7.59869910E+00  7.59869910E+00
 -1.51973982E+01  7.59869910E+00  7.59869910E+00 -1.51973982E+01  7.59869910E+00
  7.59869910E+00 -1.51973982E+01  7.59869910E+00  7.59869910E+00 -1.51973982E+01
  7.59869910E+00  7.59869910E+00 -1.51973982E+01  7.59869910E+00  7.59869910E+00
 -1.51973982E+01  7.59869910E+00  7.59869910E+00 -1.51973982E+01  7.59869910E+00
  7.59869910E+00 -1.51973982E+01  7.59869910E+00  7.59869910E+00 -1.51973982E+01
  7.59869910E+00  7.59869910E+00 -1.51973982E+01  7.59869910E+00  7.59869910E+00
 -1.51973982E+01  7.59869910E+00  7.59869910E+00 -1.51973982E+01  7.59869910E+00
  7.59869910E+00 -1.51973982E+01  7.59869910E+00  7.59869910E+00 -1.51973982E+01
  7.59869910E+00  7.59869910E+00 -1.51973982E+01  7.59869910E+00  7.59869910E+00
 -1.51973982E+01  7.59869910E+00  7.59869910E+00 -1.51973982E+01  7.59869910E+00
  7.59869910E+00 -1.51973982E+01  7.59869910E+00  7.59869910E+00 -1.51973982E+01
  7.59869910E+00  7.59869910E+00 -1.51973982E+01  7.59869910E+00  7.59869910E+00
 -1.51973982E+01  7.59869910E+00  7.59869910E+00 -1.51973982E+01  7.59869910E+00
  7.59869910E+00 -1.51973982E+01  7.59869910E+00  7.59869910E+00 -1.51973982E+01
  7.59869910E+00  7.59869910E+00 -1.51973982E+01  7.59869910E+00  7.59869910E+00
 -1.51973982E+01  7.59869910E+00  7.59869910E+00 -1.51973982E+01  7.59869910E+00
  7.59869910E+00 -1.51973982E+01  7.59869910E+00  7.59869910E+00 -1.51973982E+01
  7.59869910E+00  7.59869910E+00 -1.51973982E+01  7.59869910E+00  7.59869910E+00
 -1.51973982E+01  7.59869910E+00  7.59869910E+00 -1.51973982E+01  7.59869910E+00
  7.59869910E+00 -1.51973982E+01  7.59869910E+00  7.59869910E+00 -1.51973982E+01
  7.59869910E+00  7.59869910E+00 -1.51973982E+01  7.59869910E+00  7.59869910E+00
 -1.51973982E+01  7.59869910E+00  7.59869910E+00 -1.51973982E+01  7.59869910E+00
  7.59869910E+00 -1.51973982E+01  7.59869910E+00  7.59869910E+00 -1.51973982E+01
  7.59869910E+00  7.59869910E+00 -1.51973982E+01  7.59869910E+00  7.59869910E+00
 -1.51973982E+01  7.59869910E+00  7.59869910E+00 -1.51973982E+01  7.59869910E+00
  7.59869910E+00 -1.51973982E+01  7.59869910E+00  7.59869910E+00 -1.51973982E+01
  7.59869910E+00  7.59869910E+00 -1.51973982E+01  7.59869910E+00  7.59869910E+00
 -1.51973982E+01  7.59869910E+00  7.59869910E+00 -1.51973982E+01  7.59869910E+00
  7.59869910E+00 -1.51973982E+01  7.59869910E+00  7.59869910E+00 -1.51973982E+01
  7.59869910E+00  7.59869910E+00 -1.51973982E+01  7.59869910E+00  7.59869910E+00
 -1.51973982E+01  7.59869910E+00  7.59869910E+00 -1.51973982E+01  7.59869910E+00
  7.59869910E+00 -1.51973982E+01  7.59869910E+00  7.59869910E+00 -1.51973982E+01
  7.59869910E+00  7.59869910E+00 -1.51973982E+01  7.59869910E+00  7.59869910E+00
 -1.51973982E+01  7.59869910E+00  7.59869910E+00 -1.51973982E+01  7.59869910E+00
  7.59869910E+00 -1.51973982E+01  7.59869910E+00  7.59869910E+00 -1.51973982E+01
  7.59869910E+00  7.59869910E+00 -1.51973982E+01  7.59869910E+00  7.59869910E+00
 -1.51973982E+01  7.59869910E+00  7.59869910E+00 -1.51973982E+01  7.59869910E+00
  7.59869910E+00 -1.51973982E+01  7.59869910E+00  7.59869910E+00 -1.51973982E+01
  7.59869910E+00  7.59869910E+00 -1.51973982E+01  7.59869910E+00  7.59869910E+00
 -1.51973982E+01  7.59869910E+00  7.59869910E+00 -1.51973982E+01  7.59869910E+00
  7.59869910E+00 -1.51973982E+01  7.59869910E+00  7.59869910E+00 -1.51973982E+01
  7.59869910E+00  7.59869910E+00 -1.51973982E+01  7.59869910E+00  7.59869910E+00
 -1.51973982E+01  7.59869910E+00  7.59869910E+00 -1.51973982E+01  7.59869910E+00
  7.59869910E+00 -1.51973982E+01  7.59869910E+00  7.59869910E+00 -1.51973982E+01
  7.59869910E+00  7.59869910E+00 -1.51973982E+01  7.59869910E+00  7.59869910E+00
 -1.51973982E+01  7.59869910E+00  7.59869910E+00 -1.51973982E+01  7.59869910E+00
  7.59869910E+00 -1.51973982E+01  7.59869910E+00  7.59869910E+00 -1.51973982E+01
  7.59869910E+00  7.59869910E+00 -1.51973982E+01  7.59869910E+00  7.59869910E+00
 -1.51973982E+01  7.59869910E+00  7.59869910E+00 -1.51973982E+01  7.59869910E+00
  7.59869910E+00 -1.51973982E+01  7.59869910E+00  7.59869910E+00 -1.51973982E+01
  7.59869910E+00  7.59869910E+00 -1.51973982E+01  7.59869910E+00  7.59869910E+00
 -1.51973982E+01  7.59869910E+00  7.59869910E+00 -1.51973982E+01  7.59869910E+00
  7.59869910E+00 -1.51973982E+01  7.59869910E+00  7.59869910E+00 -1.51973982E+01
  7.59869910E+00  7.59869910E+00 -1.51973982E+01  7.59869910E+00  7.59869910E+00
 -1.51973982E+01  7.59869910E+00  7.59869910E+00 -1.51973982E+01  7.59869910E+00
  7.59869910E+00 -1.51973982E+01  7.59869910E+00  7.59869910E+00 -1.51973982E+01
  7.59869910E+00  7.59869910E+00 -1.51973982E+01  7.59869910E+00  7.59869910E+00
 -1.51973982E+01  7.59869910E+00  7.59869910E+00 -1.51973982E+01  7.59869910E+00
  7.59869910E+00 -1.51973982E+01  7.59869910E+00  7.59869910E+00 -1.51973982E+01
  7.59869910E+00  7.59869910E+00 -1.51973982E+01  7.59869910E+00  7.59869910E+00
 -1.51973982E+01  7.59869910E+00  7.59869910E+00 -1.51973982E+01  7.59869910E+00
  7.59869910E+00 -1.51973982E+01  7.59869910E+00  7.59869910E+00 -1.51973982E+01
  7.59869910E+00  7.59869910E+00 -1.51973982E+01  7.59869910E+00  7.59869910E+00
 -1.51973982E+01  7.59869910E+00  7.59869910E+00 -1.51973982E+01  7.59869910E+00
  7.59869910E+00 -1.51973982E+01  7.59869910E+00  7.59869910E+00 -1.51973982E+01
  7.59869910E+00  7.59869910E+00 -1.51973982E+01  7.59869910E+00  7.59869910E+00
 -1.51973982E+01  7.59869910E+00  7.59869910E+00 -1.51973982E+01  7.59869910E+00
  7.59869910E+00 -1.51973982E+01  7.59869910E+00  7.59869910E+00 -1.51973982E+01
  7.59869910E+00  7.59869910E+00 -1.51973982E+01  7.59869910E+00  7.59869910E+00
 -1.51973982E+01  7.59869910E+00  7.59869910E+00 -1.51973982E+01  7.59869910E+00
  7.59869910E+00 -1.51973982E+01  7.59869910E+00  7.59869910E+00 -1.51973982E+01
  7.59869910E+00  7.59869910E+00 -1.51973982E+01  7.59869910E+00  7.59869910E+00
 -1.51973982E+01  7.59869910E+00  7.59869910E+00 -1.51973982E+01  7.59869910E+00
  7.59869910E+00 -1.51973982E+01  7.59869910E+00  7.59869910E+00 -1.51973982E+01
  7.59869910E+00  7.59869910E+00 -1.51973982E+01  7.59869910E+00  7.59869910E+00
 -1.51973982E+01  7.59869910E+00  7.59869910E+00 -1.51973982E+01  7.59869910E+00
  7.59869910E+00 -1.51973982E+01  7.59869910E+00  7.59869910E+00 -1.51973982E+01
  7.59869910E+00  7.59869910E+00 -1.51973982E+01  7.59869910E+00  7.59869910E+00
 -1.51973982E+01  7.59869910E+00  7.59869910E+00 -1.51973982E+01  7.59869910E+00
  7.59869910E+00 -1.51973982E+01  7.59869910E+00  7.59869910E+00 -1.51973982E+01
  7.59869910E+00  7.59869910E+00 -1.51973982E+01  7.59869910E+00  7.59869910E+00
 -1.51973982E+01  7.59869910E+00  7.59869910E+00 -1.51973982E+01  7.59869910E+00
  7.59869910E+00 -1.51973982E+01  7.59869910E+00  7.59869910E+00 -1.51973982E+01
  7.59869910E+00  7.59869910E+00 -1.51973982E+01  7.59869910E+00  7.59869910E+00
 -1.51973982E+01  7.59869910E+00  7.59869910E+00 -1.51973982E+01  7.59869910E+00
  7.59869910E+00 -1.51973982E+01  7.59869910E+00  7.59869910E+00 -1.51973982E+01
  7.59869910E+00  7.59869910E+00 -1.51973982E+01  7.59869910E+00  7.59869910E+00
 -1.51973982E+01  7.59869910E+00  7.59869910E+00 -1.51973982E+01  7.59869910E+00
  7.59869910E+00 -1.51973982E+01  7.59869910E+00  7.59869910E+00 -1.51973982E+01
  7.59869910E+00  7.59869910E+00 -1.51973982E+01  7.59869910E+00  7.59869910E+00
 -1.51973982E+01  7.59869910E+00  7.59869910E+00 -1.51973982E+01  7.59869910E+00
  7.59869910E+00 -1.51973982E+01  7.59869910E+00  7.59869910E+00 -1.51973982E+01
  7.59869910E+00  7.59869910E+00 -1.51973982E+01  7.59869910E+00  7.59869910E+00
 -1.51973982E+01  7.59869910E+00  7.59869910E+00 -1.51973982E+01  7.59869910E+00
  7.59869910E+00 -1.51973982E+01  7.59869910E+00  7.59869910E+00 -1.51973982E+01
  7.59869910E+00  7.59869910E+00 -1.51973982E+01  7.59869910E+00  7.59869910E+00
 -1.51973982E+01  7.59869910E+00  7.59869910E+00 -1.51973982E+01  7.59869910E+00
  7.59869910E+00 -1.51973982E+01  7.59869910E+00  7.59869910E+00 -1.51973982E+01
  7.59869910E+00  7.59869910E+00 -1.51973982E+01  7.59869910E+00  7.59869910E+00
 -1.51973982E+01  7.59869910E+00  7.59869910E+00 -1.51973982E+01  7.59869910E+00
  7.59869910E+00 -1.51973982E+01  7.59869910E+00  7.59869910E+00 -1.51973982E+01
  7.59869910E+00  7.59869910E+00 -1.51973982E+01  7.59869910E+00  7.59869910E+00
 -1.51973982E+01  7.59869910E+00  7.59869910E+00 -1.51973982E+01  7.59869910E+00
  7.59869910E+00 -1.51973982E+01  7.59869910E+00  7.59869910E+00 -1.51973982E+01
  7.59869910E+00  7.59869910E+00 -1.51973982E+01  7.59869910E+00  7.59869910E+00
 -1.51973982E+01  7.59869910E+00  7.59869910E+00 -1.51973982E+01  7.59869910E+00
  7.59869910E+00 -1.51973982E+01  7.59869910E+00  7.59869910E+00 -1.51973982E+01
  7.59869910E+00  7.59869910E+00 -1.51973982E+01  7.59869910E+00  7.59869910E+00
 -1.51973982E+01  7.59869910E+00  7.59869910E+00 -1.51973982E+01  7.59869910E+00
  7.59869910E+00 -1.51973982E+01  7.59869910E+00  7.59869910E+00 -1.51973982E+01
  7.59869910E+00  7.59869910E+00 -1.51973982E+01  7.59869910E+00  7.59869910E+00
 -1.51973982E+01  7.59869910E+00  7.59869910E+00 -1.51973982E+01  7.59869910E+00
  7.59869910E+00 -1.51973982E+01  7.59869910E+00  7.59869910E+00 -1.51973982E+01
  7.59869910E+00  7.59869910E+00 -1.51973982E+01  7.59869910E+00  7.59869910E+00
 -1.51973982E+01  7.59869910E+00  7.59869910E+00 -1.51973982E+01  7.59869910E+00
  7.59869910E+00 -1.51973982E+01  7.59869910E+00  7.59869910E+00 -1.51973982E+01
  7.59869910E+00  7.59869910E+00 -1.51973982E+01  7.59869910E+00  7.59869910E+00
 -1.51973982E+01  7.59869910E+00  7.59869910E+00 -1.51973982E+01  7.59869910E+00
  7.59869910E+00 -1.51973982E+01  7.59869910E+00  7.59869910E+00 -1.51973982E+01
  7.59869910E+00  7.59869910E+00 -1.51973982E+01  7.59869910E+00  7.59869910E+00
 -1.51973982E+01  7.59869910E+00  7.59869910E+00 -1.51973982E+01  7.59869910E+00
  7.59869910E+00 -1.51973982E+01  7.59869910E+00  7.59869910E+00 -1.51973982E+01
  7.59869910E+00  7.59869910E+00 -1.51973982E+01  7.59869910E+00  7.59869910E+00
 -1.51973982E+01  7.59869910E+00  7.59869910E+00 -1.51973982E+01  7.59869910E+00
  7.59869910E+00 -1.51973982E+01  7.59869910E+00  7.59869910E+00 -1.51973982E+01
  7.59869910E+00  7.59869910E+00 -1.51973982E+01  7.59869910E+00  7.59869910E+00
 -1.51973982E+01  7.59869910E+00  7.59869910E+00 -1.51973982E+01  7.59869910E+00
  7.59869910E+00 -1.51973982E+01  7.59869910E+00  7.59869910E+00 -1.51973982E+01
  7.59869910E+00  7.59869910E+00 -1.51973982E+01  7.59869910E+00  7.59869910E+00
 -1.51973982E+01  7.59869910E+00  7.59869910E+00 -1.51973982E+01  7.59869910E+00
  7.59869910E+00 -1.51973982E+01  7.59869910E+00  7.59869910E+00 -1.51973982E+01
  7.59869910E+00  7.59869910E+00 -1.51973982E+01  7.59869910E+00  7.59869910E+00
 -1.51973982E+01  7.59869910E+00  7.59869910E+00 -1.51973982E+01  7.59869910E+00
  7.59869910E+00 -1.51973982E+01  7.59869910E+00  7.59869910E+00 -1.51973982E+01
  7.59869910E+00  7.59869910E+00 -1.51973982E+01  7.59869910E+00  7.59869910E+00
 -1.51973982E+01  7.59869910E+00  7.59869910E+00 -1.51973982E+01  7.59869910E+00
  7.59869910E+00 -1.51973982E+01  7.59869910E+00  7.59869910E+00 -1.51973982E+01
  7.59869910E+00  7.59869910E+00 -1.51973982E+01  7.59869910E+00  7.59869910E+00
 -1.51973982E+01  7.59869910E+00  7.59869910E+00 -1.51973982E+01  7.59869910E+00
  7.59869910E+00 -1.51973982E+01  7.59869910E+00  7.59869910E+00 -1.51973982E+01
  7.59869910E+00  7.59869910E+00 -1.51973982E+01  7.59869910E+00  7.59869910E+00
 -1.51973982E+01  7.59869910E+00  7.59869910E+00 -1.51973982E+01  7.59869910E+00
  7.59869910E+00 -1.51973982E+01  7.59869910E+00  7.59869910E+00 -1.51973982E+01
  7.59869910E+00  7.59869910E+00 -1.51973982E+01  7.59869910E+00  7.59869910E+00
 -1.51973982E+01  7.59869910E+00  7.59869910E+00 -1.51973982E+01  7.59869910E+00
  7.59869910E+00 -1.51973982E+01  7.59869910E+00  7.59869910E+00 -1.51973982E+01
  7.59869910E+00  7.59869910E+00 -1.51973982E+01  7.59869910E+00  7.59869910E+00
 -1.51973982E+01  7.59869910E+00  7.59869910E+00 -1.51973982E+01  7.59869910E+00
  7.59869910E+00 -1.51973982E+01  7.59869910E+00  7.59869910E+00 -1.51973982E+01
  7.59869910E+00  7.59869910E+00 -1.51973982E+01  7.59869910E+00  7.59869910E+00
 -1.51973982E+01  7.59869910E+00  7.59869910E+00 -1.51973982E+01  7.59869910E+00
  7.59869910E+00 -1.51973982E+01  7.59869910E+00  7.59869910E+00 -1.51973982E+01
  7.59869910E+00  7.59869910E+00 -1.51973982E+01  7.59869910E+00  7.59869910E+00
 -1.51973982E+01  7.59869910E+00  7.59869910E+00 -1.51973982E+01  7.59869910E+00
  7.59869910E+00 -1.51973982E+01  7.59869910E+00  7.59869910E+00 -1.51973982E+01
  7.59869910E+00  7.59869910E+00 -1.51973982E+01  7.59869910E+00  7.59869910E+00
 -1.51973982E+01  7.59869910E+00  7.59869910E+00 -1.51973982E+01  7.59869910E+00
  7.59869910E+00 -1.51973982E+01  7.59869910E+00  7.59869910E+00 -1.51973982E+01
  7.59869910E+00  7.59869910E+00 -1.51973982E+01  7.59869910E+00  7.59869910E+00
 -1.51973982E+01  7.59869910E+00  7.59869910E+00 -1.51973982E+01  7.59869910E+00
  7.59869910E+00 -1.51973982E+01  7.59869910E+00  7.59869910E+00 -1.51973982E+01
  7.59869910E+00  7.59869910E+00 -1.51973982E+01  7.59869910E+00  7.59869910E+00
 -1.51973982E+01  7.59869910E+00  7.59869910E+00 -1.51973982E+01  7.59869910E+00
  7.59869910E+00 -1.51973982E+01  7.59869910E+00  7.59869910E+00 -1.51973982E+01
  7.59869910E+00  7.59869910E+00 -1.51973982E+01  7.59869910E+00  7.59869910E+00
 -1.51973982E+01  7.59869910E+00  7.59869910E+00 -1.51973982E+01  7.59869910E+00
  7.59869910E+00 -1.51973982E+01  7.59869910E+00  7.59869910E+00 -1.51973982E+01
  7.59869910E+00  7.59869910E+00 -1.51973982E+01  7.59869910E+00  7.59869910E+00
 -1.51973982E+01  7.59869910E+00  7.59869910E+00 -1.51973982E+01  7.59869910E+00
  7.59869910E+00 -1.51973982E+01  7.59869910E+00  7.59869910E+00 -1.51973982E+01
  7.59869910E+00  7.59869910E+00 -1.51973982E+01  7.59869910E+00  7.59869910E+00
 -1.51973982E+01  7.59869910E+00  7.59869910E+00 -1.51973982E+01  7.59869910E+00
  7.59869910E+00 -1.51973982E+01  7.59869910E+00  7.59869910E+00 -1.51973982E+01
  7.59869910E+00  7.59869910E+00 -1.51973982E+01  7.59869910E+00  7.59869910E+00
 -1.51973982E+01  7.59869910E+00  7.59869910E+00 -1.51973982E+01  7.59869910E+00
  7.59869910E+00 -1.51973982E+01  7.59869910E+00  7.59869910E+00 -1.51973982E+01
  7.59869910E+00  7.59869910E+00 -1.51973982E+01  7.59869910E+00  7.59869910E+00
 -1.51973982E+01  7.59869910E+00  7.59869910E+00 -1.51973982E+01  7.59869910E+00
  7.59869910E+00 -1.51973982E+01  7.59869910E+00  7.59869910E+00 -1.51973982E+01
  7.59869910E+00  7.59869910E+00 -1.51973982E+01  7.59869910E+00  7.59869910E+00
 -1.51973982E+01  7.59869910E+00  7.59869910E+00 -1.51973982E+01  7.59869910E+00
  7.59869910E+00 -1.51973982E+01  7.59869910E+00  7.59869910E+00 -1.51973982E+01
  7.59869910E+00  7.59869910E+00 -1.51973982E+01  7.59869910E+00  7.59869910E+00
 -1.51973982E+01  7.59869910E+00  7.59869910E+00 -1.51973982E+01  7.59869910E+00
  7.59869910E+00 -1.51973982E+01  7.59869910E+00  7.59869910E+00 -1.51973982E+01
  7.59869910E+00  7.59869910E+00 -1.51973982E+01  7.59869910E+00  7.59869910E+00
 -1.51973982E+01  7.59869910E+00  7.59869910E+00 -1.51973982E+01  7.59869910E+00
  7.59869910E+00 -1.51973982E+01  7.59869910E+00  7.59869910E+00 -1.51973982E+01
  7.59869910E+00  7.59869910E+00 -1.51973982E+01  7.59869910E+00  7.59869910E+00
 -1.51973982E+01  7.59869910E+00  7.59869910E+00 -1.51973982E+01  7.59869910E+00
  7.59869910E+00 -1.51973982E+01  7.59869910E+00  7.59869910E+00 -1.51973982E+01
  7.59869910E+00  7.59869910E+00 -1.51973982E+01  7.59869910E+00  7.59869910E+00
 -1.51973982E+01  7.59869910E+00  7.59869910E+00 -1.51973982E+01  7.59869910E+00
  7.59869910E+00 -1.51973982E+01  7.59869910E+00  7.59869910E+00 -1.51973982E+01
  7.59869910E+00  7.59869910E+00 -1.51973982E+01  7.59869910E+00  7.59869910E+00
 -1.51973982E+01  7.59869910E+00  7.59869910E+00 -1.51973982E+01  7.59869910E+00
  7.59869910E+00 -1.51973982E+01  7.59869910E+00  7.59869910E+00 -1.51973982E+01
  7.59869910E+00  7.59869910E+00 -1.51973982E+01  7.59869910E+00  7.59869910E+00
 -1.51973982E+01  7.59869910E+00  7.59869910E+00 -1.51973982E+01  7.59869910E+00
  7.59869910E+00 -1.51973982E+01  7.59869910E+00  7.59869910E+00 -1.51973982E+01
  7.59869910E+00  7.59869910E+00 -1.51973982E+01  7.59869910E+00  7.59869910E+00
 -1.51973982E+01  7.59869910E+00  7.59869910E+00 -1.51973982E+01  7.59869910E+00
  7.59869910E+00 -1.51973982E+01  7.59869910E+00  7.59869910E+00 -1.51973982E+01
  7.59869910E+00  7.59869910E+00 -1.51973982E+01  7.59869910E+00  7.59869910E+00
 -1.51973982E+01  7.59869910E+00  7.59869910E+00 -1.51973982E+01  7.59869910E+00
  7.59869910E+00 -1.51973982E+01  7.59869910E+00  7.59869910E+00 -1.51973982E+01
  7.59869910E+00  7.59869910E+00 -1.51973982E+01  7.59869910E+00  7.59869910E+00
 -1.51973982E+01  7.59869910E+00  7.59869910E+00 -1.51973982E+01  7.59869910E+00
  7.59869910E+00 -1.51973982E+01  7.59869910E+00  7.59869910E+00 -1.51973982E+01
  7.59869910E+00  7.59869910E+00 -1.51973982E+01  7.59869910E+00  7.59869910E+00
 -1.51973982E+01  7.59869910E+00  7.59869910E+00 -1.51973982E+01  7.59869910E+00
  7.59869910E+00 -1.51973982E+01  7.59869910E+00  7.59869910E+00 -1.51973982E+01
  7.59869910E+00  7.59869910E+00 -1.51973982E+01  7.59869910E+00  7.59869910E+00
 -1.51973982E+01  7.59869910E+00  7.59869910E+00 -1.51973982E+01  7.59869910E+00
  7.59869910E+00 -1.51973982E+01  7.59869910E+00  7.59869910E+00 -1.51973982E+01
  7.59869910E+00  7.59869910E+00 -1.51973982E+01  7.59869910E+00  7.59869910E+00
 -1.51973982E+01  7.59869910E+00  7.59869910E+00 -1.51973982E+01  7.59869910E+00
  7.59869910E+00 -1.51973982E+01  7.59869910E+00  7.59869910E+00 -1.51973982E+01
  7.59869910E+00  7.59869910E+00 -1.51973982E+01  7.59869910E+00  7.59869910E+00
 -1.51973982E+01  7.59869910E+00  7.59869910E+00 -1.51973982E+01  7.59869910E+00
  7.59869910E+00 -1.51973982E+01  7.59869910E+00  7.59869910E+00 -1.51973982E+01
  7.59869910E+00  7.59869910E+00 -1.51973982E+01  7.59869910E+00  7.59869910E+00
 -1.51973982E+01  7.59869910E+00  7.59869910E+00 -1.51973982E+01  7.59869910E+00
  7.59869910E+00 -1.51973982E+01  7.59869910E+00  7.59869910E+00 -1.51973982E+01
  7.59869910E+00  7.59869910E+00 -1.51973982E+01  7.59869910E+00  7.59869910E+00
 -1.51973982E+01  7.59869910E+00  7.59869910E+00 -1.51973982E+01  7.59869910E+00
  7.59869910E+00 -1.51973982E+01  7.59869910E+00  7.59869910E+00 -1.51973982E+01
  7.59869910E+00  7.59869910E+00 -1.51973982E+01  7.59869910E+00  7.59869910E+00
 -1.51973982E+01  7.59869910E+00  7.59869910E+00 -1.51973982E+01  7.59869910E+00
  7.59869910E+00 -1.51973982E+01  7.59869910E+00  7.59869910E+00 -1.51973982E+01
  7.59869910E+00  7.59869910E+00 -1.51973982E+01  7.59869910E+00  7.59869910E+00
 -1.51973982E+01  7.59869910E+00  7.59869910E+00 -1.51973982E+01  7.59869910E+00
  7.59869910E+00 -1.51973982E+01  7.59869910E+00  7.59869910E+00 -1.51973982E+01
  7.59869910E+00  7.59869910E+00 -1.51973982E+01  7.59869910E+00  7.59869910E+00
 -1.51973982E+01  7.59869910E+00  7.59869910E+00 -1.51973982E+01  7.59869910E+00
  7.59869910E+00 -1.51973982E+01  7.59869910E+00  7.59869910E+00 -1.51973982E+01
  7.59869910E+00  7.59869910E+00 -1.51973982E+01  7.59869910E+00  7.59869910E+00
 -1.51973982E+01  7.59869910E+00  7.59869910E+00 -1.51973982E+01  7.59869910E+00
  7.59869910E+00 -1.51973982E+01  7.59869910E+00  7.59869910E+00 -1.51973982E+01
  7.59869910E+00  7.59869910E+00 -1.51973982E+01  7.59869910E+00  7.59869910E+00
 -1.51973982E+01  7.59869910E+00  7.59869910E+00 -1.51973982E+01  7.59869910E+00
  7.59869910E+00 -1.51973982E+01  7.59869910E+00  7.59869910E+00 -1.51973982E+01
  7.59869910E+00  7.59869910E+00 -1.51973982E+01  7.59869910E+00  7.59869910E+00
 -1.51973982E+01  7.59869910E+00  7.59869910E+00 -1.51973982E+01  7.59869910E+00
  7.59869910E+00 -1.51973982E+01  7.59869910E+00  7.59869910E+00 -1.51973982E+01
  7.59869910E+00  7.59869910E+00 -1.51973982E+01  7.59869910E+00  7.59869910E+00
 -1.51973982E+01  7.59869910E+00  7.59869910E+00 -1.51973982E+01  7.59869910E+00
  7.59869910E+00 -1.51973982E+01  7.59869910E+00  7.59869910E+00 -1.51973982E+01
  7.59869910E+00  7.59869910E+00 -1.51973982E+01  7.59869910E+00  7.59869910E+00
 -1.51973982E+01  7.59869910E+00  7.59869910E+00 -1.51973982E+01  7.59869910E+00
  7.59869910E+00 -1.51973982E+01  7.59869910E+00  7.59869910E+00 -1.51973982E+01
  7.59869910E+00  7.59869910E+00 -1.51973982E+01  7.59869910E+00  7.59869910E+00
 -1.51973982E+01  7.59869910E+00  7.59869910E+00 -1.51973982E+01  7.59869910E+00
  7.59869910E+00 -1.51973982E+01  7.59869910E+00  7.59869910E+00 -1.51973982E+01
  7.59869910E+00  7.59869910E+00 -1.51973982E+01  7.59869910E+00  7.59869910E+00
 -1.51973982E+01  7.59869910E+00  7.59869910E+00 -1.51973982E+01  7.59869910E+00
  7.59869910E+00 -1.51973982E+01  7.59869910E+00  7.59869910E+00 -1.51973982E+01
  7.59869910E+00  7.59869910E+00 -1.51973982E+01  7.59869910E+00  7.59869910E+00
 -1.51973982E+01  7.59869910E+00  7.59869910E+00 -1.51973982E+01  7.59869910E+00
  7.59869910E+00 -1.51973982E+01  7.59869910E+00  7.59869910E+00 -1.51973982E+01
  7.59869910E+00  7.59869910E+00 -1.51973982E+01  7.59869910E+00  7.59869910E+00
 -1.51973982E+01  7.59869910E+00  7.59869910E+00 -1.51973982E+01  7.59869910E+00
  7.59869910E+00 -1.51973982E+01  7.59869910E+00  7.59869910E+00 -1.51973982E+01
  7.59869910E+00  7.59869910E+00 -1.51973982E+01  7.59869910E+00  7.59869910E+00
 -1.51973982E+01  7.59869910E+00  7.59869910E+00 -1.51973982E+01  7.59869910E+00
  7.59869910E+00 -1.51973982E+01  7.59869910E+00  7.59869910E+00 -1.51973982E+01
  7.59869910E+00  7.59869910E+00 -1.51973982E+01  7.59869910E+00  7.59869910E+00
 -1.51973982E+01  7.59869910E+00  7.59869910E+00 -1.51973982E+01  7.59869910E+00
  7.59869910E+00 -1.51973982E+01  7.59869910E+00  7.59869910E+00 -1.51973982E+01
  7.59869910E+00  7.59869910E+00 -1.51973982E+01  7.59869910E+00  7.59869910E+00
 -1.51973982E+01  7.59869910E+00  7.59869910E+00 -1.51973982E+01  7.59869910E+00
  7.59869910E+00 -1.51973982E+01  7.59869910E+00  7.59869910E+00 -1.51973982E+01
  7.59869910E+00  7.59869910E+00 -1.51973982E+01  7.59869910E+00  7.59869910E+00
 -1.51973982E+01  7.59869910E+00  7.59869910E+00 -1.51973982E+01  7.59869910E+00
  7.59869910E+00 -1.51973982E+01  7.59869910E+00  7.59869910E+00 -1.51973982E+01
  7.59869910E+00  7.59869910E+00 -1.51973982E+01  7.59869910E+00  7.59869910E+00
 -1.51973982E+01  7.59869910E+00  7.59869910E+00 -1.51973982E+01  7.59869910E+00
  7.59869910E+00 -1.51973982E+01  7.59869910E+00  7.59869910E+00 -1.51973982E+01
  7.59869910E+00  7.59869910E+00 -1.51973982E+01  7.59869910E+00  7.59869910E+00
 -1.51973982E+01  7.59869910E+00  7.59869910E+00 -1.51973982E+01  7.59869910E+00
  7.59869910E+00 -1.51973982E+01  7.59869910E+00  7.59869910E+00 -1.51973982E+01
  7.59869910E+00  7.59869910E+00 -1.51973982E+01  7.59869910E+00  7.59869910E+00
 -1.51973982E+01  7.59869910E+00  7.59869910E+00 -1.51973982E+01  7.59869910E+00
  7.59869910E+00 -1.51973982E+01  7.59869910E+00  7.59869910E+00 -1.51973982E+01
  7.59869910E+00  7.59869910E+00 -1.51973982E+01  7.59869910E+00  7.59869910E+00
 -1.51973982E+01  7.59869910E+00  7.59869910E+00 -1.51973982E+01  7.59869910E+00
  7.59869910E+00 -1.51973982E+01  7.59869910E+00  7.59869910E+00 -1.51973982E+01
  7.59869910E+00  7.59869910E+00 -1.51973982E+01  7.59869910E+00  7.59869910E+00
 -1.51973982E+01  7.59869910E+00  7.59869910E+00 -1.51973982E+01  7.59869910E+00
  7.59869910E+00 -1.51973982E+01  7.59869910E+00  7.59869910E+00 -1.51973982E+01
  7.59869910E+00  7.59869910E+00 -1.51973982E+01  7.59869910E+00  7.59869910E+00
 -1.51973982E+01  7.59869910E+00  7.59869910E+00 -1.51973982E+01  7.59869910E+00
  7.59869910E+00 -1.51973982E+01  7.59869910E+00  7.59869910E+00 -1.51973982E+01
  7.59869910E+00  7.59869910E+00 -1.51973982E+01  7.59869910E+00  7.59869910E+00
 -1.51973982E+01  7.59869910E+00  7.59869910E+00 -1.51973982E+01  7.59869910E+00
  7.59869910E+00 -1.51973982E+01  7.59869910E+00  7.59869910E+00 -1.51973982E+01
  7.59869910E+00  7.59869910E+00 -1.51973982E+01  7.59869910E+00  7.59869910E+00
 -1.51973982E+01  7.59869910E+00  7.59869910E+00 -1.51973982E+01  7.59869910E+00
  7.59869910E+00 -1.51973982E+01  7.59869910E+00  7.59869910E+00 -1.51973982E+01
  7.59869910E+00  7.59869910E+00 -1.51973982E+01  7.59869910E+00  7.59869910E+00
 -1.51973982E+01  7.59869910E+00  7.59869910E+00 -1.51973982E+01  7.59869910E+00
  7.59869910E+00 -1.51973982E+01  7.59869910E+00  7.59869910E+00 -1.51973982E+01
  7.59869910E+00  7.59869910E+00 -1.51973982E+01  7.59869910E+00  7.59869910E+00
 -1.51973982E+01  7.59869910E+00  7.59869910E+00 -1.51973982E+01  7.59869910E+00
  7.59869910E+00 -1.51973982E+01  7.59869910E+00  7.59869910E+00 -1.51973982E+01
  7.59869910E+00  7.59869910E+00 -1.51973982E+01  7.59869910E+00  7.59869910E+00
 -1.51973982E+01  7.59869910E+00  7.59869910E+00 -1.51973982E+01  7.59869910E+00
  7.59869910E+00 -1.51973982E+01  7.59869910E+00  7.59869910E+00 -1.51973982E+01
  7.59869910E+00  7.59869910E+00 -1.51973982E+01  7.59869910E+00  7.59869910E+00
 -1.51973982E+01  7.59869910E+00  7.59869910E+00 -1.51973982E+01  7.59869910E+00
  7.59869910E+00 -1.51973982E+01  7.59869910E+00  7.59869910E+00 -1.51973982E+01
  7.59869910E+00  7.59869910E+00 -1.51973982E+01  7.59869910E+00  7.59869910E+00
 -1.51973982E+01  7.59869910E+00  7.59869910E+00 -1.51973982E+01  7.59869910E+00
  7.59869910E+00 -1.51973982E+01  7.59869910E+00  7.59869910E+00 -1.51973982E+01
  7.59869910E+00  7.59869910E+00 -1.51973982E+01  7.59869910E+00  7.59869910E+00
 -1.51973982E+01  7.59869910E+00  7.59869910E+00 -1.51973982E+01  7.59869910E+00
  7.59869910E+00 -1.51973982E+01  7.59869910E+00  7.59869910E+00 -1.51973982E+01
  7.59869910E+00  7.59869910E+00 -1.51973982E+01  7.59869910E+00  7.59869910E+00
 -1.51973982E+01  7.59869910E+00  7.59869910E+00 -1.51973982E+01  7.59869910E+00
  7.59869910E+00 -1.51973982E+01  7.59869910E+00  7.59869910E+00 -1.51973982E+01
  7.59869910E+00  7.59869910E+00 -1.51973982E+01  7.59869910E+00  7.59869910E+00
 -1.51973982E+01  7.59869910E+00  7.59869910E+00 -1.51973982E+01  7.59869910E+00
  7.59869910E+00 -1.51973982E+01  7.59869910E+00  7.59869910E+00 -1.51973982E+01
  7.59869910E+00  7.59869910E+00 -1.51973982E+01  7.59869910E+00  7.59869910E+00
 -1.51973982E+01  7.59869910E+00  7.59869910E+00 -1.51973982E+01  7.59869910E+00
  7.59869910E+00 -1.51973982E+01  7.59869910E+00  7.59869910E+00 -1.51973982E+01
  7.59869910E+00  7.59869910E+00 -1.51973982E+01  7.59869910E+00  7.59869910E+00
 -1.51973982E+01  7.59869910E+00  7.59869910E+00 -1.51973982E+01  7.59869910E+00
  7.59869910E+00 -1.51973982E+01  7.59869910E+00  7.59869910E+00 -1.51973982E+01
  7.59869910E+00  7.59869910E+00 -1.51973982E+01  7.59869910E+00  7.59869910E+00
 -1.51973982E+01  7.59869910E+00  7.59869910E+00 -1.51973982E+01  7.59869910E+00
  7.59869910E+00 -1.51973982E+01  7.59869910E+00  7.59869910E+00 -1.51973982E+01
  7.59869910E+00  7.59869910E+00 -1.51973982E+01  7.59869910E+00  7.59869910E+00
 -1.51973982E+01  7.59869910E+00  7.59869910E+00 -1.51973982E+01  7.59869910E+00
  7.59869910E+00 -1.51973982E+01  7.59869910E+00  7.59869910E+00 -1.51973982E+01
  7.59869910E+00  7.59869910E+00 -1.51973982E+01  7.59869910E+00  7.59869910E+00
 -1.51973982E+01  7.59869910E+00  7.59869910E+00 -1.51973982E+01  7.59869910E+00
  7.59869910E+00 -1.51973982E+01  7.59869910E+00  7.59869910E+00 -1.51973982E+01
  7.59869910E+00  7.59869910E+00 -1.51973982E+01  7.59869910E+00  7.59869910E+00
 -1.51973982E+01  7.59869910E+00  7.59869910E+00 -1.51973982E+01  7.59869910E+00
  7.59869910E+00 -1.51973982E+01  7.59869910E+00  7.59869910E+00 -1.51973982E+01
  7.59869910E+00  7.59869910E+00 -1.51973982E+01  7.59869910E+00  7.59869910E+00
 -1.51973982E+01  7.59869910E+00  7.59869910E+00 -1.51973982E+01  7.59869910E+00
  7.59869910E+00 -1.51973982E+01  7.59869910E+00  7.59869910E+00 -1.51973982E+01
  7.59869910E+00  7.59869910E+00 -1.51973982E+01  7.59869910E+00  7.59869910E+00
 -1.51973982E+01  7.59869910E+00  7.59869910E+00 -1.51973982E+01  7.59869910E+00
  7.59869910E+00 -1.51973982E+01  7.59869910E+00  7.59869910E+00 -1.51973982E+01
  7.59869910E+00  7.59869910E+00 -1.51973982E+01  7.59869910E+00  7.59869910E+00
 -1.51973982E+01  7.59869910E+00  7.59869910E+00 -1.51973982E+01  7.59869910E+00
  7.59869910E+00 -1.51973982E+01  7.59869910E+00  7.59869910E+00 -1.51973982E+01
  7.59869910E+00  7.59869910E+00 -1.51973982E+01  7.59869910E+00  7.59869910E+00
 -1.51973982E+01  7.59869910E+00  7.59869910E+00 -1.51973982E+01  7.59869910E+00
  7.59869910E+00 -1.51973982E+01  7.59869910E+00  7.59869910E+00 -1.51973982E+01
  7.59869910E+00  7.59869910E+00 -1.51973982E+01  7.59869910E+00  7.59869910E+00
 -1.51973982E+01  7.59869910E+00  7.59869910E+00 -1.51973982E+01  7.59869910E+00
  7.59869910E+00 -1.51973982E+01  7.59869910E+00  7.59869910E+00 -1.51973982E+01
  7.59869910E+00  7.59869910E+00 -1.51973982E+01  7.59869910E+00  7.59869910E+00
 -1.51973982E+01  7.59869910E+00  7.59869910E+00 -1.51973982E+01  7.59869910E+00
  7.59869910E+00 -1.51973982E+01  7.59869910E+00  7.59869910E+00 -1.51973982E+01
  7.59869910E+00  7.59869910E+00 -1.51973982E+01  7.59869910E+00  7.59869910E+00
 -1.51973982E+01  7.59869910E+00  7.59869910E+00 -1.51973982E+01  7.59869910E+00
  7.59869910E+00 -1.51973982E+01  7.59869910E+00  7.59869910E+00 -1.51973982E+01
  7.59869910E+00  7.59869910E+00 -1.51973982E+01  7.59869910E+00  7.59869910E+00
 -1.51973982E+01  7.59869910E+00  7.59869910E+00 -1.51973982E+01  7.59869910E+00
  7.59869910E+00 -1.51973982E+01  7.59869910E+00  7.59869910E+00 -1.51973982E+01
  7.59869910E+00  7.59869910E+00 -1.51973982E+01  7.59869910E+00  7.59869910E+00
 -1.51973982E+01  7.59869910E+00  7.59869910E+00 -1.51973982E+01  7.59869910E+00
  7.59869910E+00 -1.51973982E+01  7.59869910E+00  7.59869910E+00 -1.51973982E+01
  7.59869910E+00  7.59869910E+00 -1.51973982E+01  7.59869910E+00  7.59869910E+00
 -1.51973982E+01  7.59869910E+00  7.59869910E+00 -1.51973982E+01  7.59869910E+00
  7.59869910E+00 -1.51973982E+01  7.59869910E+00  7.59869910E+00 -1.51973982E+01
  7.59869910E+00  7.59869910E+00 -1.51973982E+01  7.59869910E+00  7.59869910E+00
 -1.51973982E+01  7.59869910E+00  7.59869910E+00 -1.51973982E+01  7.59869910E+00
  7.59869910E+00 -1.51973982E+01  7.59869910E+00  7.59869910E+00 -1.51973982E+01
  7.59869910E+00  7.59869910E+00 -1.51973982E+01  7.59869910E+00  7.59869910E+00
 -1.51973982E+01  7.59869910E+00  7.59869910E+00 -1.51973982E+01  7.59869910E+00
  7.59869910E+00 -1.51973982E+01  7.59869910E+00  7.59869910E+00 -1.51973982E+01
  7.59869910E+00  7.59869910E+00 -1.51973982E+01  7.59869910E+00  7.59869910E+00
 -1.51973982E+01  7.59869910E+00  7.59869910E+00 -1.51973982E+01  7.59869910E+00
  7.59869910E+00 -1.51973982E+01  7.59869910E+00  7.59869910E+00 -1.51973982E+01
  7.59869910E+00  7.59869910E+00 -1.51973982E+01  7.59869910E+00  7.59869910E+00
 -1.51973982E+01  7.59869910E+00  7.59869910E+00 -1.51973982E+01  7.59869910E+00
  7.59869910E+00 -1.51973982E+01  7.59869910E+00  7.59869910E+00 -1.51973982E+01
  7.59869910E+00  7.59869910E+00 -1.51973982E+01  7.59869910E+00  7.59869910E+00
 -1.51973982E+01  7.59869910E+00  7.59869910E+00 -1.51973982E+01  7.59869910E+00
  7.59869910E+00 -1.51973982E+01  7.59869910E+00  7.59869910E+00 -1.51973982E+01
  7.59869910E+00  7.59869910E+00 -1.51973982E+01  7.59869910E+00  7.59869910E+00
 -1.51973982E+01  7.59869910E+00  7.59869910E+00 -1.51973982E+01  7.59869910E+00
  7.59869910E+00 -1.51973982E+01  7.59869910E+00  7.59869910E+00 -1.51973982E+01
  7.59869910E+00  7.59869910E+00 -1.51973982E+01  7.59869910E+00  7.59869910E+00
 -1.51973982E+01  7.59869910E+00  7.59869910E+00 -1.51973982E+01  7.59869910E+00
  7.59869910E+00 -1.51973982E+01  7.59869910E+00  7.59869910E+00 -1.51973982E+01
  7.59869910E+00  7.59869910E+00 -1.51973982E+01  7.59869910E+00  7.59869910E+00
 -1.51973982E+01  7.59869910E+00  7.59869910E+00 -1.51973982E+01  7.59869910E+00
  7.59869910E+00 -1.51973982E+01  7.59869910E+00  7.59869910E+00 -1.51973982E+01
  7.59869910E+00  7.59869910E+00 -1.51973982E+01  7.59869910E+00  7.59869910E+00
 -1.51973982E+01  7.59869910E+00  7.59869910E+00 -1.51973982E+01  7.59869910E+00
  7.59869910E+00 -1.51973982E+01  7.59869910E+00  7.59869910E+00 -1.51973982E+01
  7.59869910E+00  7.59869910E+00 -1.51973982E+01  7.59869910E+00  7.59869910E+00
 -1.51973982E+01  7.59869910E+00  7.59869910E+00 -1.51973982E+01  7.59869910E+00
  7.59869910E+00 -1.51973982E+01  7.59869910E+00  7.59869910E+00 -1.51973982E+01
  7.59869910E+00  7.59869910E+00 -1.51973982E+01  7.59869910E+00  7.59869910E+00
 -1.51973982E+01  7.59869910E+00  7.59869910E+00 -1.51973982E+01  7.59869910E+00
  7.59869910E+00 -1.51973982E+01  7.59869910E+00  7.59869910E+00 -1.51973982E+01
  7.59869910E+00  7.59869910E+00 -1.51973982E+01  7.59869910E+00  7.59869910E+00
 -1.51973982E+01  7.59869910E+00  7.59869910E+00 -1.51973982E+01  7.59869910E+00
  7.59869910E+00 -1.51973982E+01  7.59869910E+00  7.59869910E+00 -1.51973982E+01
  7.59869910E+00  7.59869910E+00 -1.51973982E+01  7.59869910E+00  7.59869910E+00
 -1.51973982E+01  7.59869910E+00  7.59869910E+00 -1.51973982E+01  7.59869910E+00
  7.59869910E+00 -1.51973982E+01  7.59869910E+00  7.59869910E+00 -1.51973982E+01
  7.59869910E+00  7.59869910E+00 -1.51973982E+01  7.59869910E+00  7.59869910E+00
 -1.51973982E+01  7.59869910E+00  7.59869910E+00 -1.51973982E+01  7.59869910E+00
  7.59869910E+00 -1.51973982E+01  7.59869910E+00  7.59869910E+00 -1.51973982E+01
  7.59869910E+00  7.59869910E+00 -1.51973982E+01  7.59869910E+00  7.59869910E+00
 -1.51973982E+01  7.59869910E+00  7.59869910E+00 -1.51973982E+01  7.59869910E+00
  7.59869910E+00 -1.51973982E+01  7.59869910E+00  7.59869910E+00 -1.51973982E+01
  7.59869910E+00  7.59869910E+00 -1.51973982E+01  7.59869910E+00  7.59869910E+00
 -1.51973982E+01  7.59869910E+00  7.59869910E+00 -1.51973982E+01  7.59869910E+00
  7.59869910E+00 -1.51973982E+01  7.59869910E+00  7.59869910E+00 -1.51973982E+01
  7.59869910E+00  7.59869910E+00 -1.51973982E+01  7.59869910E+00  7.59869910E+00
 -1.51973982E+01  7.59869910E+00  7.59869910E+00 -1.51973982E+01  7.59869910E+00
  7.59869910E+00 -1.51973982E+01  7.59869910E+00  7.59869910E+00 -1.51973982E+01
  7.59869910E+00  7.59869910E+00 -1.51973982E+01  7.59869910E+00  7.59869910E+00
 -1.51973982E+01  7.59869910E+00  7.59869910E+00 -1.51973982E+01  7.59869910E+00
  7.59869910E+00 -1.51973982E+01  7.59869910E+00  7.59869910E+00 -1.51973982E+01
  7.59869910E+00  7.59869910E+00 -1.51973982E+01  7.59869910E+00  7.59869910E+00
 -1.51973982E+01  7.59869910E+00  7.59869910E+00 -1.51973982E+01  7.59869910E+00
  7.59869910E+00 -1.51973982E+01  7.59869910E+00  7.59869910E+00 -1.51973982E+01
  7.59869910E+00  7.59869910E+00 -1.51973982E+01  7.59869910E+00  7.59869910E+00
 -1.51973982E+01  7.59869910E+00  7.59869910E+00 -1.51973982E+01  7.59869910E+00
  7.59869910E+00 -1.51973982E+01  7.59869910E+00  7.59869910E+00 -1.51973982E+01
  7.59869910E+00  7.59869910E+00 -1.51973982E+01  7.59869910E+00  7.59869910E+00
 -1.51973982E+01  7.59869910E+00  7.59869910E+00 -1.51973982E+01  7.59869910E+00
  7.59869910E+00 -1.51973982E+01  7.59869910E+00  7.59869910E+00 -1.51973982E+01
  7.59869910E+00  7.59869910E+00 -1.51973982E+01  7.59869910E+00  7.59869910E+00
 -1.51973982E+01  7.59869910E+00  7.59869910E+00 -1.51973982E+01  7.59869910E+00
  7.59869910E+00 -1.51973982E+01  7.59869910E+00  7.59869910E+00 -1.51973982E+01
  7.59869910E+00  7.59869910E+00 -1.51973982E+01  7.59869910E+00  7.59869910E+00
 -1.51973982E+01  7.59869910E+00  7.59869910E+00 -1.51973982E+01  7.59869910E+00
  7.59869910E+00 -1.51973982E+01  7.59869910E+00  7.59869910E+00 -1.51973982E+01
  7.59869910E+00  7.59869910E+00 -1.51973982E+01  7.59869910E+00  7.59869910E+00
 -1.51973982E+01  7.59869910E+00  7.59869910E+00 -1.51973982E+01  7.59869910E+00
  7.59869910E+00 -1.51973982E+01  7.59869910E+00  7.59869910E+00 -1.51973982E+01
  7.59869910E+00  7.59869910E+00 -1.51973982E+01  7.59869910E+00  7.59869910E+00
 -1.51973982E+01  7.59869910E+00  7.59869910E+00 -1.51973982E+01  7.59869910E+00
  7.59869910E+00 -1.51973982E+01  7.59869910E+00  7.59869910E+00 -1.51973982E+01
  7.59869910E+00  7.59869910E+00 -1.51973982E+01  7.59869910E+00  7.59869910E+00
 -1.51973982E+01  7.59869910E+00  7.59869910E+00 -1.51973982E+01  7.59869910E+00
  7.59869910E+00 -1.51973982E+01  7.59869910E+00  7.59869910E+00 -1.51973982E+01
  7.59869910E+00  7.59869910E+00 -1.51973982E+01  7.59869910E+00  7.59869910E+00
 -1.51973982E+01  7.59869910E+00  7.59869910E+00 -1.51973982E+01  7.59869910E+00
  7.59869910E+00 -1.51973982E+01  7.59869910E+00  7.59869910E+00 -1.51973982E+01
  7.59869910E+00  7.59869910E+00 -1.51973982E+01  7.59869910E+00  7.59869910E+00
 -1.51973982E+01  7.59869910E+00  7.59869910E+00 -1.51973982E+01  7.59869910E+00
  7.59869910E+00 -1.51973982E+01  7.59869910E+00  7.59869910E+00 -1.51973982E+01
  7.59869910E+00  7.59869910E+00 -1.51973982E+01  7.59869910E+00  7.59869910E+00
 -1.51973982E+01  7.59869910E+00  7.59869910E+00 -1.51973982E+01  7.59869910E+00
  7.59869910E+00 -1.51973982E+01  7.59869910E+00  7.59869910E+00 -1.51973982E+01
  7.59869910E+00  7.59869910E+00 -1.51973982E+01  7.59869910E+00  7.59869910E+00
 -1.51973982E+01  7.59869910E+00  7.59869910E+00 -1.51973982E+01  7.59869910E+00
  7.59869910E+00 -1.51973982E+01  7.59869910E+00  7.59869910E+00 -1.51973982E+01
  7.59869910E+00  7.59869910E+00 -1.51973982E+01  7.59869910E+00  7.59869910E+00
 -1.51973982E+01  7.59869910E+00  7.59869910E+00 -1.51973982E+01  7.59869910E+00
  7.59869910E+00 -1.51973982E+01  7.59869910E+00  7.59869910E+00 -1.51973982E+01
  7.59869910E+00  7.59869910E+00 -1.51973982E+01  7.59869910E+00  7.59869910E+00
 -1.51973982E+01  7.59869910E+00  7.59869910E+00 -1.51973982E+01  7.59869910E+00
  7.59869910E+00 -1.51973982E+01  7.59869910E+00  7.59869910E+00 -1.51973982E+01
  7.59869910E+00  7.59869910E+00 -1.51973982E+01  7.59869910E+00  7.59869910E+00
 -1.51973982E+01  7.59869910E+00  7.59869910E+00 -1.51973982E+01  7.59869910E+00
  7.59869910E+00 -1.51973982E+01  7.59869910E+00  7.59869910E+00 -1.51973982E+01
  7.59869910E+00  7.59869910E+00 -1.51973982E+01  7.59869910E+00  7.59869910E+00
 -1.51973982E+01  7.59869910E+00  7.59869910E+00 -1.51973982E+01  7.59869910E+00
  7.59869910E+00 -1.51973982E+01  7.59869910E+00  7.59869910E+00 -1.51973982E+01
  7.59869910E+00  7.59869910E+00 -1.51973982E+01  7.59869910E+00  7.59869910E+00
 -1.51973982E+01  7.59869910E+00  7.59869910E+00 -1.51973982E+01  7.59869910E+00
  7.59869910E+00 -1.51973982E+01  7.59869910E+00  7.59869910E+00 -1.51973982E+01
  7.59869910E+00  7.59869910E+00 -1.51973982E+01  7.59869910E+00  7.59869910E+00
 -1.51973982E+01  7.59869910E+00  7.59869910E+00 -1.51973982E+01  7.59869910E+00
  7.59869910E+00 -1.51973982E+01  7.59869910E+00  7.59869910E+00 -1.51973982E+01
  7.59869910E+00  7.59869910E+00 -1.51973982E+01  7.59869910E+00  7.59869910E+00
 -1.51973982E+01  7.59869910E+00  7.59869910E+00 -1.51973982E+01  7.59869910E+00
  7.59869910E+00 -1.51973982E+01  7.59869910E+00  7.59869910E+00 -1.51973982E+01
  7.59869910E+00  7.59869910E+00 -1.51973982E+01  7.59869910E+00  7.59869910E+00
 -1.51973982E+01  7.59869910E+00  7.59869910E+00 -1.51973982E+01  7.59869910E+00
  7.59869910E+00 -1.51973982E+01  7.59869910E+00  7.59869910E+00 -1.51973982E+01
  7.59869910E+00  7.59869910E+00 -1.51973982E+01  7.59869910E+00  7.59869910E+00
 -1.51973982E+01  7.59869910E+00  7.59869910E+00 -1.51973982E+01  7.59869910E+00
  7.59869910E+00 -1.51973982E+01  7.59869910E+00  7.59869910E+00 -1.51973982E+01
  7.59869910E+00  7.59869910E+00 -1.51973982E+01  7.59869910E+00  7.59869910E+00
 -1.51973982E+01  7.59869910E+00  7.59869910E+00 -1.51973982E+01  7.59869910E+00
  7.59869910E+00 -1.51973982E+01  7.59869910E+00  7.59869910E+00 -1.51973982E+01
  7.59869910E+00  7.59869910E+00 -1.51973982E+01  7.59869910E+00  7.59869910E+00
 -1.51973982E+01  7.59869910E+00  7.59869910E+00 -1.51973982E+01  7.59869910E+00
  7.59869910E+00 -1.51973982E+01  7.59869910E+00  7.59869910E+00 -1.51973982E+01
  7.59869910E+00  7.59869910E+00 -1.51973982E+01  7.59869910E+00  7.59869910E+00
 -1.51973982E+01  7.59869910E+00  7.59869910E+00 -1.51973982E+01  7.59869910E+00
  7.59869910E+00 -1.51973982E+01  7.59869910E+00  7.59869910E+00 -1.51973982E+01
  7.59869910E+00  7.59869910E+00 -1.51973982E+01  7.59869910E+00  7.59869910E+00
 -1.51973982E+01  7.59869910E+00  7.59869910E+00 -1.51973982E+01  7.59869910E+00
  7.59869910E+00 -1.51973982E+01  7.59869910E+00  7.59869910E+00 -1.51973982E+01
  7.59869910E+00  7.59869910E+00 -1.51973982E+01  7.59869910E+00  7.59869910E+00
 -1.51973982E+01  7.59869910E+00  7.59869910E+00 -1.51973982E+01  7.59869910E+00
  7.59869910E+00 -1.51973982E+01  7.59869910E+00  7.59869910E+00 -1.51973982E+01
  7.59869910E+00  7.59869910E+00 -1.51973982E+01  7.59869910E+00  7.59869910E+00
 -1.51973982E+01  7.59869910E+00  7.59869910E+00 -1.51973982E+01  7.59869910E+00
  7.59869910E+00 -1.51973982E+01  7.59869910E+00  7.59869910E+00 -1.51973982E+01
  7.59869910E+00  7.59869910E+00 -1.51973982E+01  7.59869910E+00  7.59869910E+00
 -1.51973982E+01  7.59869910E+00  7.59869910E+00 -1.51973982E+01  7.59869910E+00
  7.59869910E+00 -1.51973982E+01  7.59869910E+00  7.59869910E+00 -1.51973982E+01
  7.59869910E+00  7.59869910E+00 -1.51973982E+01  7.59869910E+00  7.59869910E+00
 -1.51973982E+01  7.59869910E+00  7.59869910E+00 -1.51973982E+01  7.59869910E+00
  7.59869910E+00 -1.51973982E+01  7.59869910E+00  7.59869910E+00 -1.51973982E+01
  7.59869910E+00  7.59869910E+00 -1.51973982E+01  7.59869910E+00  7.59869910E+00
 -1.51973982E+01  7.59869910E+00  7.59869910E+00 -1.51973982E+01  7.59869910E+00
  7.59869910E+00 -1.51973982E+01  7.59869910E+00  7.59869910E+00 -1.51973982E+01
  7.59869910E+00  7.59869910E+00 -1.51973982E+01  7.59869910E+00  7.59869910E+00
 -1.51973982E+01  7.59869910E+00  7.59869910E+00 -1.51973982E+01  7.59869910E+00
  7.59869910E+00 -1.51973982E+01  7.59869910E+00  7.59869910E+00 -1.51973982E+01
  7.59869910E+00  7.59869910E+00 -1.51973982E+01  7.59869910E+00  7.59869910E+00
 -1.51973982E+01  7.59869910E+00  7.59869910E+00 -1.51973982E+01  7.59869910E+00
  7.59869910E+00 -1.51973982E+01  7.59869910E+00  7.59869910E+00 -1.51973982E+01
  7.59869910E+00  7.59869910E+00 -1.51973982E+01  7.59869910E+00  7.59869910E+00
 -1.51973982E+01  7.59869910E+00  7.59869910E+00 -1.51973982E+01  7.59869910E+00
  7.59869910E+00 -1.51973982E+01  7.59869910E+00  7.59869910E+00 -1.51973982E+01
  7.59869910E+00  7.59869910E+00 -1.51973982E+01  7.59869910E+00  7.59869910E+00
 -1.51973982E+01  7.59869910E+00  7.59869910E+00 -1.51973982E+01  7.59869910E+00
  7.59869910E+00 -1.51973982E+01  7.59869910E+00  7.59869910E+00 -1.51973982E+01
  7.59869910E+00  7.59869910E+00 -1.51973982E+01  7.59869910E+00  7.59869910E+00
 -1.51973982E+01  7.59869910E+00  7.59869910E+00 -1.51973982E+01  7.59869910E+00
  7.59869910E+00 -1.51973982E+01  7.59869910E+00  7.59869910E+00 -1.51973982E+01
  7.59869910E+00  7.59869910E+00 -1.51973982E+01  7.59869910E+00  7.59869910E+00
 -1.51973982E+01  7.59869910E+00  7.59869910E+00 -1.51973982E+01  7.59869910E+00
  7.59869910E+00 -1.51973982E+01  7.59869910E+00  7.59869910E+00 -1.51973982E+01
  7.59869910E+00  7.59869910E+00 -1.51973982E+01  7.59869910E+00  7.59869910E+00
 -1.51973982E+01  7.59869910E+00  7.59869910E+00 -1.51973982E+01  7.59869910E+00
  7.59869910E+00 -1.51973982E+01  7.59869910E+00  7.59869910E+00 -1.51973982E+01
  7.59869910E+00  7.59869910E+00 -1.51973982E+01  7.59869910E+00  7.59869910E+00
 -1.51973982E+01  7.59869910E+00  7.59869910E+00 -1.51973982E+01  7.59869910E+00
  7.59869910E+00 -1.51973982E+01  7.59869910E+00  7.59869910E+00 -1.51973982E+01
  7.59869910E+00  7.59869910E+00 -1.51973982E+01  7.59869910E+00  7.59869910E+00
 -1.51973982E+01  7.59869910E+00  7.59869910E+00 -1.51973982E+01  7.59869910E+00
  7.59869910E+00 -1.51973982E+01  7.59869910E+00  7.59869910E+00 -1.51973982E+01
  7.59869910E+00  7.59869910E+00 -1.51973982E+01  7.59869910E+00  7.59869910E+00
 -1.51973982E+01  7.59869910E+00  7.59869910E+00 -1.51973982E+01  7.59869910E+00
  7.59869910E+00 -1.51973982E+01  7.59869910E+00  7.59869910E+00 -1.51973982E+01
  7.59869910E+00  7.59869910E+00 -1.51973982E+01  7.59869910E+00  7.59869910E+00
 -1.51973982E+01  7.59869910E+00  7.59869910E+00 -1.51973982E+01  7.59869910E+00
  7.59869910E+00 -1.51973982E+01  7.59869910E+00  7.59869910E+00 -1.51973982E+01
  7.59869910E+00  7.59869910E+00 -1.51973982E+01  7.59869910E+00  7.59869910E+00
 -1.51973982E+01  7.59869910E+00  7.59869910E+00 -1.51973982E+01  7.59869910E+00
  7.59869910E+00 -1.51973982E+01  7.59869910E+00  7.59869910E+00 -1.51973982E+01
  7.59869910E+00  7.59869910E+00 -1.51973982E+01  7.59869910E+00  7.59869910E+00
 -1.51973982E+01  7.59869910E+00  7.59869910E+00 -1.51973982E+01  7.59869910E+00
  7.59869910E+00 -1.51973982E+01  7.59869910E+00  7.59869910E+00 -1.51973982E+01
  7.59869910E+00  7.59869910E+00 -1.51973982E+01  7.59869910E+00  7.59869910E+00
 -1.51973982E+01  7.59869910E+00  7.59869910E+00 -1.51973982E+01  7.59869910E+00
  7.59869910E+00 -1.51973982E+01  7.59869910E+00  7.59869910E+00 -1.51973982E+01
  7.59869910E+00  7.59869910E+00 -1.51973982E+01  7.59869910E+00  7.59869910E+00
 -1.51973982E+01  7.59869910E+00  7.59869910E+00 -1.51973982E+01  7.59869910E+00
  7.59869910E+00 -1.51973982E+01  7.59869910E+00  7.59869910E+00 -1.51973982E+01
  7.59869910E+00  7.59869910E+00 -1.51973982E+01  7.59869910E+00  7.59869910E+00
 -1.51973982E+01  7.59869910E+00  7.59869910E+00 -1.51973982E+01  7.59869910E+00
  7.59869910E+00 -1.51973982E+01  7.59869910E+00  7.59869910E+00 -1.51973982E+01
  7.59869910E+00  7.59869910E+00 -1.51973982E+01  7.59869910E+00  7.59869910E+00
 -1.51973982E+01  7.59869910E+00  7.59869910E+00 -1.51973982E+01  7.59869910E+00
  7.59869910E+00 -1.51973982E+01  7.59869910E+00  7.59869910E+00 -1.51973982E+01
  7.59869910E+00  7.59869910E+00 -1.51973982E+01  7.59869910E+00  7.59869910E+00
 -1.51973982E+01  7.59869910E+00  7.59869910E+00 -1.51973982E+01  7.59869910E+00
  7.59869910E+00 -1.51973982E+01  7.59869910E+00  7.59869910E+00 -1.51973982E+01
  7.59869910E+00  7.59869910E+00 -1.51973982E+01  7.59869910E+00  7.59869910E+00
 -1.51973982E+01  7.59869910E+00  7.59869910E+00 -1.51973982E+01  7.59869910E+00
  7.59869910E+00 -1.51973982E+01  7.59869910E+00  7.59869910E+00 -1.51973982E+01
  7.59869910E+00  7.59869910E+00 -1.51973982E+01  7.59869910E+00  7.59869910E+00
 -1.51973982E+01  7.59869910E+00  7.59869910E+00 -1.51973982E+01  7.59869910E+00
  7.59869910E+00 -1.51973982E+01  7.59869910E+00  7.59869910E+00 -1.51973982E+01
  7.59869910E+00  7.59869910E+00 -1.51973982E+01  7.59869910E+00  7.59869910E+00
 -1.51973982E+01  7.59869910E+00  7.59869910E+00 -1.51973982E+01  7.59869910E+00
  7.59869910E+00 -1.51973982E+01  7.59869910E+00  7.59869910E+00 -1.51973982E+01
  7.59869910E+00  7.59869910E+00 -1.51973982E+01  7.59869910E+00  7.59869910E+00
 -1.51973982E+01  7.59869910E+00  7.59869910E+00 -1.51973982E+01  7.59869910E+00
  7.59869910E+00 -1.51973982E+01  7.59869910E+00  7.59869910E+00 -1.51973982E+01
  7.59869910E+00  7.59869910E+00 -1.51973982E+01  7.59869910E+00  7.59869910E+00
 -1.51973982E+01  7.59869910E+00  7.59869910E+00 -1.51973982E+01  7.59869910E+00
  7.59869910E+00 -1.51973982E+01  7.59869910E+00  7.59869910E+00 -1.51973982E+01
  7.59869910E+00  7.59869910E+00 -1.51973982E+01  7.59869910E+00  7.59869910E+00
 -1.51973982E+01  7.59869910E+00  7.59869910E+00 -1.51973982E+01  7.59869910E+00
  7.59869910E+00 -1.51973982E+01  7.59869910E+00  7.59869910E+00 -1.51973982E+01
  7.59869910E+00  7.59869910E+00 -1.51973982E+01  7.59869910E+00  7.59869910E+00
 -1.51973982E+01  7.59869910E+00  7.59869910E+00 -1.51973982E+01  7.59869910E+00
  7.59869910E+00 -1.51973982E+01  7.59869910E+00  7.59869910E+00 -1.51973982E+01
  7.59869910E+00  7.59869910E+00 -1.51973982E+01  7.59869910E+00  7.59869910E+00
 -1.51973982E+01  7.59869910E+00  7.59869910E+00 -1.51973982E+01  7.59869910E+00
  7.59869910E+00 -1.51973982E+01  7.59869910E+00  7.59869910E+00 -1.51973982E+01
  7.59869910E+00  7.59869910E+00 -1.51973982E+01  7.59869910E+00  7.59869910E+00
 -1.51973982E+01  7.59869910E+00  7.59869910E+00 -1.51973982E+01  7.59869910E+00
  7.59869910E+00 -1.51973982E+01  7.59869910E+00  7.59869910E+00 -1.51973982E+01
  7.59869910E+00  7.59869910E+00 -1.51973982E+01  7.59869910E+00  7.59869910E+00
 -1.51973982E+01  7.59869910E+00  7.59869910E+00 -1.51973982E+01  7.59869910E+00
  7.59869910E+00 -1.51973982E+01  7.59869910E+00  7.59869910E+00 -1.51973982E+01
  7.59869910E+00  7.59869910E+00 -1.51973982E+01  7.59869910E+00  7.59869910E+00
 -1.51973982E+01  7.59869910E+00  7.59869910E+00 -1.51973982E+01  7.59869910E+00
  7.59869910E+00 -1.51973982E+01  7.59869910E+00  7.59869910E+00 -1.51973982E+01
  7.59869910E+00  7.59869910E+00 -1.51973982E+01  7.59869910E+00  7.59869910E+00
 -1.51973982E+01  7.59869910E+00  7.59869910E+00 -1.51973982E+01  7.59869910E+00
  7.59869910E+00 -1.51973982E+01  7.59869910E+00  7.59869910E+00 -1.51973982E+01
  7.59869910E+00  7.59869910E+00 -1.51973982E+01  7.59869910E+00  7.59869910E+00
 -1.51973982E+01  7.59869910E+00  7.59869910E+00 -1.51973982E+01  7.59869910E+00
  7.59869910E+00 -1.51973982E+01  7.59869910E+00  7.59869910E+00 -1.51973982E+01
  7.59869910E+00  7.59869910E+00 -1.51973982E+01  7.59869910E+00  7.59869910E+00
 -1.51973982E+01  7.59869910E+00  7.59869910E+00 -1.51973982E+01  7.59869910E+00
  7.59869910E+00 -1.51973982E+01  7.59869910E+00  7.59869910E+00 -1.51973982E+01
  7.59869910E+00  7.59869910E+00 -1.51973982E+01  7.59869910E+00  7.59869910E+00
 -1.51973982E+01  7.59869910E+00  7.59869910E+00 -1.51973982E+01  7.59869910E+00
  7.59869910E+00 -1.51973982E+01  7.59869910E+00  7.59869910E+00 -1.51973982E+01
  7.59869910E+00  7.59869910E+00 -1.51973982E+01  7.59869910E+00  7.59869910E+00
 -1.51973982E+01  7.59869910E+00  7.59869910E+00 -1.51973982E+01  7.59869910E+00
  7.59869910E+00 -1.51973982E+01  7.59869910E+00  7.59869910E+00 -1.51973982E+01
  7.59869910E+00  7.59869910E+00 -1.51973982E+01  7.59869910E+00  7.59869910E+00
 -1.51973982E+01  7.59869910E+00  7.59869910E+00 -1.51973982E+01  7.59869910E+00
  7.59869910E+00 -1.51973982E+01  7.59869910E+00  7.59869910E+00 -1.51973982E+01
  7.59869910E+00  7.59869910E+00 -1.51973982E+01  7.59869910E+00  7.59869910E+00
 -1.51973982E+01  7.59869910E+00  7.59869910E+00 -1.51973982E+01  7.59869910E+00
  7.59869910E+00 -1.51973982E+01  7.59869910E+00  7.59869910E+00 -1.51973982E+01
  7.59869910E+00  7.59869910E+00 -1.51973982E+01  7.59869910E+00  7.59869910E+00
 -1.51973982E+01  7.59869910E+00  7.59869910E+00 -1.51973982E+01  7.59869910E+00
  7.59869910E+00 -1.51973982E+01  7.59869910E+00  7.59869910E+00 -1.51973982E+01
  7.59869910E+00  7.59869910E+00 -1.51973982E+01  7.59869910E+00  7.59869910E+00
 -1.51973982E+01  7.59869910E+00  7.59869910E+00 -1.51973982E+01  7.59869910E+00
  7.59869910E+00 -1.51973982E+01  7.59869910E+00  7.59869910E+00 -1.51973982E+01
  7.59869910E+00  7.59869910E+00 -1.51973982E+01  7.59869910E+00  7.59869910E+00
 -1.51973982E+01  7.59869910E+00  7.59869910E+00 -1.51973982E+01  7.59869910E+00
  7.59869910E+00 -1.51973982E+01  7.59869910E+00  7.59869910E+00 -1.51973982E+01
  7.59869910E+00  7.59869910E+00 -1.51973982E+01  7.59869910E+00  7.59869910E+00
 -1.51973982E+01  7.59869910E+00  7.59869910E+00 -1.51973982E+01  7.59869910E+00
  7.59869910E+00 -1.51973982E+01  7.59869910E+00  7.59869910E+00 -1.51973982E+01
  7.59869910E+00  7.59869910E+00 -1.51973982E+01  7.59869910E+00  7.59869910E+00
 -1.51973982E+01  7.59869910E+00  7.59869910E+00 -1.51973982E+01  7.59869910E+00
  7.59869910E+00 -1.51973982E+01  7.59869910E+00  7.59869910E+00 -1.51973982E+01
  7.59869910E+00  7.59869910E+00 -1.51973982E+01  7.59869910E+00  7.59869910E+00
 -1.51973982E+01  7.59869910E+00  7.59869910E+00 -1.51973982E+01  7.59869910E+00
  7.59869910E+00 -1.51973982E+01  7.59869910E+00  7.59869910E+00 -1.51973982E+01
  7.59869910E+00  7.59869910E+00 -1.51973982E+01  7.59869910E+00  7.59869910E+00
 -1.51973982E+01  7.59869910E+00  7.59869910E+00 -1.51973982E+01  7.59869910E+00
  7.59869910E+00 -1.51973982E+01  7.59869910E+00  7.59869910E+00 -1.51973982E+01
  7.59869910E+00  7.59869910E+00 -1.51973982E+01  7.59869910E+00  7.59869910E+00
 -1.51973982E+01  7.59869910E+00  7.59869910E+00 -1.51973982E+01  7.59869910E+00
  7.59869910E+00 -1.51973982E+01  7.59869910E+00  7.59869910E+00 -1.51973982E+01
  7.59869910E+00  7.59869910E+00 -1.51973982E+01  7.59869910E+00  7.59869910E+00
 -1.51973982E+01  7.59869910E+00  7.59869910E+00 -1.51973982E+01  7.59869910E+00
  7.59869910E+00 -1.51973982E+01  7.59869910E+00  7.59869910E+00 -1.51973982E+01
  7.59869910E+00  7.59869910E+00 -1.51973982E+01  7.59869910E+00  7.59869910E+00
 -1.51973982E+01  7.59869910E+00  7.59869910E+00 -1.51973982E+01  7.59869910E+00
  7.59869910E+00 -1.51973982E+01  7.59869910E+00  7.59869910E+00 -1.51973982E+01
  7.59869910E+00  7.59869910E+00 -1.51973982E+01  7.59869910E+00  7.59869910E+00
 -1.51973982E+01  7.59869910E+00  7.59869910E+00 -1.51973982E+01  7.59869910E+00
  7.59869910E+00 -1.51973982E+01  7.59869910E+00  7.59869910E+00 -1.51973982E+01
  7.59869910E+00  7.59869910E+00 -1.51973982E+01  7.59869910E+00  7.59869910E+00
 -1.51973982E+01  7.59869910E+00  7.59869910E+00 -1.51973982E+01  7.59869910E+00
  7.59869910E+00 -1.51973982E+01  7.59869910E+00  7.59869910E+00 -1.51973982E+01
  7.59869910E+00  7.59869910E+00 -1.51973982E+01  7.59869910E+00  7.59869910E+00
 -1.51973982E+01  7.59869910E+00  7.59869910E+00 -1.51973982E+01  7.59869910E+00
  7.59869910E+00 -1.51973982E+01  7.59869910E+00  7.59869910E+00 -1.51973982E+01
  7.59869910E+00  7.59869910E+00 -1.51973982E+01  7.59869910E+00  7.59869910E+00
 -1.51973982E+01  7.59869910E+00  7.59869910E+00 -1.51973982E+01  7.59869910E+00
  7.59869910E+00 -1.51973982E+01  7.59869910E+00  7.59869910E+00 -1.51973982E+01
  7.59869910E+00  7.59869910E+00 -1.51973982E+01  7.59869910E+00  7.59869910E+00
 -1.51973982E+01  7.59869910E+00  7.59869910E+00 -1.51973982E+01  7.59869910E+00
  7.59869910E+00 -1.51973982E+01  7.59869910E+00  7.59869910E+00 -1.51973982E+01
  7.59869910E+00  7.59869910E+00 -1.51973982E+01  7.59869910E+00  7.59869910E+00
 -1.51973982E+01  7.59869910E+00  7.59869910E+00 -1.51973982E+01  7.59869910E+00
  7.59869910E+00 -1.51973982E+01  7.59869910E+00  7.59869910E+00 -1.51973982E+01
  7.59869910E+00  7.59869910E+00 -1.51973982E+01  7.59869910E+00  7.59869910E+00
 -1.51973982E+01  7.59869910E+00  7.59869910E+00 -1.51973982E+01  7.59869910E+00
  7.59869910E+00 -1.51973982E+01  7.59869910E+00  7.59869910E+00 -1.51973982E+01
  7.59869910E+00  7.59869910E+00 -1.51973982E+01  7.59869910E+00  7.59869910E+00
 -1.51973982E+01  7.59869910E+00  7.59869910E+00 -1.51973982E+01  7.59869910E+00
  7.59869910E+00 -1.51973982E+01  7.59869910E+00  7.59869910E+00 -1.51973982E+01
  7.59869910E+00  7.59869910E+00 -1.51973982E+01  7.59869910E+00  7.59869910E+00
 -1.51973982E+01  7.59869910E+00  7.59869910E+00 -1.51973982E+01  7.59869910E+00
  7.59869910E+00 -1.51973982E+01  7.59869910E+00  7.59869910E+00 -1.51973982E+01
  7.59869910E+00  7.59869910E+00 -1.51973982E+01  7.59869910E+00  7.59869910E+00
 -1.51973982E+01  7.59869910E+00  7.59869910E+00 -1.51973982E+01  7.59869910E+00
  7.59869910E+00 -1.51973982E+01  7.59869910E+00  7.59869910E+00 -1.51973982E+01
  7.59869910E+00  7.59869910E+00 -1.51973982E+01  7.59869910E+00  7.59869910E+00
 -1.51973982E+01  7.59869910E+00  7.59869910E+00 -1.51973982E+01  7.59869910E+00
  7.59869910E+00 -1.51973982E+01  7.59869910E+00  7.59869910E+00 -1.51973982E+01
  7.59869910E+00  7.59869910E+00 -1.51973982E+01  7.59869910E+00  7.59869910E+00
 -1.51973982E+01  7.59869910E+00  7.59869910E+00 -1.51973982E+01  7.59869910E+00
  7.59869910E+00 -1.51973982E+01  7.59869910E+00  7.59869910E+00 -1.51973982E+01
  7.59869910E+00  7.59869910E+00 -1.51973982E+01  7.59869910E+00  7.59869910E+00
 -1.51973982E+01  7.59869910E+00  7.59869910E+00 -1.51973982E+01  7.59869910E+00
  7.59869910E+00 -1.51973982E+01  7.59869910E+00  7.59869910E+00 -1.51973982E+01
  7.59869910E+00  7.59869910E+00 -1.51973982E+01  7.59869910E+00  7.59869910E+00
 -1.51973982E+01  7.59869910E+00  7.59869910E+00 -1.51973982E+01  7.59869910E+00
  7.59869910E+00 -1.51973982E+01  7.59869910E+00  7.59869910E+00 -1.51973982E+01
  7.59869910E+00  7.59869910E+00 -1.51973982E+01  7.59869910E+00  7.59869910E+00
 -1.51973982E+01  7.59869910E+00  7.59869910E+00 -1.51973982E+01  7.59869910E+00
  7.59869910E+00 -1.51973982E+01  7.59869910E+00  7.59869910E+00 -1.51973982E+01
  7.59869910E+00  7.59869910E+00 -1.51973982E+01  7.59869910E+00  7.59869910E+00
 -1.51973982E+01  7.59869910E+00  7.59869910E+00 -1.51973982E+01  7.59869910E+00
  7.59869910E+00 -1.51973982E+01  7.59869910E+00  7.59869910E+00 -1.51973982E+01
  7.59869910E+00  7.59869910E+00 -1.51973982E+01  7.59869910E+00  7.59869910E+00
 -1.51973982E+01  7.59869910E+00  7.59869910E+00 -1.51973982E+01  7.59869910E+00
  7.59869910E+00 -1.51973982E+01  7.59869910E+00  7.59869910E+00 -1.51973982E+01
  7.59869910E+00  7.59869910E+00 -1.51973982E+01  7.59869910E+00  7.59869910E+00
 -1.51973982E+01  7.59869910E+00  7.59869910E+00 -1.51973982E+01  7.59869910E+00
  7.59869910E+00 -1.51973982E+01  7.59869910E+00  7.59869910E+00 -1.51973982E+01
  7.59869910E+00  7.59869910E+00 -1.51973982E+01  7.59869910E+00  7.59869910E+00
 -1.51973982E+01  7.59869910E+00  7.59869910E+00 -1.51973982E+01  7.59869910E+00
  7.59869910E+00 -1.51973982E+01  7.59869910E+00  7.59869910E+00 -1.51973982E+01
  7.59869910E+00  7.59869910E+00 -1.51973982E+01  7.59869910E+00  7.59869910E+00
 -1.51973982E+01  7.59869910E+00  7.59869910E+00 -1.51973982E+01  7.59869910E+00
  7.59869910E+00 -1.51973982E+01  7.59869910E+00  7.59869910E+00 -1.51973982E+01
  7.59869910E+00  7.59869910E+00 -1.51973982E+01  7.59869910E+00  7.59869910E+00
 -1.51973982E+01  7.59869910E+00  7.59869910E+00 -1.51973982E+01  7.59869910E+00
  7.59869910E+00 -1.51973982E+01  7.59869910E+00  7.59869910E+00 -1.51973982E+01
  7.59869910E+00  7.59869910E+00 -1.51973982E+01  7.59869910E+00  7.59869910E+00
 -1.51973982E+01  7.59869910E+00  7.59869910E+00 -1.51973982E+01  7.59869910E+00
  7.59869910E+00 -1.51973982E+01  7.59869910E+00  7.59869910E+00 -1.51973982E+01
  7.59869910E+00  7.59869910E+00 -1.51973982E+01  7.59869910E+00  7.59869910E+00
 -1.51973982E+01  7.59869910E+00  7.59869910E+00 -1.51973982E+01  7.59869910E+00
  7.59869910E+00 -1.51973982E+01  7.59869910E+00  7.59869910E+00 -1.51973982E+01
  7.59869910E+00  7.59869910E+00 -1.51973982E+01  7.59869910E+00  7.59869910E+00
 -1.51973982E+01  7.59869910E+00  7.59869910E+00 -1.51973982E+01  7.59869910E+00
  7.59869910E+00 -1.51973982E+01  7.59869910E+00  7.59869910E+00 -1.51973982E+01
  7.59869910E+00  7.59869910E+00 -1.51973982E+01  7.59869910E+00  7.59869910E+00
 -1.51973982E+01  7.59869910E+00  7.59869910E+00 -1.51973982E+01  7.59869910E+00
  7.59869910E+00 -1.51973982E+01  7.59869910E+00  7.59869910E+00 -1.51973982E+01
  7.59869910E+00  7.59869910E+00 -1.51973982E+01  7.59869910E+00  7.59869910E+00
 -1.51973982E+01  7.59869910E+00  7.59869910E+00 -1.51973982E+01  7.59869910E+00
  7.59869910E+00 -1.51973982E+01  7.59869910E+00  7.59869910E+00 -1.51973982E+01
  7.59869910E+00  7.59869910E+00 -1.51973982E+01  7.59869910E+00  7.59869910E+00
 -1.51973982E+01  7.59869910E+00  7.59869910E+00 -1.51973982E+01  7.59869910E+00
  7.59869910E+00 -1.51973982E+01  7.59869910E+00  7.59869910E+00 -1.51973982E+01
  7.59869910E+00  7.59869910E+00 -1.51973982E+01  7.59869910E+00  7.59869910E+00
 -1.51973982E+01  7.59869910E+00  7.59869910E+00 -1.51973982E+01  7.59869910E+00
  7.59869910E+00 -1.51973982E+01  7.59869910E+00  7.59869910E+00 -1.51973982E+01
  7.59869910E+00  7.59869910E+00 -1.51973982E+01  7.59869910E+00  7.59869910E+00
 -1.51973982E+01  7.59869910E+00  7.59869910E+00 -1.51973982E+01  7.59869910E+00
  7.59869910E+00 -1.51973982E+01  7.59869910E+00  7.59869910E+00 -1.51973982E+01
  7.59869910E+00  7.59869910E+00 -1.51973982E+01  7.59869910E+00  7.59869910E+00
 -1.51973982E+01  7.59869910E+00  7.59869910E+00 -1.51973982E+01  7.59869910E+00
  7.59869910E+00 -1.51973982E+01  7.59869910E+00  7.59869910E+00 -1.51973982E+01
  7.59869910E+00  7.59869910E+00 -1.51973982E+01  7.59869910E+00  7.59869910E+00
 -1.51973982E+01  7.59869910E+00  7.59869910E+00 -1.51973982E+01  7.59869910E+00
  7.59869910E+00 -1.51973982E+01  7.59869910E+00  7.59869910E+00 -1.51973982E+01
  7.59869910E+00  7.59869910E+00 -1.51973982E+01  7.59869910E+00  7.59869910E+00
 -1.51973982E+01  7.59869910E+00  7.59869910E+00 -1.51973982E+01  7.59869910E+00
  7.59869910E+00 -1.51973982E+01  7.59869910E+00  7.59869910E+00 -1.51973982E+01
  7.59869910E+00  7.59869910E+00 -1.51973982E+01  7.59869910E+00  7.59869910E+00
 -1.51973982E+01  7.59869910E+00  7.59869910E+00 -1.51973982E+01  7.59869910E+00
  7.59869910E+00 -1.51973982E+01  7.59869910E+00  7.59869910E+00 -1.51973982E+01
  7.59869910E+00  7.59869910E+00 -1.51973982E+01  7.59869910E+00  7.59869910E+00
 -1.51973982E+01  7.59869910E+00  7.59869910E+00 -1.51973982E+01  7.59869910E+00
  7.59869910E+00 -1.51973982E+01  7.59869910E+00  7.59869910E+00 -1.51973982E+01
  7.59869910E+00  7.59869910E+00 -1.51973982E+01  7.59869910E+00  7.59869910E+00
 -1.51973982E+01  7.59869910E+00  7.59869910E+00 -1.51973982E+01  7.59869910E+00
  7.59869910E+00 -1.51973982E+01  7.59869910E+00  7.59869910E+00 -1.51973982E+01
  7.59869910E+00  7.59869910E+00 -1.51973982E+01  7.59869910E+00  7.59869910E+00
 -1.51973982E+01  7.59869910E+00  7.59869910E+00 -1.51973982E+01  7.59869910E+00
  7.59869910E+00 -1.51973982E+01  7.59869910E+00  7.59869910E+00 -1.51973982E+01
  7.59869910E+00  7.59869910E+00 -1.51973982E+01  7.59869910E+00  7.59869910E+00
 -1.51973982E+01  7.59869910E+00  7.59869910E+00 -1.51973982E+01  7.59869910E+00
  7.59869910E+00 -1.51973982E+01  7.59869910E+00  7.59869910E+00 -1.51973982E+01
  7.59869910E+00  7.59869910E+00 -1.51973982E+01  7.59869910E+00  7.59869910E+00
 -1.51973982E+01  7.59869910E+00  7.59869910E+00 -1.51973982E+01  7.59869910E+00
  7.59869910E+00 -1.51973982E+01  7.59869910E+00  7.59869910E+00 -1.51973982E+01
  7.59869910E+00  7.59869910E+00 -1.51973982E+01  7.59869910E+00  7.59869910E+00
 -1.51973982E+01  7.59869910E+00  7.59869910E+00 -1.51973982E+01  7.59869910E+00
  7.59869910E+00 -1.51973982E+01  7.59869910E+00  7.59869910E+00 -1.51973982E+01
  7.59869910E+00  7.59869910E+00 -1.51973982E+01  7.59869910E+00  7.59869910E+00
 -1.51973982E+01  7.59869910E+00  7.59869910E+00 -1.51973982E+01  7.59869910E+00
  7.59869910E+00 -1.51973982E+01  7.59869910E+00  7.59869910E+00 -1.51973982E+01
  7.59869910E+00  7.59869910E+00 -1.51973982E+01  7.59869910E+00  7.59869910E+00
 -1.51973982E+01  7.59869910E+00  7.59869910E+00 -1.51973982E+01  7.59869910E+00
  7.59869910E+00 -1.51973982E+01  7.59869910E+00  7.59869910E+00 -1.51973982E+01
  7.59869910E+00  7.59869910E+00 -1.51973982E+01  7.59869910E+00  7.59869910E+00
 -1.51973982E+01  7.59869910E+00  7.59869910E+00 -1.51973982E+01  7.59869910E+00
  7.59869910E+00 -1.51973982E+01  7.59869910E+00  7.59869910E+00 -1.51973982E+01
  7.59869910E+00  7.59869910E+00 -1.51973982E+01  7.59869910E+00  7.59869910E+00
 -1.51973982E+01  7.59869910E+00  7.59869910E+00 -1.51973982E+01  7.59869910E+00
  7.59869910E+00 -1.51973982E+01  7.59869910E+00  7.59869910E+00 -1.51973982E+01
  7.59869910E+00  7.59869910E+00 -1.51973982E+01  7.59869910E+00  7.59869910E+00
 -1.51973982E+01  7.59869910E+00  7.59869910E+00 -1.51973982E+01  7.59869910E+00
  7.59869910E+00 -1.51973982E+01  7.59869910E+00  7.59869910E+00 -1.51973982E+01
  7.59869910E+00  7.59869910E+00 -1.51973982E+01  7.59869910E+00  7.59869910E+00
 -1.51973982E+01  7.59869910E+00  7.59869910E+00 -1.51973982E+01  7.59869910E+00
  7.59869910E+00 -1.51973982E+01  7.59869910E+00  7.59869910E+00 -1.51973982E+01
  7.59869910E+00  7.59869910E+00 -1.51973982E+01  7.59869910E+00  7.59869910E+00
 -1.51973982E+01  7.59869910E+00  7.59869910E+00 -1.51973982E+01  7.59869910E+00
  7.59869910E+00 -1.51973982E+01  7.59869910E+00  7.59869910E+00 -1.51973982E+01
  7.59869910E+00  7.59869910E+00 -1.51973982E+01  7.59869910E+00  7.59869910E+00
 -1.51973982E+01  7.59869910E+00  7.59869910E+00 -1.51973982E+01  7.59869910E+00
  7.59869910E+00 -1.51973982E+01  7.59869910E+00  7.59869910E+00 -1.51973982E+01
  7.59869910E+00  7.59869910E+00 -1.51973982E+01  7.59869910E+00  7.59869910E+00
 -1.51973982E+01  7.59869910E+00  7.59869910E+00 -1.51973982E+01  7.59869910E+00
  7.59869910E+00 -1.51973982E+01  7.59869910E+00  7.59869910E+00 -1.51973982E+01
  7.59869910E+00  7.59869910E+00 -1.51973982E+01  7.59869910E+00  7.59869910E+00
 -1.51973982E+01  7.59869910E+00  7.59869910E+00 -1.51973982E+01  7.59869910E+00
  7.59869910E+00 -1.51973982E+01  7.59869910E+00  7.59869910E+00 -1.51973982E+01
  7.59869910E+00  7.59869910E+00 -1.51973982E+01  7.59869910E+00  7.59869910E+00
 -1.51973982E+01  7.59869910E+00  7.59869910E+00 -1.51973982E+01  7.59869910E+00
  7.59869910E+00 -1.51973982E+01  7.59869910E+00  7.59869910E+00 -1.51973982E+01
  7.59869910E+00  7.59869910E+00 -1.51973982E+01  7.59869910E+00  7.59869910E+00
 -1.51973982E+01  7.59869910E+00  7.59869910E+00 -1.51973982E+01  7.59869910E+00
  7.59869910E+00 -1.51973982E+01  7.59869910E+00  7.59869910E+00 -1.51973982E+01
  7.59869910E+00  7.59869910E+00 -1.51973982E+01  7.59869910E+00  7.59869910E+00
 -1.51973982E+01  7.59869910E+00  7.59869910E+00 -1.51973982E+01  7.59869910E+00
  7.59869910E+00 -1.51973982E+01  7.59869910E+00  7.59869910E+00 -1.51973982E+01
  7.59869910E+00  7.59869910E+00 -1.51973982E+01  7.59869910E+00  7.59869910E+00
 -1.51973982E+01  7.59869910E+00  7.59869910E+00 -1.51973982E+01  7.59869910E+00
  7.59869910E+00 -1.51973982E+01  7.59869910E+00  7.59869910E+00 -1.51973982E+01
  7.59869910E+00  7.59869910E+00 -1.51973982E+01  7.59869910E+00  7.59869910E+00
 -1.51973982E+01  7.59869910E+00  7.59869910E+00 -1.51973982E+01  7.59869910E+00
  7.59869910E+00 -1.51973982E+01  7.59869910E+00  7.59869910E+00 -1.51973982E+01
  7.59869910E+00  7.59869910E+00 -1.51973982E+01  7.59869910E+00  7.59869910E+00
 -1.51973982E+01  7.59869910E+00  7.59869910E+00 -1.51973982E+01  7.59869910E+00
  7.59869910E+00 -1.51973982E+01  7.59869910E+00  7.59869910E+00 -1.51973982E+01
  7.59869910E+00  7.59869910E+00 -1.51973982E+01  7.59869910E+00  7.59869910E+00
 -1.51973982E+01  7.59869910E+00  7.59869910E+00 -1.51973982E+01  7.59869910E+00
  7.59869910E+00 -1.51973982E+01  7.59869910E+00  7.59869910E+00 -1.51973982E+01
  7.59869910E+00  7.59869910E+00 -1.51973982E+01  7.59869910E+00  7.59869910E+00
 -1.51973982E+01  7.59869910E+00  7.59869910E+00 -1.51973982E+01  7.59869910E+00
  7.59869910E+00 -1.51973982E+01  7.59869910E+00  7.59869910E+00 -1.51973982E+01
  7.59869910E+00  7.59869910E+00 -1.51973982E+01  7.59869910E+00  7.59869910E+00
 -1.51973982E+01  7.59869910E+00  7.59869910E+00 -1.51973982E+01  7.59869910E+00
  7.59869910E+00 -1.51973982E+01  7.59869910E+00  7.59869910E+00 -1.51973982E+01
  7.59869910E+00  7.59869910E+00 -1.51973982E+01  7.59869910E+00  7.59869910E+00
 -1.51973982E+01  7.59869910E+00  7.59869910E+00 -1.51973982E+01  7.59869910E+00
  7.59869910E+00 -1.51973982E+01  7.59869910E+00  7.59869910E+00 -1.51973982E+01
  7.59869910E+00  7.59869910E+00 -1.51973982E+01  7.59869910E+00  7.59869910E+00
 -1.51973982E+01  7.59869910E+00  7.59869910E+00 -1.51973982E+01  7.59869910E+00
  7.59869910E+00 -1.51973982E+01  7.59869910E+00  7.59869910E+00 -1.51973982E+01
  7.59869910E+00  7.59869910E+00 -1.51973982E+01  7.59869910E+00  7.59869910E+00
 -1.51973982E+01  7.59869910E+00  7.59869910E+00 -1.51973982E+01  7.59869910E+00
  7.59869910E+00 -1.51973982E+01  7.59869910E+00  7.59869910E+00 -1.51973982E+01
  7.59869910E+00  7.59869910E+00 -1.51973982E+01  7.59869910E+00  7.59869910E+00
 -1.51973982E+01  7.59869910E+00  7.59869910E+00 -1.51973982E+01  7.59869910E+00
  7.59869910E+00 -1.51973982E+01  7.59869910E+00  7.59869910E+00 -1.51973982E+01
  7.59869910E+00  7.59869910E+00 -1.51973982E+01  7.59869910E+00  7.59869910E+00
 -1.51973982E+01  7.59869910E+00  7.59869910E+00 -1.51973982E+01  7.59869910E+00
  7.59869910E+00 -1.51973982E+01  7.59869910E+00  7.59869910E+00 -1.51973982E+01
  7.59869910E+00  7.59869910E+00 -1.51973982E+01  7.59869910E+00  7.59869910E+00
 -1.51973982E+01  7.59869910E+00  7.59869910E+00 -1.51973982E+01  7.59869910E+00
  7.59869910E+00 -1.51973982E+01  7.59869910E+00  7.59869910E+00 -1.51973982E+01
  7.59869910E+00  7.59869910E+00 -1.51973982E+01  7.59869910E+00  7.59869910E+00
 -1.51973982E+01  7.59869910E+00  7.59869910E+00 -1.51973982E+01  7.59869910E+00
  7.59869910E+00 -1.51973982E+01  7.59869910E+00  7.59869910E+00 -1.51973982E+01
  7.59869910E+00  7.59869910E+00 -1.51973982E+01  7.59869910E+00  7.59869910E+00
 -1.51973982E+01  7.59869910E+00  7.59869910E+00 -1.51973982E+01  7.59869910E+00
  7.59869910E+00 -1.51973982E+01  7.59869910E+00  7.59869910E+00 -1.51973982E+01
  7.59869910E+00  7.59869910E+00 -1.51973982E+01  7.59869910E+00  7.59869910E+00
 -1.51973982E+01  7.59869910E+00  7.59869910E+00 -1.51973982E+01  7.59869910E+00
  7.59869910E+00 -1.51973982E+01  7.59869910E+00  7.59869910E+00 -1.51973982E+01
  7.59869910E+00  7.59869910E+00 -1.51973982E+01  7.59869910E+00  7.59869910E+00
 -1.51973982E+01  7.59869910E+00  7.59869910E+00 -1.51973982E+01  7.59869910E+00
  7.59869910E+00 -1.51973982E+01  7.59869910E+00  7.59869910E+00 -1.51973982E+01
  7.59869910E+00  7.59869910E+00 -1.51973982E+01  7.59869910E+00  7.59869910E+00
 -1.51973982E+01  7.59869910E+00  7.59869910E+00 -1.51973982E+01  7.59869910E+00
  7.59869910E+00 -1.51973982E+01  7.59869910E+00  7.59869910E+00 -1.51973982E+01
  7.59869910E+00  7.59869910E+00 -1.51973982E+01  7.59869910E+00  7.59869910E+00
 -1.51973982E+01  7.59869910E+00  7.59869910E+00 -1.51973982E+01  7.59869910E+00
  7.59869910E+00 -1.51973982E+01  7.59869910E+00  7.59869910E+00 -1.51973982E+01
  7.59869910E+00  7.59869910E+00 -1.51973982E+01  7.59869910E+00  7.59869910E+00
 -1.51973982E+01  7.59869910E+00  7.59869910E+00 -1.51973982E+01  7.59869910E+00
  7.59869910E+00 -1.51973982E+01  7.59869910E+00  7.59869910E+00 -1.51973982E+01
  7.59869910E+00  7.59869910E+00 -1.51973982E+01  7.59869910E+00  7.59869910E+00
 -1.51973982E+01  7.59869910E+00  7.59869910E+00 -1.51973982E+01  7.59869910E+00
  7.59869910E+00 -1.51973982E+01  7.59869910E+00  7.59869910E+00 -1.51973982E+01
  7.59869910E+00  7.59869910E+00 -1.51973982E+01  7.59869910E+00  7.59869910E+00
 -1.51973982E+01  7.59869910E+00  7.59869910E+00 -1.51973982E+01  7.59869910E+00
  7.59869910E+00 -1.51973982E+01  7.59869910E+00  7.59869910E+00 -1.51973982E+01
  7.59869910E+00  7.59869910E+00 -1.51973982E+01  7.59869910E+00  7.59869910E+00
 -1.51973982E+01  7.59869910E+00  7.59869910E+00 -1.51973982E+01  7.59869910E+00
  7.59869910E+00 -1.51973982E+01  7.59869910E+00  7.59869910E+00 -1.51973982E+01
  7.59869910E+00  7.59869910E+00 -1.51973982E+01  7.59869910E+00  7.59869910E+00
 -1.51973982E+01  7.59869910E+00  7.59869910E+00 -1.51973982E+01  7.59869910E+00
  7.59869910E+00 -1.51973982E+01  7.59869910E+00  7.59869910E+00 -1.51973982E+01
  7.59869910E+00  7.59869910E+00 -1.51973982E+01  7.59869910E+00  7.59869910E+00
 -1.51973982E+01  7.59869910E+00  7.59869910E+00 -1.51973982E+01  7.59869910E+00
  7.59869910E+00 -1.51973982E+01  7.59869910E+00  7.59869910E+00 -1.51973982E+01
  7.59869910E+00  7.59869910E+00 -1.51973982E+01  7.59869910E+00  7.59869910E+00
 -1.51973982E+01  7.59869910E+00  7.59869910E+00 -1.51973982E+01  7.59869910E+00
  7.59869910E+00 -1.51973982E+01  7.59869910E+00  7.59869910E+00 -1.51973982E+01
  7.59869910E+00  7.59869910E+00 -1.51973982E+01  7.59869910E+00  7.59869910E+00
 -1.51973982E+01  7.59869910E+00  7.59869910E+00 -1.51973982E+01  7.59869910E+00
  7.59869910E+00 -1.51973982E+01  7.59869910E+00  7.59869910E+00 -1.51973982E+01
  7.59869910E+00  7.59869910E+00 -1.51973982E+01  7.59869910E+00  7.59869910E+00
 -1.51973982E+01  7.59869910E+00  7.59869910E+00 -1.51973982E+01  7.59869910E+00
  7.59869910E+00 -1.51973982E+01  7.59869910E+00  7.59869910E+00 -1.51973982E+01
  7.59869910E+00  7.59869910E+00 -1.51973982E+01  7.59869910E+00  7.59869910E+00
 -1.51973982E+01  7.59869910E+00  7.59869910E+00 -1.51973982E+01  7.59869910E+00
  7.59869910E+00 -1.51973982E+01  7.59869910E+00  7.59869910E+00 -1.51973982E+01
  7.59869910E+00  7.59869910E+00 -1.51973982E+01  7.59869910E+00  7.59869910E+00
 -1.51973982E+01  7.59869910E+00  7.59869910E+00 -1.51973982E+01  7.59869910E+00
  7.59869910E+00 -1.51973982E+01  7.59869910E+00  7.59869910E+00 -1.51973982E+01
  7.59869910E+00  7.59869910E+00 -1.51973982E+01  7.59869910E+00  7.59869910E+00
 -1.51973982E+01  7.59869910E+00  7.59869910E+00 -1.51973982E+01  7.59869910E+00
  7.59869910E+00 -1.51973982E+01  7.59869910E+00  7.59869910E+00 -1.51973982E+01
  7.59869910E+00  7.59869910E+00 -1.51973982E+01  7.59869910E+00  7.59869910E+00
 -1.51973982E+01  7.59869910E+00  7.59869910E+00 -1.51973982E+01  7.59869910E+00
  7.59869910E+00 -1.51973982E+01  7.59869910E+00  7.59869910E+00 -1.51973982E+01
  7.59869910E+00  7.59869910E+00 -1.51973982E+01  7.59869910E+00  7.59869910E+00
 -1.51973982E+01  7.59869910E+00  7.59869910E+00 -1.51973982E+01  7.59869910E+00
  7.59869910E+00 -1.51973982E+01  7.59869910E+00  7.59869910E+00 -1.51973982E+01
  7.59869910E+00  7.59869910E+00 -1.51973982E+01  7.59869910E+00  7.59869910E+00
 -1.51973982E+01  7.59869910E+00  7.59869910E+00 -1.51973982E+01  7.59869910E+00
  7.59869910E+00 -1.51973982E+01  7.59869910E+00  7.59869910E+00 -1.51973982E+01
  7.59869910E+00  7.59869910E+00 -1.51973982E+01  7.59869910E+00  7.59869910E+00
 -1.51973982E+01  7.59869910E+00  7.59869910E+00 -1.51973982E+01  7.59869910E+00
  7.59869910E+00 -1.51973982E+01  7.59869910E+00  7.59869910E+00 -1.51973982E+01
  7.59869910E+00  7.59869910E+00 -1.51973982E+01  7.59869910E+00  7.59869910E+00
 -1.51973982E+01  7.59869910E+00  7.59869910E+00 -1.51973982E+01  7.59869910E+00
  7.59869910E+00 -1.51973982E+01  7.59869910E+00  7.59869910E+00 -1.51973982E+01
  7.59869910E+00  7.59869910E+00 -1.51973982E+01  7.59869910E+00  7.59869910E+00
 -1.51973982E+01  7.59869910E+00  7.59869910E+00 -1.51973982E+01  7.59869910E+00
  7.59869910E+00 -1.51973982E+01  7.59869910E+00  7.59869910E+00 -1.51973982E+01
  7.59869910E+00  7.59869910E+00 -1.51973982E+01  7.59869910E+00  7.59869910E+00
 -1.51973982E+01  7.59869910E+00  7.59869910E+00 -1.51973982E+01  7.59869910E+00
  7.59869910E+00 -1.51973982E+01  7.59869910E+00  7.59869910E+00 -1.51973982E+01
  7.59869910E+00  7.59869910E+00 -1.51973982E+01  7.59869910E+00  7.59869910E+00
 -1.51973982E+01  7.59869910E+00  7.59869910E+00 -1.51973982E+01  7.59869910E+00
  7.59869910E+00 -1.51973982E+01  7.59869910E+00  7.59869910E+00 -1.51973982E+01
  7.59869910E+00  7.59869910E+00 -1.51973982E+01  7.59869910E+00  7.59869910E+00
 -1.51973982E+01  7.59869910E+00  7.59869910E+00 -1.51973982E+01  7.59869910E+00
  7.59869910E+00 -1.51973982E+01  7.59869910E+00  7.59869910E+00 -1.51973982E+01
  7.59869910E+00  7.59869910E+00 -1.51973982E+01  7.59869910E+00  7.59869910E+00
 -1.51973982E+01  7.59869910E+00  7.59869910E+00 -1.51973982E+01  7.59869910E+00
  7.59869910E+00 -1.51973982E+01  7.59869910E+00  7.59869910E+00 -1.51973982E+01
  7.59869910E+00  7.59869910E+00 -1.51973982E+01  7.59869910E+00  7.59869910E+00
 -1.51973982E+01  7.59869910E+00  7.59869910E+00 -1.51973982E+01  7.59869910E+00
  7.59869910E+00 -1.51973982E+01  7.59869910E+00  7.59869910E+00 -1.51973982E+01
  7.59869910E+00  7.59869910E+00 -1.51973982E+01  7.59869910E+00  7.59869910E+00
 -1.51973982E+01  7.59869910E+00  7.59869910E+00 -1.51973982E+01  7.59869910E+00
  7.59869910E+00 -1.51973982E+01  7.59869910E+00  7.59869910E+00 -1.51973982E+01
  7.59869910E+00  7.59869910E+00 -1.51973982E+01  7.59869910E+00  7.59869910E+00
 -1.51973982E+01  7.59869910E+00  7.59869910E+00 -1.51973982E+01  7.59869910E+00
  7.59869910E+00 -1.51973982E+01  7.59869910E+00  7.59869910E+00 -1.51973982E+01
  7.59869910E+00  7.59869910E+00 -1.51973982E+01  7.59869910E+00  7.59869910E+00
 -1.51973982E+01  7.59869910E+00  7.59869910E+00 -1.51973982E+01  7.59869910E+00
  7.59869910E+00 -1.51973982E+01  7.59869910E+00  7.59869910E+00 -1.51973982E+01
  7.59869910E+00  7.59869910E+00 -1.51973982E+01  7.59869910E+00  7.59869910E+00
 -1.51973982E+01  7.59869910E+00  7.59869910E+00 -1.51973982E+01  7.59869910E+00
  7.59869910E+00 -1.51973982E+01  7.59869910E+00  7.59869910E+00 -1.51973982E+01
  7.59869910E+00  7.59869910E+00 -1.51973982E+01  7.59869910E+00  7.59869910E+00
 -1.51973982E+01  7.59869910E+00  7.59869910E+00 -1.51973982E+01  7.59869910E+00
  7.59869910E+00 -1.51973982E+01  7.59869910E+00  7.59869910E+00 -1.51973982E+01
  7.59869910E+00  7.59869910E+00 -1.51973982E+01  7.59869910E+00  7.59869910E+00
 -1.51973982E+01  7.59869910E+00  7.59869910E+00 -1.51973982E+01  7.59869910E+00
  7.59869910E+00 -1.51973982E+01  7.59869910E+00  7.59869910E+00 -1.51973982E+01
  7.59869910E+00  7.59869910E+00 -1.51973982E+01  7.59869910E+00  7.59869910E+00
 -1.51973982E+01  7.59869910E+00  7.59869910E+00 -1.51973982E+01  7.59869910E+00
  7.59869910E+00 -1.51973982E+01  7.59869910E+00  7.59869910E+00 -1.51973982E+01
  7.59869910E+00  7.59869910E+00 -1.51973982E+01  7.59869910E+00  7.59869910E+00
 -1.51973982E+01  7.59869910E+00  7.59869910E+00 -1.51973982E+01  7.59869910E+00
  7.59869910E+00 -1.51973982E+01  7.59869910E+00  7.59869910E+00 -1.51973982E+01
  7.59869910E+00  7.59869910E+00 -1.51973982E+01  7.59869910E+00  7.59869910E+00
 -1.51973982E+01  7.59869910E+00  7.59869910E+00 -1.51973982E+01  7.59869910E+00
  7.59869910E+00 -1.51973982E+01  7.59869910E+00  7.59869910E+00 -1.51973982E+01
  7.59869910E+00  7.59869910E+00 -1.51973982E+01  7.59869910E+00  7.59869910E+00
 -1.51973982E+01  7.59869910E+00  7.59869910E+00 -1.51973982E+01  7.59869910E+00
  7.59869910E+00 -1.51973982E+01  7.59869910E+00  7.59869910E+00 -1.51973982E+01
  7.59869910E+00  7.59869910E+00 -1.51973982E+01  7.59869910E+00  7.59869910E+00
 -1.51973982E+01  7.59869910E+00  7.59869910E+00 -1.51973982E+01  7.59869910E+00
  7.59869910E+00 -1.51973982E+01  7.59869910E+00  7.59869910E+00 -1.51973982E+01
  7.59869910E+00  7.59869910E+00 -1.51973982E+01  7.59869910E+00  7.59869910E+00
 -1.51973982E+01  7.59869910E+00  7.59869910E+00 -1.51973982E+01  7.59869910E+00
  7.59869910E+00 -1.51973982E+01  7.59869910E+00  7.59869910E+00 -1.51973982E+01
  7.59869910E+00  7.59869910E+00 -1.51973982E+01  7.59869910E+00  7.59869910E+00
 -1.51973982E+01  7.59869910E+00  7.59869910E+00 -1.51973982E+01  7.59869910E+00
  7.59869910E+00 -1.51973982E+01  7.59869910E+00  7.59869910E+00 -1.51973982E+01
  7.59869910E+00  7.59869910E+00 -1.51973982E+01  7.59869910E+00  7.59869910E+00
 -1.51973982E+01  7.59869910E+00  7.59869910E+00 -1.51973982E+01  7.59869910E+00
  7.59869910E+00 -1.51973982E+01  7.59869910E+00  7.59869910E+00 -1.51973982E+01
  7.59869910E+00  7.59869910E+00 -1.51973982E+01  7.59869910E+00  7.59869910E+00
 -1.51973982E+01  7.59869910E+00  7.59869910E+00 -1.51973982E+01  7.59869910E+00
  7.59869910E+00 -1.51973982E+01  7.59869910E+00  7.59869910E+00 -1.51973982E+01
  7.59869910E+00  7.59869910E+00 -1.51973982E+01  7.59869910E+00  7.59869910E+00
 -1.51973982E+01  7.59869910E+00  7.59869910E+00 -1.51973982E+01  7.59869910E+00
  7.59869910E+00 -1.51973982E+01  7.59869910E+00  7.59869910E+00 -1.51973982E+01
  7.59869910E+00  7.59869910E+00 -1.51973982E+01  7.59869910E+00  7.59869910E+00
 -1.51973982E+01  7.59869910E+00  7.59869910E+00 -1.51973982E+01  7.59869910E+00
  7.59869910E+00 -1.51973982E+01  7.59869910E+00  7.59869910E+00 -1.51973982E+01
  7.59869910E+00  7.59869910E+00 -1.51973982E+01  7.59869910E+00  7.59869910E+00
 -1.51973982E+01  7.59869910E+00  7.59869910E+00 -1.51973982E+01  7.59869910E+00
  7.59869910E+00 -1.51973982E+01  7.59869910E+00  7.59869910E+00 -1.51973982E+01
  7.59869910E+00  7.59869910E+00 -1.51973982E+01  7.59869910E+00  7.59869910E+00
 -1.51973982E+01  7.59869910E+00  7.59869910E+00 -1.51973982E+01  7.59869910E+00
  7.59869910E+00 -1.51973982E+01  7.59869910E+00  7.59869910E+00 -1.51973982E+01
  7.59869910E+00  7.59869910E+00 -1.51973982E+01  7.59869910E+00  7.59869910E+00
 -1.51973982E+01  7.59869910E+00  7.59869910E+00 -1.51973982E+01  7.59869910E+00
  7.59869910E+00 -1.51973982E+01  7.59869910E+00  7.59869910E+00 -1.51973982E+01
  7.59869910E+00  7.59869910E+00 -1.51973982E+01  7.59869910E+00  7.59869910E+00
 -1.51973982E+01  7.59869910E+00  7.59869910E+00 -1.51973982E+01  7.59869910E+00
  7.59869910E+00 -1.51973982E+01  7.59869910E+00  7.59869910E+00 -1.51973982E+01
  7.59869910E+00  7.59869910E+00 -1.51973982E+01  7.59869910E+00  7.59869910E+00
 -1.51973982E+01  7.59869910E+00  7.59869910E+00 -1.51973982E+01  7.59869910E+00
  7.59869910E+00 -1.51973982E+01  7.59869910E+00  7.59869910E+00 -1.51973982E+01
  7.59869910E+00  7.59869910E+00 -1.51973982E+01  7.59869910E+00  7.59869910E+00
 -1.51973982E+01  7.59869910E+00  7.59869910E+00 -1.51973982E+01  7.59869910E+00
  7.59869910E+00 -1.51973982E+01  7.59869910E+00  7.59869910E+00 -1.51973982E+01
  7.59869910E+00  7.59869910E+00 -1.51973982E+01  7.59869910E+00  7.59869910E+00
 -1.51973982E+01  7.59869910E+00  7.59869910E+00 -1.51973982E+01  7.59869910E+00
  7.59869910E+00 -1.51973982E+01  7.59869910E+00  7.59869910E+00 -1.51973982E+01
  7.59869910E+00  7.59869910E+00 -1.51973982E+01  7.59869910E+00  7.59869910E+00
 -1.51973982E+01  7.59869910E+00  7.59869910E+00 -1.51973982E+01  7.59869910E+00
  7.59869910E+00 -1.51973982E+01  7.59869910E+00  7.59869910E+00 -1.51973982E+01
  7.59869910E+00  7.59869910E+00 -1.51973982E+01  7.59869910E+00  7.59869910E+00
 -1.51973982E+01  7.59869910E+00  7.59869910E+00 -1.51973982E+01  7.59869910E+00
  7.59869910E+00 -1.51973982E+01  7.59869910E+00  7.59869910E+00 -1.51973982E+01
  7.59869910E+00  7.59869910E+00 -1.51973982E+01  7.59869910E+00  7.59869910E+00
 -1.51973982E+01  7.59869910E+00  7.59869910E+00 -1.51973982E+01  7.59869910E+00
  7.59869910E+00 -1.51973982E+01  7.59869910E+00  7.59869910E+00 -1.51973982E+01
  7.59869910E+00  7.59869910E+00 -1.51973982E+01  7.59869910E+00  7.59869910E+00
 -1.51973982E+01  7.59869910E+00  7.59869910E+00 -1.51973982E+01  7.59869910E+00
  7.59869910E+00 -1.51973982E+01  7.59869910E+00  7.59869910E+00 -1.51973982E+01
  7.59869910E+00  7.59869910E+00 -1.51973982E+01  7.59869910E+00  7.59869910E+00
 -1.51973982E+01  7.59869910E+00  7.59869910E+00 -1.51973982E+01  7.59869910E+00
  7.59869910E+00 -1.51973982E+01  7.59869910E+00  7.59869910E+00 -1.51973982E+01
  7.59869910E+00  7.59869910E+00 -1.51973982E+01  7.59869910E+00  7.59869910E+00
 -1.51973982E+01  7.59869910E+00  7.59869910E+00 -1.51973982E+01  7.59869910E+00
  7.59869910E+00 -1.51973982E+01  7.59869910E+00  7.59869910E+00 -1.51973982E+01
  7.59869910E+00  7.59869910E+00 -1.51973982E+01  7.59869910E+00  7.59869910E+00
 -1.51973982E+01  7.59869910E+00  7.59869910E+00 -1.51973982E+01  7.59869910E+00
  7.59869910E+00 -1.51973982E+01  7.59869910E+00  7.59869910E+00 -1.51973982E+01
  7.59869910E+00  7.59869910E+00 -1.51973982E+01  7.59869910E+00  7.59869910E+00
 -1.51973982E+01  7.59869910E+00  7.59869910E+00 -1.51973982E+01  7.59869910E+00
  7.59869910E+00 -1.51973982E+01  7.59869910E+00  7.59869910E+00 -1.51973982E+01
  7.59869910E+00  7.59869910E+00 -1.51973982E+01  7.59869910E+00  7.59869910E+00
 -1.51973982E+01  7.59869910E+00  7.59869910E+00 -1.51973982E+01  7.59869910E+00
  7.59869910E+00 -1.51973982E+01  7.59869910E+00  7.59869910E+00 -1.51973982E+01
  7.59869910E+00  7.59869910E+00 -1.51973982E+01  7.59869910E+00  7.59869910E+00
 -1.51973982E+01  7.59869910E+00  7.59869910E+00 -1.51973982E+01  7.59869910E+00
  7.59869910E+00 -1.51973982E+01  7.59869910E+00  7.59869910E+00 -1.51973982E+01
  7.59869910E+00  7.59869910E+00 -1.51973982E+01  7.59869910E+00  7.59869910E+00
 -1.51973982E+01  7.59869910E+00  7.59869910E+00 -1.51973982E+01  7.59869910E+00
  7.59869910E+00 -1.51973982E+01  7.59869910E+00  7.59869910E+00 -1.51973982E+01
  7.59869910E+00  7.59869910E+00 -1.51973982E+01  7.59869910E+00  7.59869910E+00
 -1.51973982E+01  7.59869910E+00  7.59869910E+00 -1.51973982E+01  7.59869910E+00
  7.59869910E+00 -1.51973982E+01  7.59869910E+00  7.59869910E+00 -1.51973982E+01
  7.59869910E+00  7.59869910E+00 -1.51973982E+01  7.59869910E+00  7.59869910E+00
 -1.51973982E+01  7.59869910E+00  7.59869910E+00 -1.51973982E+01  7.59869910E+00
  7.59869910E+00 -1.51973982E+01  7.59869910E+00  7.59869910E+00 -1.51973982E+01
  7.59869910E+00  7.59869910E+00 -1.51973982E+01  7.59869910E+00  7.59869910E+00
 -1.51973982E+01  7.59869910E+00  7.59869910E+00 -1.51973982E+01  7.59869910E+00
  7.59869910E+00 -1.51973982E+01  7.59869910E+00  7.59869910E+00 -1.51973982E+01
  7.59869910E+00  7.59869910E+00 -1.51973982E+01  7.59869910E+00  7.59869910E+00
 -1.51973982E+01  7.59869910E+00  7.59869910E+00 -1.51973982E+01  7.59869910E+00
  7.59869910E+00 -1.51973982E+01  7.59869910E+00  7.59869910E+00 -1.51973982E+01
  7.59869910E+00  7.59869910E+00 -1.51973982E+01  7.59869910E+00  7.59869910E+00
 -1.51973982E+01  7.59869910E+00  7.59869910E+00 -1.51973982E+01  7.59869910E+00
  7.59869910E+00 -1.51973982E+01  7.59869910E+00  7.59869910E+00 -1.51973982E+01
  7.59869910E+00  7.59869910E+00 -1.51973982E+01  7.59869910E+00  7.59869910E+00
 -1.51973982E+01  7.59869910E+00  7.59869910E+00 -1.51973982E+01  7.59869910E+00
  7.59869910E+00 -1.51973982E+01  7.59869910E+00  7.59869910E+00 -1.51973982E+01
  7.59869910E+00  7.59869910E+00 -1.51973982E+01  7.59869910E+00  7.59869910E+00
 -1.51973982E+01  7.59869910E+00  7.59869910E+00 -1.51973982E+01  7.59869910E+00
  7.59869910E+00 -1.51973982E+01  7.59869910E+00  7.59869910E+00 -1.51973982E+01
  7.59869910E+00  7.59869910E+00 -1.51973982E+01  7.59869910E+00  7.59869910E+00
 -1.51973982E+01  7.59869910E+00  7.59869910E+00 -1.51973982E+01  7.59869910E+00
  7.59869910E+00 -1.51973982E+01  7.59869910E+00  7.59869910E+00 -1.51973982E+01
  7.59869910E+00  7.59869910E+00 -1.51973982E+01  7.59869910E+00  7.59869910E+00
 -1.51973982E+01  7.59869910E+00  7.59869910E+00 -1.51973982E+01  7.59869910E+00
  7.59869910E+00 -1.51973982E+01  7.59869910E+00  7.59869910E+00 -1.51973982E+01
  7.59869910E+00  7.59869910E+00 -1.51973982E+01  7.59869910E+00  7.59869910E+00
 -1.51973982E+01  7.59869910E+00  7.59869910E+00 -1.51973982E+01  7.59869910E+00
  7.59869910E+00 -1.51973982E+01  7.59869910E+00  7.59869910E+00 -1.51973982E+01
  7.59869910E+00  7.59869910E+00 -1.51973982E+01  7.59869910E+00  7.59869910E+00
 -1.51973982E+01  7.59869910E+00  7.59869910E+00 -1.51973982E+01  7.59869910E+00
  7.59869910E+00 -1.51973982E+01  7.59869910E+00  7.59869910E+00 -1.51973982E+01
  7.59869910E+00  7.59869910E+00 -1.51973982E+01  7.59869910E+00  7.59869910E+00
 -1.51973982E+01  7.59869910E+00  7.59869910E+00 -1.51973982E+01  7.59869910E+00
  7.59869910E+00 -1.51973982E+01  7.59869910E+00  7.59869910E+00 -1.51973982E+01
  7.59869910E+00  7.59869910E+00 -1.51973982E+01  7.59869910E+00  7.59869910E+00
 -1.51973982E+01  7.59869910E+00  7.59869910E+00 -1.51973982E+01  7.59869910E+00
  7.59869910E+00 -1.51973982E+01  7.59869910E+00  7.59869910E+00 -1.51973982E+01
  7.59869910E+00  7.59869910E+00 -1.51973982E+01  7.59869910E+00  7.59869910E+00
 -1.51973982E+01  7.59869910E+00  7.59869910E+00 -1.51973982E+01  7.59869910E+00
  7.59869910E+00 -1.51973982E+01  7.59869910E+00  7.59869910E+00 -1.51973982E+01
  7.59869910E+00  7.59869910E+00 -1.51973982E+01  7.59869910E+00  7.59869910E+00
 -1.51973982E+01  7.59869910E+00  7.59869910E+00 -1.51973982E+01  7.59869910E+00
  7.59869910E+00 -1.51973982E+01  7.59869910E+00  7.59869910E+00 -1.51973982E+01
  7.59869910E+00  7.59869910E+00 -1.51973982E+01  7.59869910E+00  7.59869910E+00
 -1.51973982E+01  7.59869910E+00  7.59869910E+00 -1.51973982E+01  7.59869910E+00
  7.59869910E+00 -1.51973982E+01  7.59869910E+00  7.59869910E+00 -1.51973982E+01
  7.59869910E+00  7.59869910E+00 -1.51973982E+01  7.59869910E+00  7.59869910E+00
 -1.51973982E+01  7.59869910E+00  7.59869910E+00 -1.51973982E+01  7.59869910E+00
  7.59869910E+00 -1.51973982E+01  7.59869910E+00  7.59869910E+00 -1.51973982E+01
  7.59869910E+00  7.59869910E+00 -1.51973982E+01  7.59869910E+00  7.59869910E+00
 -1.51973982E+01  7.59869910E+00  7.59869910E+00 -1.51973982E+01  7.59869910E+00
  7.59869910E+00 -1.51973982E+01  7.59869910E+00  7.59869910E+00 -1.51973982E+01
  7.59869910E+00  7.59869910E+00 -1.51973982E+01  7.59869910E+00  7.59869910E+00
 -1.51973982E+01  7.59869910E+00  7.59869910E+00 -1.51973982E+01  7.59869910E+00
  7.59869910E+00 -1.51973982E+01  7.59869910E+00  7.59869910E+00 -1.51973982E+01
  7.59869910E+00  7.59869910E+00 -1.51973982E+01  7.59869910E+00  7.59869910E+00
 -1.51973982E+01  7.59869910E+00  7.59869910E+00 -1.51973982E+01  7.59869910E+00
  7.59869910E+00 -1.51973982E+01  7.59869910E+00  7.59869910E+00 -1.51973982E+01
  7.59869910E+00  7.59869910E+00 -1.51973982E+01  7.59869910E+00  7.59869910E+00
 -1.51973982E+01  7.59869910E+00  7.59869910E+00 -1.51973982E+01  7.59869910E+00
  7.59869910E+00 -1.51973982E+01  7.59869910E+00  7.59869910E+00 -1.51973982E+01
  7.59869910E+00  7.59869910E+00 -1.51973982E+01  7.59869910E+00  7.59869910E+00
 -1.51973982E+01  7.59869910E+00  7.59869910E+00 -1.51973982E+01  7.59869910E+00
  7.59869910E+00 -1.51973982E+01  7.59869910E+00  7.59869910E+00 -1.51973982E+01
  7.59869910E+00  7.59869910E+00 -1.51973982E+01  7.59869910E+00  7.59869910E+00
 -1.51973982E+01  7.59869910E+00  7.59869910E+00 -1.51973982E+01  7.59869910E+00
  7.59869910E+00 -1.51973982E+01  7.59869910E+00  7.59869910E+00 -1.51973982E+01
  7.59869910E+00  7.59869910E+00 -1.51973982E+01  7.59869910E+00  7.59869910E+00
 -1.51973982E+01  7.59869910E+00  7.59869910E+00 -1.51973982E+01  7.59869910E+00
  7.59869910E+00 -1.51973982E+01  7.59869910E+00  7.59869910E+00 -1.51973982E+01
  7.59869910E+00  7.59869910E+00 -1.51973982E+01  7.59869910E+00  7.59869910E+00
 -1.51973982E+01  7.59869910E+00  7.59869910E+00 -1.51973982E+01  7.59869910E+00
  7.59869910E+00 -1.51973982E+01  7.59869910E+00  7.59869910E+00 -1.51973982E+01
  7.59869910E+00  7.59869910E+00 -1.51973982E+01  7.59869910E+00  7.59869910E+00
 -1.51973982E+01  7.59869910E+00  7.59869910E+00 -1.51973982E+01  7.59869910E+00
  7.59869910E+00 -1.51973982E+01  7.59869910E+00  7.59869910E+00 -1.51973982E+01
  7.59869910E+00  7.59869910E+00 -1.51973982E+01  7.59869910E+00  7.59869910E+00
 -1.51973982E+01  7.59869910E+00  7.59869910E+00 -1.51973982E+01  7.59869910E+00
  7.59869910E+00 -1.51973982E+01  7.59869910E+00  7.59869910E+00 -1.51973982E+01
  7.59869910E+00  7.59869910E+00 -1.51973982E+01  7.59869910E+00  7.59869910E+00
 -1.51973982E+01  7.59869910E+00  7.59869910E+00 -1.51973982E+01  7.59869910E+00
  7.59869910E+00 -1.51973982E+01  7.59869910E+00  7.59869910E+00 -1.51973982E+01
  7.59869910E+00  7.59869910E+00 -1.51973982E+01  7.59869910E+00  7.59869910E+00
 -1.51973982E+01  7.59869910E+00  7.59869910E+00 -1.51973982E+01  7.59869910E+00
  7.59869910E+00 -1.51973982E+01  7.59869910E+00  7.59869910E+00 -1.51973982E+01
  7.59869910E+00  7.59869910E+00 -1.51973982E+01  7.59869910E+00  7.59869910E+00
 -1.51973982E+01  7.59869910E+00  7.59869910E+00 -1.51973982E+01  7.59869910E+00
  7.59869910E+00 -1.51973982E+01  7.59869910E+00  7.59869910E+00 -1.51973982E+01
  7.59869910E+00  7.59869910E+00 -1.51973982E+01  7.59869910E+00  7.59869910E+00
 -1.51973982E+01  7.59869910E+00  7.59869910E+00 -1.51973982E+01  7.59869910E+00
  7.59869910E+00 -1.51973982E+01  7.59869910E+00  7.59869910E+00 -1.51973982E+01
  7.59869910E+00  7.59869910E+00 -1.51973982E+01  7.59869910E+00  7.59869910E+00
 -1.51973982E+01  7.59869910E+00  7.59869910E+00 -1.51973982E+01  7.59869910E+00
  7.59869910E+00 -1.51973982E+01  7.59869910E+00  7.59869910E+00 -1.51973982E+01
  7.59869910E+00  7.59869910E+00 -1.51973982E+01  7.59869910E+00  7.59869910E+00
 -1.51973982E+01  7.59869910E+00  7.59869910E+00 -1.51973982E+01  7.59869910E+00
  7.59869910E+00 -1.51973982E+01  7.59869910E+00  7.59869910E+00 -1.51973982E+01
  7.59869910E+00  7.59869910E+00 -1.51973982E+01  7.59869910E+00  7.59869910E+00
 -1.51973982E+01  7.59869910E+00  7.59869910E+00 -1.51973982E+01  7.59869910E+00
  7.59869910E+00 -1.51973982E+01  7.59869910E+00  7.59869910E+00 -1.51973982E+01
  7.59869910E+00  7.59869910E+00 -1.51973982E+01  7.59869910E+00  7.59869910E+00
 -1.51973982E+01  7.59869910E+00  7.59869910E+00 -1.51973982E+01  7.59869910E+00
  7.59869910E+00 -1.51973982E+01  7.59869910E+00  7.59869910E+00 -1.51973982E+01
  7.59869910E+00  7.59869910E+00 -1.51973982E+01  7.59869910E+00  7.59869910E+00
 -1.51973982E+01  7.59869910E+00  7.59869910E+00 -1.51973982E+01  7.59869910E+00
  7.59869910E+00 -1.51973982E+01  7.59869910E+00  7.59869910E+00 -1.51973982E+01
  7.59869910E+00  7.59869910E+00 -1.51973982E+01  7.59869910E+00  7.59869910E+00
 -1.51973982E+01  7.59869910E+00  7.59869910E+00 -1.51973982E+01  7.59869910E+00
  7.59869910E+00 -1.51973982E+01  7.59869910E+00  7.59869910E+00 -1.51973982E+01
  7.59869910E+00  7.59869910E+00 -1.51973982E+01  7.59869910E+00  7.59869910E+00
 -1.51973982E+01  7.59869910E+00  7.59869910E+00 -1.51973982E+01  7.59869910E+00
  7.59869910E+00 -1.51973982E+01  7.59869910E+00  7.59869910E+00 -1.51973982E+01
  7.59869910E+00  7.59869910E+00 -1.51973982E+01  7.59869910E+00  7.59869910E+00
 -1.51973982E+01  7.59869910E+00  7.59869910E+00 -1.51973982E+01  7.59869910E+00
  7.59869910E+00 -1.51973982E+01  7.59869910E+00  7.59869910E+00 -1.51973982E+01
  7.59869910E+00  7.59869910E+00 -1.51973982E+01  7.59869910E+00  7.59869910E+00
 -1.51973982E+01  7.59869910E+00  7.59869910E+00 -1.51973982E+01  7.59869910E+00
  7.59869910E+00 -1.51973982E+01  7.59869910E+00  7.59869910E+00 -1.51973982E+01
  7.59869910E+00  7.59869910E+00 -1.51973982E+01  7.59869910E+00  7.59869910E+00
 -1.51973982E+01  7.59869910E+00  7.59869910E+00 -1.51973982E+01  7.59869910E+00
  7.59869910E+00 -1.51973982E+01  7.59869910E+00  7.59869910E+00 -1.51973982E+01
  7.59869910E+00  7.59869910E+00 -1.51973982E+01  7.59869910E+00  7.59869910E+00
 -1.51973982E+01  7.59869910E+00  7.59869910E+00 -1.51973982E+01  7.59869910E+00
  7.59869910E+00 -1.51973982E+01  7.59869910E+00  7.59869910E+00 -1.51973982E+01
  7.59869910E+00  7.59869910E+00 -1.51973982E+01  7.59869910E+00  7.59869910E+00
 -1.51973982E+01  7.59869910E+00  7.59869910E+00 -1.51973982E+01  7.59869910E+00
  7.59869910E+00 -1.51973982E+01  7.59869910E+00  7.59869910E+00 -1.51973982E+01
  7.59869910E+00  7.59869910E+00 -1.51973982E+01  7.59869910E+00  7.59869910E+00
 -1.51973982E+01  7.59869910E+00  7.59869910E+00 -1.51973982E+01  7.59869910E+00
  7.59869910E+00 -1.51973982E+01  7.59869910E+00  7.59869910E+00 -1.51973982E+01
  7.59869910E+00  7.59869910E+00 -1.51973982E+01  7.59869910E+00  7.59869910E+00
 -1.51973982E+01  7.59869910E+00  7.59869910E+00 -1.51973982E+01  7.59869910E+00
  7.59869910E+00 -1.51973982E+01  7.59869910E+00  7.59869910E+00 -1.51973982E+01
  7.59869910E+00  7.59869910E+00 -1.51973982E+01  7.59869910E+00  7.59869910E+00
 -1.51973982E+01  7.59869910E+00  7.59869910E+00 -1.51973982E+01  7.59869910E+00
  7.59869910E+00 -1.51973982E+01  7.59869910E+00  7.59869910E+00 -1.51973982E+01
  7.59869910E+00  7.59869910E+00 -1.51973982E+01  7.59869910E+00  7.59869910E+00
 -1.51973982E+01  7.59869910E+00  7.59869910E+00 -1.51973982E+01  7.59869910E+00
  7.59869910E+00 -1.51973982E+01  7.59869910E+00  7.59869910E+00 -1.51973982E+01
  7.59869910E+00  7.59869910E+00 -1.51973982E+01  7.59869910E+00  7.59869910E+00
 -1.51973982E+01  7.59869910E+00  7.59869910E+00 -1.51973982E+01  7.59869910E+00
  7.59869910E+00 -1.51973982E+01  7.59869910E+00  7.59869910E+00 -1.51973982E+01
  7.59869910E+00  7.59869910E+00 -1.51973982E+01  7.59869910E+00  7.59869910E+00
 -1.51973982E+01  7.59869910E+00  7.59869910E+00 -1.51973982E+01  7.59869910E+00
  7.59869910E+00 -1.51973982E+01  7.59869910E+00  7.59869910E+00 -1.51973982E+01
  7.59869910E+00  7.59869910E+00 -1.51973982E+01  7.59869910E+00  7.59869910E+00
 -1.51973982E+01  7.59869910E+00  7.59869910E+00 -1.51973982E+01  7.59869910E+00
  7.59869910E+00 -1.51973982E+01  7.59869910E+00  7.59869910E+00 -1.51973982E+01
  7.59869910E+00  7.59869910E+00 -1.51973982E+01  7.59869910E+00  7.59869910E+00
 -1.51973982E+01  7.59869910E+00  7.59869910E+00 -1.51973982E+01  7.59869910E+00
  7.59869910E+00 -1.51973982E+01  7.59869910E+00  7.59869910E+00 -1.51973982E+01
  7.59869910E+00  7.59869910E+00 -1.51973982E+01  7.59869910E+00  7.59869910E+00
 -1.51973982E+01  7.59869910E+00  7.59869910E+00 -1.51973982E+01  7.59869910E+00
  7.59869910E+00 -1.51973982E+01  7.59869910E+00  7.59869910E+00 -1.51973982E+01
  7.59869910E+00  7.59869910E+00 -1.51973982E+01  7.59869910E+00  7.59869910E+00
 -1.51973982E+01  7.59869910E+00  7.59869910E+00 -1.51973982E+01  7.59869910E+00
  7.59869910E+00 -1.51973982E+01  7.59869910E+00  7.59869910E+00 -1.51973982E+01
  7.59869910E+00  7.59869910E+00 -1.51973982E+01  7.59869910E+00  7.59869910E+00
 -1.51973982E+01  7.59869910E+00  7.59869910E+00 -1.51973982E+01  7.59869910E+00
  7.59869910E+00 -1.51973982E+01  7.59869910E+00  7.59869910E+00 -1.51973982E+01
  7.59869910E+00  7.59869910E+00 -1.51973982E+01  7.59869910E+00  7.59869910E+00
 -1.51973982E+01  7.59869910E+00  7.59869910E+00 -1.51973982E+01  7.59869910E+00
  7.59869910E+00 -1.51973982E+01  7.59869910E+00  7.59869910E+00 -1.51973982E+01
  7.59869910E+00  7.59869910E+00 -1.51973982E+01  7.59869910E+00  7.59869910E+00
 -1.51973982E+01  7.59869910E+00  7.59869910E+00 -1.51973982E+01  7.59869910E+00
  7.59869910E+00 -1.51973982E+01  7.59869910E+00  7.59869910E+00 -1.51973982E+01
  7.59869910E+00  7.59869910E+00 -1.51973982E+01  7.59869910E+00  7.59869910E+00
 -1.51973982E+01  7.59869910E+00  7.59869910E+00 -1.51973982E+01  7.59869910E+00
  7.59869910E+00 -1.51973982E+01  7.59869910E+00  7.59869910E+00 -1.51973982E+01
  7.59869910E+00  7.59869910E+00 -1.51973982E+01  7.59869910E+00  7.59869910E+00
 -1.51973982E+01  7.59869910E+00  7.59869910E+00 -1.51973982E+01  7.59869910E+00
  7.59869910E+00 -1.51973982E+01  7.59869910E+00  7.59869910E+00 -1.51973982E+01
  7.59869910E+00  7.59869910E+00 -1.51973982E+01  7.59869910E+00  7.59869910E+00
 -1.51973982E+01  7.59869910E+00  7.59869910E+00 -1.51973982E+01  7.59869910E+00
  7.59869910E+00 -1.51973982E+01  7.59869910E+00  7.59869910E+00 -1.51973982E+01
  7.59869910E+00  7.59869910E+00 -1.51973982E+01  7.59869910E+00  7.59869910E+00
 -1.51973982E+01  7.59869910E+00  7.59869910E+00 -1.51973982E+01  7.59869910E+00
  7.59869910E+00 -1.51973982E+01  7.59869910E+00  7.59869910E+00 -1.51973982E+01
  7.59869910E+00  7.59869910E+00 -1.51973982E+01  7.59869910E+00  7.59869910E+00
 -1.51973982E+01  7.59869910E+00  7.59869910E+00 -1.51973982E+01  7.59869910E+00
  7.59869910E+00 -1.51973982E+01  7.59869910E+00  7.59869910E+00 -1.51973982E+01
  7.59869910E+00  7.59869910E+00 -1.51973982E+01  7.59869910E+00  7.59869910E+00
 -1.51973982E+01  7.59869910E+00  7.59869910E+00 -1.51973982E+01  7.59869910E+00
  7.59869910E+00 -1.51973982E+01  7.59869910E+00  7.59869910E+00 -1.51973982E+01
  7.59869910E+00  7.59869910E+00 -1.51973982E+01  7.59869910E+00  7.59869910E+00
 -1.51973982E+01  7.59869910E+00  7.59869910E+00 -1.51973982E+01  7.59869910E+00
  7.59869910E+00 -1.51973982E+01  7.59869910E+00  7.59869910E+00 -1.51973982E+01
  7.59869910E+00  7.59869910E+00 -1.51973982E+01  7.59869910E+00  7.59869910E+00
 -1.51973982E+01  7.59869910E+00  7.59869910E+00 -1.51973982E+01  7.59869910E+00
  7.59869910E+00 -1.51973982E+01  7.59869910E+00  7.59869910E+00 -1.51973982E+01
  7.59869910E+00  7.59869910E+00 -1.51973982E+01  7.59869910E+00  7.59869910E+00
 -1.51973982E+01  7.59869910E+00  7.59869910E+00 -1.51973982E+01  7.59869910E+00
  7.59869910E+00 -1.51973982E+01  7.59869910E+00  7.59869910E+00 -1.51973982E+01
  7.59869910E+00  7.59869910E+00 -1.51973982E+01  7.59869910E+00  7.59869910E+00
 -1.51973982E+01  7.59869910E+00  7.59869910E+00 -1.51973982E+01  7.59869910E+00
  7.59869910E+00 -1.51973982E+01  7.59869910E+00  7.59869910E+00 -1.51973982E+01
  7.59869910E+00  7.59869910E+00 -1.51973982E+01  7.59869910E+00  7.59869910E+00
 -1.51973982E+01  7.59869910E+00  7.59869910E+00 -1.51973982E+01  7.59869910E+00
  7.59869910E+00 -1.51973982E+01  7.59869910E+00  7.59869910E+00 -1.51973982E+01
  7.59869910E+00  7.59869910E+00 -1.51973982E+01  7.59869910E+00  7.59869910E+00
 -1.51973982E+01  7.59869910E+00  7.59869910E+00 -1.51973982E+01  7.59869910E+00
  7.59869910E+00 -1.51973982E+01  7.59869910E+00  7.59869910E+00 -1.51973982E+01
  7.59869910E+00  7.59869910E+00 -1.51973982E+01  7.59869910E+00  7.59869910E+00
 -1.51973982E+01  7.59869910E+00  7.59869910E+00 -1.51973982E+01  7.59869910E+00
  7.59869910E+00 -1.51973982E+01  7.59869910E+00  7.59869910E+00 -1.51973982E+01
  7.59869910E+00  7.59869910E+00 -1.51973982E+01  7.59869910E+00  7.59869910E+00
 -1.51973982E+01  7.59869910E+00  7.59869910E+00 -1.51973982E+01  7.59869910E+00
  7.59869910E+00 -1.51973982E+01  7.59869910E+00  7.59869910E+00 -1.51973982E+01
  7.59869910E+00  7.59869910E+00 -1.51973982E+01  7.59869910E+00  7.59869910E+00
 -1.51973982E+01  7.59869910E+00  7.59869910E+00 -1.51973982E+01  7.59869910E+00
  7.59869910E+00 -1.51973982E+01  7.59869910E+00  7.59869910E+00 -1.51973982E+01
  7.59869910E+00  7.59869910E+00 -1.51973982E+01  7.59869910E+00  7.59869910E+00
 -1.51973982E+01  7.59869910E+00  7.59869910E+00 -1.51973982E+01  7.59869910E+00
  7.59869910E+00 -1.51973982E+01  7.59869910E+00  7.59869910E+00 -1.51973982E+01
  7.59869910E+00  7.59869910E+00 -1.51973982E+01  7.59869910E+00  7.59869910E+00
 -1.51973982E+01  7.59869910E+00  7.59869910E+00 -1.51973982E+01  7.59869910E+00
  7.59869910E+00 -1.51973982E+01  7.59869910E+00  7.59869910E+00 -1.51973982E+01
  7.59869910E+00  7.59869910E+00 -1.51973982E+01  7.59869910E+00  7.59869910E+00
 -1.51973982E+01  7.59869910E+00  7.59869910E+00 -1.51973982E+01  7.59869910E+00
  7.59869910E+00 -1.51973982E+01  7.59869910E+00  7.59869910E+00 -1.51973982E+01
  7.59869910E+00  7.59869910E+00 -1.51973982E+01  7.59869910E+00  7.59869910E+00
 -1.51973982E+01  7.59869910E+00  7.59869910E+00 -1.51973982E+01  7.59869910E+00
  7.59869910E+00 -1.51973982E+01  7.59869910E+00  7.59869910E+00 -1.51973982E+01
  7.59869910E+00  7.59869910E+00 -1.51973982E+01  7.59869910E+00  7.59869910E+00
 -1.51973982E+01  7.59869910E+00  7.59869910E+00 -1.51973982E+01  7.59869910E+00
  7.59869910E+00 -1.51973982E+01  7.59869910E+00  7.59869910E+00 -1.51973982E+01
  7.59869910E+00  7.59869910E+00 -1.51973982E+01  7.59869910E+00  7.59869910E+00
 -1.51973982E+01  7.59869910E+00  7.59869910E+00 -1.51973982E+01  7.59869910E+00
  7.59869910E+00 -1.51973982E+01  7.59869910E+00  7.59869910E+00 -1.51973982E+01
  7.59869910E+00  7.59869910E+00 -1.51973982E+01  7.59869910E+00  7.59869910E+00
 -1.51973982E+01  7.59869910E+00  7.59869910E+00 -1.51973982E+01  7.59869910E+00
  7.59869910E+00 -1.51973982E+01  7.59869910E+00  7.59869910E+00 -1.51973982E+01
  7.59869910E+00  7.59869910E+00 -1.51973982E+01  7.59869910E+00  7.59869910E+00
 -1.51973982E+01  7.59869910E+00  7.59869910E+00 -1.51973982E+01  7.59869910E+00
  7.59869910E+00 -1.51973982E+01  7.59869910E+00  7.59869910E+00 -1.51973982E+01
  7.59869910E+00  7.59869910E+00 -1.51973982E+01  7.59869910E+00  7.59869910E+00
 -1.51973982E+01  7.59869910E+00  7.59869910E+00 -1.51973982E+01  7.59869910E+00
  7.59869910E+00 -1.51973982E+01  7.59869910E+00  7.59869910E+00 -1.51973982E+01
  7.59869910E+00  7.59869910E+00 -1.51973982E+01  7.59869910E+00  7.59869910E+00
 -1.51973982E+01  7.59869910E+00  7.59869910E+00 -1.51973982E+01  7.59869910E+00
  7.59869910E+00 -1.51973982E+01  7.59869910E+00  7.59869910E+00 -1.51973982E+01
  7.59869910E+00  7.59869910E+00 -1.51973982E+01  7.59869910E+00  7.59869910E+00
 -1.51973982E+01  7.59869910E+00  7.59869910E+00 -1.51973982E+01  7.59869910E+00
  7.59869910E+00 -1.51973982E+01  7.59869910E+00  7.59869910E+00 -1.51973982E+01
  7.59869910E+00  7.59869910E+00 -1.51973982E+01  7.59869910E+00  7.59869910E+00
 -1.51973982E+01  7.59869910E+00  7.59869910E+00 -1.51973982E+01  7.59869910E+00
  7.59869910E+00 -1.51973982E+01  7.59869910E+00  7.59869910E+00 -1.51973982E+01
  7.59869910E+00  7.59869910E+00 -1.51973982E+01  7.59869910E+00  7.59869910E+00
 -1.51973982E+01  7.59869910E+00  7.59869910E+00 -1.51973982E+01  7.59869910E+00
  7.59869910E+00 -1.51973982E+01  7.59869910E+00  7.59869910E+00 -1.51973982E+01
  7.59869910E+00  7.59869910E+00 -1.51973982E+01  7.59869910E+00  7.59869910E+00
 -1.51973982E+01  7.59869910E+00  7.59869910E+00 -1.51973982E+01  7.59869910E+00
  7.59869910E+00 -1.51973982E+01  7.59869910E+00  7.59869910E+00 -1.51973982E+01
  7.59869910E+00  7.59869910E+00 -1.51973982E+01  7.59869910E+00  7.59869910E+00
 -1.51973982E+01  7.59869910E+00  7.59869910E+00 -1.51973982E+01  7.59869910E+00
  7.59869910E+00 -1.51973982E+01  7.59869910E+00  7.59869910E+00 -1.51973982E+01
  7.59869910E+00  7.59869910E+00 -1.51973982E+01  7.59869910E+00  7.59869910E+00
 -1.51973982E+01  7.59869910E+00  7.59869910E+00 -1.51973982E+01  7.59869910E+00
  7.59869910E+00 -1.51973982E+01  7.59869910E+00  7.59869910E+00 -1.51973982E+01
  7.59869910E+00  7.59869910E+00 -1.51973982E+01  7.59869910E+00  7.59869910E+00
 -1.51973982E+01  7.59869910E+00  7.59869910E+00 -1.51973982E+01  7.59869910E+00
  7.59869910E+00 -1.51973982E+01  7.59869910E+00  7.59869910E+00 -1.51973982E+01
  7.59869910E+00  7.59869910E+00 -1.51973982E+01  7.59869910E+00  7.59869910E+00
 -1.51973982E+01  7.59869910E+00  7.59869910E+00 -1.51973982E+01  7.59869910E+00
  7.59869910E+00 -1.51973982E+01  7.59869910E+00  7.59869910E+00 -1.51973982E+01
  7.59869910E+00  7.59869910E+00 -1.51973982E+01  7.59869910E+00  7.59869910E+00
 -1.51973982E+01  7.59869910E+00  7.59869910E+00 -1.51973982E+01  7.59869910E+00
  7.59869910E+00 -1.51973982E+01  7.59869910E+00  7.59869910E+00 -1.51973982E+01
  7.59869910E+00  7.59869910E+00 -1.51973982E+01  7.59869910E+00  7.59869910E+00
 -1.51973982E+01  7.59869910E+00  7.59869910E+00 -1.51973982E+01  7.59869910E+00
  7.59869910E+00 -1.51973982E+01  7.59869910E+00  7.59869910E+00 -1.51973982E+01
  7.59869910E+00  7.59869910E+00 -1.51973982E+01  7.59869910E+00  7.59869910E+00
 -1.51973982E+01  7.59869910E+00  7.59869910E+00 -1.51973982E+01  7.59869910E+00
  7.59869910E+00 -1.51973982E+01  7.59869910E+00  7.59869910E+00 -1.51973982E+01
  7.59869910E+00  7.59869910E+00 -1.51973982E+01  7.59869910E+00  7.59869910E+00
 -1.51973982E+01  7.59869910E+00  7.59869910E+00 -1.51973982E+01  7.59869910E+00
  7.59869910E+00 -1.51973982E+01  7.59869910E+00  7.59869910E+00 -1.51973982E+01
  7.59869910E+00  7.59869910E+00 -1.51973982E+01  7.59869910E+00  7.59869910E+00
 -1.51973982E+01  7.59869910E+00  7.59869910E+00 -1.51973982E+01  7.59869910E+00
  7.59869910E+00 -1.51973982E+01  7.59869910E+00  7.59869910E+00 -1.51973982E+01
  7.59869910E+00  7.59869910E+00 -1.51973982E+01  7.59869910E+00  7.59869910E+00
 -1.51973982E+01  7.59869910E+00  7.59869910E+00 -1.51973982E+01  7.59869910E+00
  7.59869910E+00 -1.51973982E+01  7.59869910E+00  7.59869910E+00 -1.51973982E+01
  7.59869910E+00  7.59869910E+00 -1.51973982E+01  7.59869910E+00  7.59869910E+00
 -1.51973982E+01  7.59869910E+00  7.59869910E+00 -1.51973982E+01  7.59869910E+00
  7.59869910E+00 -1.51973982E+01  7.59869910E+00  7.59869910E+00 -1.51973982E+01
  7.59869910E+00  7.59869910E+00 -1.51973982E+01  7.59869910E+00  7.59869910E+00
 -1.51973982E+01  7.59869910E+00  7.59869910E+00 -1.51973982E+01  7.59869910E+00
  7.59869910E+00 -1.51973982E+01  7.59869910E+00  7.59869910E+00 -1.51973982E+01
  7.59869910E+00  7.59869910E+00 -1.51973982E+01  7.59869910E+00  7.59869910E+00
 -1.51973982E+01  7.59869910E+00  7.59869910E+00 -1.51973982E+01  7.59869910E+00
  7.59869910E+00 -1.51973982E+01  7.59869910E+00  7.59869910E+00 -1.51973982E+01
  7.59869910E+00  7.59869910E+00 -1.51973982E+01  7.59869910E+00  7.59869910E+00
 -1.51973982E+01  7.59869910E+00  7.59869910E+00 -1.51973982E+01  7.59869910E+00
  7.59869910E+00 -1.51973982E+01  7.59869910E+00  7.59869910E+00 -1.51973982E+01
  7.59869910E+00  7.59869910E+00 -1.51973982E+01  7.59869910E+00  7.59869910E+00
 -1.51973982E+01  7.59869910E+00  7.59869910E+00 -1.51973982E+01  7.59869910E+00
  7.59869910E+00 -1.51973982E+01  7.59869910E+00  7.59869910E+00 -1.51973982E+01
  7.59869910E+00  7.59869910E+00 -1.51973982E+01  7.59869910E+00  7.59869910E+00
 -1.51973982E+01  7.59869910E+00  7.59869910E+00 -1.51973982E+01  7.59869910E+00
  7.59869910E+00 -1.51973982E+01  7.59869910E+00  7.59869910E+00 -1.51973982E+01
  7.59869910E+00  7.59869910E+00 -1.51973982E+01  7.59869910E+00  7.59869910E+00
 -1.51973982E+01  7.59869910E+00  7.59869910E+00 -1.51973982E+01  7.59869910E+00
  7.59869910E+00 -1.51973982E+01  7.59869910E+00  7.59869910E+00 -1.51973982E+01
  7.59869910E+00  7.59869910E+00 -1.51973982E+01  7.59869910E+00  7.59869910E+00
 -1.51973982E+01  7.59869910E+00  7.59869910E+00 -1.51973982E+01  7.59869910E+00
  7.59869910E+00 -1.51973982E+01  7.59869910E+00  7.59869910E+00 -1.51973982E+01
  7.59869910E+00  7.59869910E+00 -1.51973982E+01  7.59869910E+00  7.59869910E+00
 -1.51973982E+01  7.59869910E+00  7.59869910E+00 -1.51973982E+01  7.59869910E+00
  7.59869910E+00 -1.51973982E+01  7.59869910E+00  7.59869910E+00 -1.51973982E+01
  7.59869910E+00  7.59869910E+00 -1.51973982E+01  7.59869910E+00  7.59869910E+00
 -1.51973982E+01  7.59869910E+00  7.59869910E+00 -1.51973982E+01  7.59869910E+00
  7.59869910E+00 -1.51973982E+01  7.59869910E+00  7.59869910E+00 -1.51973982E+01
  7.59869910E+00  7.59869910E+00 -1.51973982E+01  7.59869910E+00  7.59869910E+00
 -1.51973982E+01  7.59869910E+00  7.59869910E+00 -1.51973982E+01  7.59869910E+00
  7.59869910E+00 -1.51973982E+01  7.59869910E+00  7.59869910E+00 -1.51973982E+01
  7.59869910E+00  7.59869910E+00 -1.51973982E+01  7.59869910E+00  7.59869910E+00
 -1.51973982E+01  7.59869910E+00  7.59869910E+00 -1.51973982E+01  7.59869910E+00
  7.59869910E+00 -1.51973982E+01  7.59869910E+00  7.59869910E+00 -1.51973982E+01
  7.59869910E+00  7.59869910E+00 -1.51973982E+01  7.59869910E+00  7.59869910E+00
 -1.51973982E+01  7.59869910E+00  7.59869910E+00 -1.51973982E+01  7.59869910E+00
  7.59869910E+00 -1.51973982E+01  7.59869910E+00  7.59869910E+00 -1.51973982E+01
  7.59869910E+00  7.59869910E+00 -1.51973982E+01  7.59869910E+00  7.59869910E+00
 -1.51973982E+01  7.59869910E+00  7.59869910E+00 -1.51973982E+01  7.59869910E+00
  7.59869910E+00 -1.51973982E+01  7.59869910E+00  7.59869910E+00 -1.51973982E+01
  7.59869910E+00  7.59869910E+00 -1.51973982E+01  7.59869910E+00  7.59869910E+00
 -1.51973982E+01  7.59869910E+00  7.59869910E+00 -1.51973982E+01  7.59869910E+00
  7.59869910E+00 -1.51973982E+01  7.59869910E+00  7.59869910E+00 -1.51973982E+01
  7.59869910E+00  7.59869910E+00 -1.51973982E+01  7.59869910E+00  7.59869910E+00
 -1.51973982E+01  7.59869910E+00  7.59869910E+00 -1.51973982E+01  7.59869910E+00
  7.59869910E+00 -1.51973982E+01  7.59869910E+00  7.59869910E+00 -1.51973982E+01
  7.59869910E+00  7.59869910E+00 -1.51973982E+01  7.59869910E+00  7.59869910E+00
 -1.51973982E+01  7.59869910E+00  7.59869910E+00 -1.51973982E+01  7.59869910E+00
  7.59869910E+00 -1.51973982E+01  7.59869910E+00  7.59869910E+00 -1.51973982E+01
  7.59869910E+00  7.59869910E+00 -1.51973982E+01  7.59869910E+00  7.59869910E+00
 -1.51973982E+01  7.59869910E+00  7.59869910E+00 -1.51973982E+01  7.59869910E+00
  7.59869910E+00 -1.51973982E+01  7.59869910E+00  7.59869910E+00 -1.51973982E+01
  7.59869910E+00  7.59869910E+00 -1.51973982E+01  7.59869910E+00  7.59869910E+00
 -1.51973982E+01  7.59869910E+00  7.59869910E+00 -1.51973982E+01  7.59869910E+00
  7.59869910E+00 -1.51973982E+01  7.59869910E+00  7.59869910E+00 -1.51973982E+01
  7.59869910E+00  7.59869910E+00 -1.51973982E+01  7.59869910E+00  7.59869910E+00
 -1.51973982E+01  7.59869910E+00  7.59869910E+00 -1.51973982E+01  7.59869910E+00
  7.59869910E+00 -1.51973982E+01  7.59869910E+00  7.59869910E+00 -1.51973982E+01
  7.59869910E+00  7.59869910E+00 -1.51973982E+01  7.59869910E+00  7.59869910E+00
 -1.51973982E+01  7.59869910E+00  7.59869910E+00 -1.51973982E+01  7.59869910E+00
  7.59869910E+00 -1.51973982E+01  7.59869910E+00  7.59869910E+00 -1.51973982E+01
  7.59869910E+00  7.59869910E+00 -1.51973982E+01  7.59869910E+00  7.59869910E+00
 -1.51973982E+01  7.59869910E+00  7.59869910E+00 -1.51973982E+01  7.59869910E+00
  7.59869910E+00 -1.51973982E+01  7.59869910E+00  7.59869910E+00 -1.51973982E+01
  7.59869910E+00  7.59869910E+00 -1.51973982E+01  7.59869910E+00  7.59869910E+00
 -1.51973982E+01  7.59869910E+00  7.59869910E+00 -1.51973982E+01  7.59869910E+00
  7.59869910E+00 -1.51973982E+01  7.59869910E+00  7.59869910E+00 -1.51973982E+01
  7.59869910E+00  7.59869910E+00 -1.51973982E+01  7.59869910E+00  7.59869910E+00
 -1.51973982E+01  7.59869910E+00  7.59869910E+00 -1.51973982E+01  7.59869910E+00
  7.59869910E+00 -1.51973982E+01  7.59869910E+00  7.59869910E+00 -1.51973982E+01
  7.59869910E+00  7.59869910E+00 -1.51973982E+01  7.59869910E+00  7.59869910E+00
 -1.51973982E+01  7.59869910E+00  7.59869910E+00 -1.51973982E+01  7.59869910E+00
  7.59869910E+00 -1.51973982E+01  7.59869910E+00  7.59869910E+00 -1.51973982E+01
  7.59869910E+00  7.59869910E+00 -1.51973982E+01  7.59869910E+00  7.59869910E+00
 -1.51973982E+01  7.59869910E+00  7.59869910E+00 -1.51973982E+01  7.59869910E+00
  7.59869910E+00 -1.51973982E+01  7.59869910E+00  7.59869910E+00 -1.51973982E+01
  7.59869910E+00  7.59869910E+00 -1.51973982E+01  7.59869910E+00  7.59869910E+00
 -1.51973982E+01  7.59869910E+00  7.59869910E+00 -1.51973982E+01  7.59869910E+00
  7.59869910E+00 -1.51973982E+01  7.59869910E+00  7.59869910E+00 -1.51973982E+01
  7.59869910E+00  7.59869910E+00 -1.51973982E+01  7.59869910E+00  7.59869910E+00
 -1.51973982E+01  7.59869910E+00  7.59869910E+00 -1.51973982E+01  7.59869910E+00
  7.59869910E+00 -1.51973982E+01  7.59869910E+00  7.59869910E+00 -1.51973982E+01
  7.59869910E+00  7.59869910E+00 -1.51973982E+01  7.59869910E+00  7.59869910E+00
 -1.51973982E+01  7.59869910E+00  7.59869910E+00 -1.51973982E+01  7.59869910E+00
  7.59869910E+00 -1.51973982E+01  7.59869910E+00  7.59869910E+00 -1.51973982E+01
  7.59869910E+00  7.59869910E+00 -1.51973982E+01  7.59869910E+00  7.59869910E+00
 -1.51973982E+01  7.59869910E+00  7.59869910E+00 -1.51973982E+01  7.59869910E+00
  7.59869910E+00 -1.51973982E+01  7.59869910E+00  7.59869910E+00 -1.51973982E+01
  7.59869910E+00  7.59869910E+00 -1.51973982E+01  7.59869910E+00  7.59869910E+00
 -1.51973982E+01  7.59869910E+00  7.59869910E+00 -1.51973982E+01  7.59869910E+00
  7.59869910E+00 -1.51973982E+01  7.59869910E+00  7.59869910E+00 -1.51973982E+01
  7.59869910E+00  7.59869910E+00 -1.51973982E+01  7.59869910E+00  7.59869910E+00
 -1.51973982E+01  7.59869910E+00  7.59869910E+00 -1.51973982E+01  7.59869910E+00
  7.59869910E+00 -1.51973982E+01  7.59869910E+00  7.59869910E+00 -1.51973982E+01
  7.59869910E+00  7.59869910E+00 -1.51973982E+01  7.59869910E+00  7.59869910E+00
 -1.51973982E+01  7.59869910E+00  7.59869910E+00 -1.51973982E+01  7.59869910E+00
  7.59869910E+00 -1.51973982E+01  7.59869910E+00  7.59869910E+00 -1.51973982E+01
  7.59869910E+00  7.59869910E+00 -1.51973982E+01  7.59869910E+00  7.59869910E+00
 -1.51973982E+01  7.59869910E+00  7.59869910E+00 -1.51973982E+01  7.59869910E+00
  7.59869910E+00 -1.51973982E+01  7.59869910E+00  7.59869910E+00 -1.51973982E+01
  7.59869910E+00  7.59869910E+00 -1.51973982E+01  7.59869910E+00  7.59869910E+00
 -1.51973982E+01  7.59869910E+00  7.59869910E+00 -1.51973982E+01  7.59869910E+00
  7.59869910E+00 -1.51973982E+01  7.59869910E+00  7.59869910E+00 -1.51973982E+01
  7.59869910E+00  7.59869910E+00 -1.51973982E+01  7.59869910E+00  7.59869910E+00
 -1.51973982E+01  7.59869910E+00  7.59869910E+00 -1.51973982E+01  7.59869910E+00
  7.59869910E+00 -1.51973982E+01  7.59869910E+00  7.59869910E+00 -1.51973982E+01
  7.59869910E+00  7.59869910E+00 -1.51973982E+01  7.59869910E+00  7.59869910E+00
 -1.51973982E+01  7.59869910E+00  7.59869910E+00 -1.51973982E+01  7.59869910E+00
  7.59869910E+00 -1.51973982E+01  7.59869910E+00  7.59869910E+00 -1.51973982E+01
  7.59869910E+00  7.59869910E+00 -1.51973982E+01  7.59869910E+00  7.59869910E+00
 -1.51973982E+01  7.59869910E+00  7.59869910E+00 -1.51973982E+01  7.59869910E+00
  7.59869910E+00 -1.51973982E+01  7.59869910E+00  7.59869910E+00 -1.51973982E+01
  7.59869910E+00  7.59869910E+00 -1.51973982E+01  7.59869910E+00  7.59869910E+00
 -1.51973982E+01  7.59869910E+00  7.59869910E+00 -1.51973982E+01  7.59869910E+00
  7.59869910E+00 -1.51973982E+01  7.59869910E+00  7.59869910E+00 -1.51973982E+01
  7.59869910E+00  7.59869910E+00 -1.51973982E+01  7.59869910E+00  7.59869910E+00
 -1.51973982E+01  7.59869910E+00  7.59869910E+00 -1.51973982E+01  7.59869910E+00
  7.59869910E+00 -1.51973982E+01  7.59869910E+00  7.59869910E+00 -1.51973982E+01
  7.59869910E+00  7.59869910E+00 -1.51973982E+01  7.59869910E+00  7.59869910E+00
 -1.51973982E+01  7.59869910E+00  7.59869910E+00 -1.51973982E+01  7.59869910E+00
  7.59869910E+00 -1.51973982E+01  7.59869910E+00  7.59869910E+00 -1.51973982E+01
  7.59869910E+00  7.59869910E+00 -1.51973982E+01  7.59869910E+00  7.59869910E+00
 -1.51973982E+01  7.59869910E+00  7.59869910E+00 -1.51973982E+01  7.59869910E+00
  7.59869910E+00 -1.51973982E+01  7.59869910E+00  7.59869910E+00 -1.51973982E+01
  7.59869910E+00  7.59869910E+00 -1.51973982E+01  7.59869910E+00  7.59869910E+00
 -1.51973982E+01  7.59869910E+00  7.59869910E+00 -1.51973982E+01  7.59869910E+00
  7.59869910E+00 -1.51973982E+01  7.59869910E+00  7.59869910E+00 -1.51973982E+01
  7.59869910E+00  7.59869910E+00 -1.51973982E+01  7.59869910E+00  7.59869910E+00
 -1.51973982E+01  7.59869910E+00  7.59869910E+00 -1.51973982E+01  7.59869910E+00
  7.59869910E+00 -1.51973982E+01  7.59869910E+00  7.59869910E+00 -1.51973982E+01
  7.59869910E+00  7.59869910E+00 -1.51973982E+01  7.59869910E+00  7.59869910E+00
 -1.51973982E+01  7.59869910E+00  7.59869910E+00 -1.51973982E+01  7.59869910E+00
  7.59869910E+00 -1.51973982E+01  7.59869910E+00  7.59869910E+00 -1.51973982E+01
  7.59869910E+00  7.59869910E+00 -1.51973982E+01  7.59869910E+00  7.59869910E+00
 -1.51973982E+01  7.59869910E+00  7.59869910E+00 -1.51973982E+01  7.59869910E+00
  7.59869910E+00 -1.51973982E+01  7.59869910E+00  7.59869910E+00 -1.51973982E+01
  7.59869910E+00  7.59869910E+00 -1.51973982E+01  7.59869910E+00  7.59869910E+00
 -1.51973982E+01  7.59869910E+00  7.59869910E+00 -1.51973982E+01  7.59869910E+00
  7.59869910E+00 -1.51973982E+01  7.59869910E+00  7.59869910E+00 -1.51973982E+01
  7.59869910E+00  7.59869910E+00 -1.51973982E+01  7.59869910E+00  7.59869910E+00
 -1.51973982E+01  7.59869910E+00  7.59869910E+00 -1.51973982E+01  7.59869910E+00
  7.59869910E+00 -1.51973982E+01  7.59869910E+00  7.59869910E+00 -1.51973982E+01
  7.59869910E+00  7.59869910E+00 -1.51973982E+01  7.59869910E+00  7.59869910E+00
 -1.51973982E+01  7.59869910E+00  7.59869910E+00 -1.51973982E+01  7.59869910E+00
  7.59869910E+00 -1.51973982E+01  7.59869910E+00  7.59869910E+00 -1.51973982E+01
  7.59869910E+00  7.59869910E+00 -1.51973982E+01  7.59869910E+00  7.59869910E+00
 -1.51973982E+01  7.59869910E+00  7.59869910E+00 -1.51973982E+01  7.59869910E+00
  7.59869910E+00 -1.51973982E+01  7.59869910E+00  7.59869910E+00 -1.51973982E+01
  7.59869910E+00  7.59869910E+00 -1.51973982E+01  7.59869910E+00  7.59869910E+00
 -1.51973982E+01  7.59869910E+00  7.59869910E+00 -1.51973982E+01  7.59869910E+00
  7.59869910E+00 -1.51973982E+01  7.59869910E+00  7.59869910E+00 -1.51973982E+01
  7.59869910E+00  7.59869910E+00 -1.51973982E+01  7.59869910E+00  7.59869910E+00
 -1.51973982E+01  7.59869910E+00  7.59869910E+00 -1.51973982E+01  7.59869910E+00
  7.59869910E+00 -1.51973982E+01  7.59869910E+00  7.59869910E+00 -1.51973982E+01
  7.59869910E+00  7.59869910E+00 -1.51973982E+01  7.59869910E+00  7.59869910E+00
 -1.51973982E+01  7.59869910E+00  7.59869910E+00 -1.51973982E+01  7.59869910E+00
  7.59869910E+00 -1.51973982E+01  7.59869910E+00  7.59869910E+00 -1.51973982E+01
  7.59869910E+00  7.59869910E+00 -1.51973982E+01  7.59869910E+00  7.59869910E+00
 -1.51973982E+01  7.59869910E+00  7.59869910E+00 -1.51973982E+01  7.59869910E+00
  7.59869910E+00 -1.51973982E+01  7.59869910E+00  7.59869910E+00 -1.51973982E+01
  7.59869910E+00  7.59869910E+00 -1.51973982E+01  7.59869910E+00  7.59869910E+00
 -1.51973982E+01  7.59869910E+00  7.59869910E+00 -1.51973982E+01  7.59869910E+00
  7.59869910E+00 -1.51973982E+01  7.59869910E+00  7.59869910E+00 -1.51973982E+01
  7.59869910E+00  7.59869910E+00 -1.51973982E+01  7.59869910E+00  7.59869910E+00
 -1.51973982E+01  7.59869910E+00  7.59869910E+00 -1.51973982E+01  7.59869910E+00
  7.59869910E+00 -1.51973982E+01  7.59869910E+00  7.59869910E+00 -1.51973982E+01
  7.59869910E+00  7.59869910E+00 -1.51973982E+01  7.59869910E+00  7.59869910E+00
 -1.51973982E+01  7.59869910E+00  7.59869910E+00 -1.51973982E+01  7.59869910E+00
  7.59869910E+00 -1.51973982E+01  7.59869910E+00  7.59869910E+00 -1.51973982E+01
  7.59869910E+00  7.59869910E+00 -1.51973982E+01  7.59869910E+00  7.59869910E+00
 -1.51973982E+01  7.59869910E+00  7.59869910E+00 -1.51973982E+01  7.59869910E+00
  7.59869910E+00 -1.51973982E+01  7.59869910E+00  7.59869910E+00 -1.51973982E+01
  7.59869910E+00  7.59869910E+00 -1.51973982E+01  7.59869910E+00  7.59869910E+00
 -1.51973982E+01  7.59869910E+00  7.59869910E+00 -1.51973982E+01  7.59869910E+00
  7.59869910E+00 -1.51973982E+01  7.59869910E+00  7.59869910E+00 -1.51973982E+01
  7.59869910E+00  7.59869910E+00 -1.51973982E+01  7.59869910E+00  7.59869910E+00
 -1.51973982E+01  7.59869910E+00  7.59869910E+00 -1.51973982E+01  7.59869910E+00
  7.59869910E+00 -1.51973982E+01  7.59869910E+00  7.59869910E+00 -1.51973982E+01
  7.59869910E+00  7.59869910E+00 -1.51973982E+01  7.59869910E+00  7.59869910E+00
 -1.51973982E+01  7.59869910E+00  7.59869910E+00 -1.51973982E+01  7.59869910E+00
  7.59869910E+00 -1.51973982E+01  7.59869910E+00  7.59869910E+00 -1.51973982E+01
  7.59869910E+00  7.59869910E+00 -1.51973982E+01  7.59869910E+00  7.59869910E+00
 -1.51973982E+01  7.59869910E+00  7.59869910E+00 -1.51973982E+01  7.59869910E+00
  7.59869910E+00 -1.51973982E+01  7.59869910E+00  7.59869910E+00 -1.51973982E+01
  7.59869910E+00  7.59869910E+00 -1.51973982E+01  7.59869910E+00  7.59869910E+00
 -1.51973982E+01  7.59869910E+00  7.59869910E+00 -1.51973982E+01  7.59869910E+00
  7.59869910E+00 -1.51973982E+01  7.59869910E+00  7.59869910E+00 -1.51973982E+01
  7.59869910E+00  7.59869910E+00 -1.51973982E+01  7.59869910E+00  7.59869910E+00
 -1.51973982E+01  7.59869910E+00  7.59869910E+00 -1.51973982E+01  7.59869910E+00
  7.59869910E+00 -1.51973982E+01  7.59869910E+00  7.59869910E+00 -1.51973982E+01
  7.59869910E+00  7.59869910E+00 -1.51973982E+01  7.59869910E+00  7.59869910E+00
 -1.51973982E+01  7.59869910E+00  7.59869910E+00 -1.51973982E+01  7.59869910E+00
  7.59869910E+00 -1.51973982E+01  7.59869910E+00  7.59869910E+00 -1.51973982E+01
  7.59869910E+00  7.59869910E+00 -1.51973982E+01  7.59869910E+00  7.59869910E+00
 -1.51973982E+01  7.59869910E+00  7.59869910E+00 -1.51973982E+01  7.59869910E+00
  7.59869910E+00 -1.51973982E+01  7.59869910E+00  7.59869910E+00 -1.51973982E+01
  7.59869910E+00  7.59869910E+00 -1.51973982E+01  7.59869910E+00  7.59869910E+00
 -1.51973982E+01  7.59869910E+00  7.59869910E+00 -1.51973982E+01  7.59869910E+00
  7.59869910E+00 -1.51973982E+01  7.59869910E+00  7.59869910E+00 -1.51973982E+01
  7.59869910E+00  7.59869910E+00 -1.51973982E+01  7.59869910E+00  7.59869910E+00
 -1.51973982E+01  7.59869910E+00  7.59869910E+00 -1.51973982E+01  7.59869910E+00
  7.59869910E+00 -1.51973982E+01  7.59869910E+00  7.59869910E+00 -1.51973982E+01
  7.59869910E+00  7.59869910E+00 -1.51973982E+01  7.59869910E+00  7.59869910E+00
 -1.51973982E+01  7.59869910E+00  7.59869910E+00 -1.51973982E+01  7.59869910E+00
  7.59869910E+00 -1.51973982E+01  7.59869910E+00  7.59869910E+00 -1.51973982E+01
  7.59869910E+00  7.59869910E+00 -1.51973982E+01  7.59869910E+00  7.59869910E+00
 -1.51973982E+01  7.59869910E+00  7.59869910E+00 -1.51973982E+01  7.59869910E+00
  7.59869910E+00 -1.51973982E+01  7.59869910E+00  7.59869910E+00 -1.51973982E+01
  7.59869910E+00  7.59869910E+00 -1.51973982E+01  7.59869910E+00  7.59869910E+00
 -1.51973982E+01  7.59869910E+00  7.59869910E+00 -1.51973982E+01  7.59869910E+00
  7.59869910E+00 -1.51973982E+01  7.59869910E+00  7.59869910E+00 -1.51973982E+01
  7.59869910E+00  7.59869910E+00 -1.51973982E+01  7.59869910E+00  7.59869910E+00
 -1.51973982E+01  7.59869910E+00  7.59869910E+00 -1.51973982E+01  7.59869910E+00
  7.59869910E+00 -1.51973982E+01  7.59869910E+00  7.59869910E+00 -1.51973982E+01
  7.59869910E+00  7.59869910E+00 -1.51973982E+01  7.59869910E+00  7.59869910E+00
 -1.51973982E+01  7.59869910E+00  7.59869910E+00 -1.51973982E+01  7.59869910E+00
  7.59869910E+00 -1.51973982E+01  7.59869910E+00  7.59869910E+00 -1.51973982E+01
  7.59869910E+00  7.59869910E+00 -1.51973982E+01  7.59869910E+00  7.59869910E+00
 -1.51973982E+01  7.59869910E+00  7.59869910E+00 -1.51973982E+01  7.59869910E+00
  7.59869910E+00 -1.51973982E+01  7.59869910E+00  7.59869910E+00 -1.51973982E+01
  7.59869910E+00  7.59869910E+00 -1.51973982E+01  7.59869910E+00  7.59869910E+00
 -1.51973982E+01  7.59869910E+00  7.59869910E+00 -1.51973982E+01  7.59869910E+00
  7.59869910E+00 -1.51973982E+01  7.59869910E+00  7.59869910E+00 -1.51973982E+01
  7.59869910E+00  7.59869910E+00 -1.51973982E+01  7.59869910E+00  7.59869910E+00
 -1.51973982E+01  7.59869910E+00  7.59869910E+00 -1.51973982E+01  7.59869910E+00
  7.59869910E+00 -1.51973982E+01  7.59869910E+00  7.59869910E+00 -1.51973982E+01
  7.59869910E+00  7.59869910E+00 -1.51973982E+01  7.59869910E+00  7.59869910E+00
 -1.51973982E+01  7.59869910E+00  7.59869910E+00 -1.51973982E+01  7.59869910E+00
  7.59869910E+00 -1.51973982E+01  7.59869910E+00  7.59869910E+00 -1.51973982E+01
  7.59869910E+00  7.59869910E+00 -1.51973982E+01  7.59869910E+00  7.59869910E+00
 -1.51973982E+01  7.59869910E+00  7.59869910E+00 -1.51973982E+01  7.59869910E+00
  7.59869910E+00 -1.51973982E+01  7.59869910E+00  7.59869910E+00 -1.51973982E+01
  7.59869910E+00  7.59869910E+00 -1.51973982E+01  7.59869910E+00  7.59869910E+00
 -1.51973982E+01  7.59869910E+00  7.59869910E+00 -1.51973982E+01  7.59869910E+00
  7.59869910E+00 -1.51973982E+01  7.59869910E+00  7.59869910E+00 -1.51973982E+01
  7.59869910E+00  7.59869910E+00 -1.51973982E+01  7.59869910E+00  7.59869910E+00
 -1.51973982E+01  7.59869910E+00  7.59869910E+00 -1.51973982E+01  7.59869910E+00
  7.59869910E+00 -1.51973982E+01  7.59869910E+00  7.59869910E+00 -1.51973982E+01
  7.59869910E+00  7.59869910E+00 -1.51973982E+01  7.59869910E+00  7.59869910E+00
 -1.51973982E+01  7.59869910E+00  7.59869910E+00 -1.51973982E+01  7.59869910E+00
  7.59869910E+00 -1.51973982E+01  7.59869910E+00  7.59869910E+00 -1.51973982E+01
  7.59869910E+00  7.59869910E+00 -1.51973982E+01  7.59869910E+00  7.59869910E+00
 -1.51973982E+01  7.59869910E+00  7.59869910E+00 -1.51973982E+01  7.59869910E+00
  7.59869910E+00 -1.51973982E+01  7.59869910E+00  7.59869910E+00 -1.51973982E+01
  7.59869910E+00  7.59869910E+00 -1.51973982E+01  7.59869910E+00  7.59869910E+00
 -1.51973982E+01  7.59869910E+00  7.59869910E+00 -1.51973982E+01  7.59869910E+00
  7.59869910E+00 -1.51973982E+01  7.59869910E+00  7.59869910E+00 -1.51973982E+01
  7.59869910E+00  7.59869910E+00 -1.51973982E+01  7.59869910E+00  7.59869910E+00
 -1.51973982E+01  7.59869910E+00  7.59869910E+00 -1.51973982E+01  7.59869910E+00
  7.59869910E+00 -1.51973982E+01  7.59869910E+00  7.59869910E+00 -1.51973982E+01
  7.59869910E+00  7.59869910E+00 -1.51973982E+01  7.59869910E+00  7.59869910E+00
 -1.51973982E+01  7.59869910E+00  7.59869910E+00 -1.51973982E+01  7.59869910E+00
  7.59869910E+00 -1.51973982E+01  7.59869910E+00  7.59869910E+00 -1.51973982E+01
  7.59869910E+00  7.59869910E+00 -1.51973982E+01  7.59869910E+00  7.59869910E+00
 -1.51973982E+01  7.59869910E+00  7.59869910E+00 -1.51973982E+01  7.59869910E+00
  7.59869910E+00 -1.51973982E+01  7.59869910E+00  7.59869910E+00 -1.51973982E+01
  7.59869910E+00  7.59869910E+00 -1.51973982E+01  7.59869910E+00  7.59869910E+00
 -1.51973982E+01  7.59869910E+00  7.59869910E+00 -1.51973982E+01  7.59869910E+00
  7.59869910E+00 -1.51973982E+01  7.59869910E+00  7.59869910E+00 -1.51973982E+01
  7.59869910E+00  7.59869910E+00 -1.51973982E+01  7.59869910E+00  7.59869910E+00
 -1.51973982E+01  7.59869910E+00  7.59869910E+00 -1.51973982E+01  7.59869910E+00
  7.59869910E+00 -1.51973982E+01  7.59869910E+00  7.59869910E+00 -1.51973982E+01
  7.59869910E+00  7.59869910E+00 -1.51973982E+01  7.59869910E+00  7.59869910E+00
 -1.51973982E+01  7.59869910E+00  7.59869910E+00 -1.51973982E+01  7.59869910E+00
  7.59869910E+00 -1.51973982E+01  7.59869910E+00  7.59869910E+00 -1.51973982E+01
  7.59869910E+00  7.59869910E+00 -1.51973982E+01  7.59869910E+00  7.59869910E+00
 -1.51973982E+01  7.59869910E+00  7.59869910E+00 -1.51973982E+01  7.59869910E+00
  7.59869910E+00 -1.51973982E+01  7.59869910E+00  7.59869910E+00 -1.51973982E+01
  7.59869910E+00  7.59869910E+00 -1.51973982E+01  7.59869910E+00  7.59869910E+00
 -1.51973982E+01  7.59869910E+00  7.59869910E+00 -1.51973982E+01  7.59869910E+00
  7.59869910E+00 -1.51973982E+01  7.59869910E+00  7.59869910E+00 -1.51973982E+01
  7.59869910E+00  7.59869910E+00 -1.51973982E+01  7.59869910E+00  7.59869910E+00
 -1.51973982E+01  7.59869910E+00  7.59869910E+00 -1.51973982E+01  7.59869910E+00
  7.59869910E+00 -1.51973982E+01  7.59869910E+00  7.59869910E+00 -1.51973982E+01
  7.59869910E+00  7.59869910E+00 -1.51973982E+01  7.59869910E+00  7.59869910E+00
 -1.51973982E+01  7.59869910E+00  7.59869910E+00 -1.51973982E+01  7.59869910E+00
  7.59869910E+00 -1.51973982E+01  7.59869910E+00  7.59869910E+00 -1.51973982E+01
  7.59869910E+00  7.59869910E+00 -1.51973982E+01  7.59869910E+00  7.59869910E+00
 -1.51973982E+01  7.59869910E+00  7.59869910E+00 -1.51973982E+01  7.59869910E+00
  7.59869910E+00 -1.51973982E+01  7.59869910E+00  7.59869910E+00 -1.51973982E+01
  7.59869910E+00  7.59869910E+00 -1.51973982E+01  7.59869910E+00  7.59869910E+00
 -1.51973982E+01  7.59869910E+00  7.59869910E+00 -1.51973982E+01  7.59869910E+00
  7.59869910E+00 -1.51973982E+01  7.59869910E+00  7.59869910E+00 -1.51973982E+01
  7.59869910E+00  7.59869910E+00 -1.51973982E+01  7.59869910E+00  7.59869910E+00
 -1.51973982E+01  7.59869910E+00  7.59869910E+00 -1.51973982E+01  7.59869910E+00
  7.59869910E+00 -1.51973982E+01  7.59869910E+00  7.59869910E+00 -1.51973982E+01
  7.59869910E+00  7.59869910E+00 -1.51973982E+01  7.59869910E+00  7.59869910E+00
 -1.51973982E+01  7.59869910E+00  7.59869910E+00 -1.51973982E+01  7.59869910E+00
  7.59869910E+00 -1.51973982E+01  7.59869910E+00  7.59869910E+00 -1.51973982E+01
  7.59869910E+00  7.59869910E+00 -1.51973982E+01  7.59869910E+00  7.59869910E+00
 -1.51973982E+01  7.59869910E+00  7.59869910E+00 -1.51973982E+01  7.59869910E+00
  7.59869910E+00 -1.51973982E+01  7.59869910E+00  7.59869910E+00 -1.51973982E+01
  7.59869910E+00  7.59869910E+00 -1.51973982E+01  7.59869910E+00  7.59869910E+00
 -1.51973982E+01  7.59869910E+00  7.59869910E+00 -1.51973982E+01  7.59869910E+00
  7.59869910E+00 -1.51973982E+01  7.59869910E+00  7.59869910E+00 -1.51973982E+01
  7.59869910E+00  7.59869910E+00 -1.51973982E+01  7.59869910E+00  7.59869910E+00
 -1.51973982E+01  7.59869910E+00  7.59869910E+00 -1.51973982E+01  7.59869910E+00
  7.59869910E+00 -1.51973982E+01  7.59869910E+00  7.59869910E+00 -1.51973982E+01
  7.59869910E+00  7.59869910E+00 -1.51973982E+01  7.59869910E+00  7.59869910E+00
 -1.51973982E+01  7.59869910E+00  7.59869910E+00 -1.51973982E+01  7.59869910E+00
  7.59869910E+00 -1.51973982E+01  7.59869910E+00  7.59869910E+00 -1.51973982E+01
  7.59869910E+00  7.59869910E+00 -1.51973982E+01  7.59869910E+00  7.59869910E+00
 -1.51973982E+01  7.59869910E+00  7.59869910E+00 -1.51973982E+01  7.59869910E+00
  7.59869910E+00 -1.51973982E+01  7.59869910E+00  7.59869910E+00 -1.51973982E+01
  7.59869910E+00  7.59869910E+00 -1.51973982E+01  7.59869910E+00  7.59869910E+00
 -1.51973982E+01  7.59869910E+00  7.59869910E+00 -1.51973982E+01  7.59869910E+00
  7.59869910E+00 -1.51973982E+01  7.59869910E+00  7.59869910E+00 -1.51973982E+01
  7.59869910E+00  7.59869910E+00 -1.51973982E+01  7.59869910E+00  7.59869910E+00
 -1.51973982E+01  7.59869910E+00  7.59869910E+00 -1.51973982E+01  7.59869910E+00
  7.59869910E+00 -1.51973982E+01  7.59869910E+00  7.59869910E+00 -1.51973982E+01
  7.59869910E+00  7.59869910E+00 -1.51973982E+01  7.59869910E+00  7.59869910E+00
 -1.51973982E+01  7.59869910E+00  7.59869910E+00 -1.51973982E+01  7.59869910E+00
  7.59869910E+00 -1.51973982E+01  7.59869910E+00  7.59869910E+00 -1.51973982E+01
  7.59869910E+00  7.59869910E+00 -1.51973982E+01  7.59869910E+00  7.59869910E+00
 -1.51973982E+01  7.59869910E+00  7.59869910E+00 -1.51973982E+01  7.59869910E+00
  7.59869910E+00 -1.51973982E+01  7.59869910E+00  7.59869910E+00 -1.51973982E+01
  7.59869910E+00  7.59869910E+00 -1.51973982E+01  7.59869910E+00  7.59869910E+00
 -1.51973982E+01  7.59869910E+00  7.59869910E+00 -1.51973982E+01  7.59869910E+00
  7.59869910E+00 -1.51973982E+01  7.59869910E+00  7.59869910E+00 -1.51973982E+01
  7.59869910E+00  7.59869910E+00 -1.51973982E+01  7.59869910E+00  7.59869910E+00
 -1.51973982E+01  7.59869910E+00  7.59869910E+00 -1.51973982E+01  7.59869910E+00
  7.59869910E+00 -1.51973982E+01  7.59869910E+00  7.59869910E+00 -1.51973982E+01
  7.59869910E+00  7.59869910E+00 -1.51973982E+01  7.59869910E+00  7.59869910E+00
 -1.51973982E+01  7.59869910E+00  7.59869910E+00 -1.51973982E+01  7.59869910E+00
  7.59869910E+00 -1.51973982E+01  7.59869910E+00  7.59869910E+00 -1.51973982E+01
  7.59869910E+00  7.59869910E+00 -1.51973982E+01  7.59869910E+00  7.59869910E+00
 -1.51973982E+01  7.59869910E+00  7.59869910E+00 -1.51973982E+01  7.59869910E+00
  7.59869910E+00 -1.51973982E+01  7.59869910E+00  7.59869910E+00 -1.51973982E+01
  7.59869910E+00  7.59869910E+00 -1.51973982E+01  7.59869910E+00  7.59869910E+00
 -1.51973982E+01  7.59869910E+00  7.59869910E+00 -1.51973982E+01  7.59869910E+00
  7.59869910E+00 -1.51973982E+01  7.59869910E+00  7.59869910E+00 -1.51973982E+01
  7.59869910E+00  7.59869910E+00 -1.51973982E+01  7.59869910E+00  7.59869910E+00
 -1.51973982E+01  7.59869910E+00  7.59869910E+00 -1.51973982E+01  7.59869910E+00
  7.59869910E+00 -1.51973982E+01  7.59869910E+00  7.59869910E+00 -1.51973982E+01
  7.59869910E+00  7.59869910E+00 -1.51973982E+01  7.59869910E+00  7.59869910E+00
 -1.51973982E+01  7.59869910E+00  7.59869910E+00 -1.51973982E+01  7.59869910E+00
  7.59869910E+00 -1.51973982E+01  7.59869910E+00  7.59869910E+00 -1.51973982E+01
  7.59869910E+00  7.59869910E+00 -1.51973982E+01  7.59869910E+00  7.59869910E+00
 -1.51973982E+01  7.59869910E+00  7.59869910E+00 -1.51973982E+01  7.59869910E+00
  7.59869910E+00 -1.51973982E+01  7.59869910E+00  7.59869910E+00 -1.51973982E+01
  7.59869910E+00  7.59869910E+00 -1.51973982E+01  7.59869910E+00  7.59869910E+00
 -1.51973982E+01  7.59869910E+00  7.59869910E+00 -1.51973982E+01  7.59869910E+00
  7.59869910E+00 -1.51973982E+01  7.59869910E+00  7.59869910E+00 -1.51973982E+01
  7.59869910E+00  7.59869910E+00 -1.51973982E+01  7.59869910E+00  7.59869910E+00
 -1.51973982E+01  7.59869910E+00  7.59869910E+00 -1.51973982E+01  7.59869910E+00
  7.59869910E+00 -1.51973982E+01  7.59869910E+00  7.59869910E+00 -1.51973982E+01
  7.59869910E+00  7.59869910E+00 -1.51973982E+01  7.59869910E+00  7.59869910E+00
 -1.51973982E+01  7.59869910E+00  7.59869910E+00 -1.51973982E+01  7.59869910E+00
  7.59869910E+00 -1.51973982E+01  7.59869910E+00  7.59869910E+00 -1.51973982E+01
  7.59869910E+00  7.59869910E+00 -1.51973982E+01  7.59869910E+00  7.59869910E+00
 -1.51973982E+01  7.59869910E+00  7.59869910E+00 -1.51973982E+01  7.59869910E+00
  7.59869910E+00 -1.51973982E+01  7.59869910E+00  7.59869910E+00 -1.51973982E+01
  7.59869910E+00  7.59869910E+00 -1.51973982E+01  7.59869910E+00  7.59869910E+00
 -1.51973982E+01  7.59869910E+00  7.59869910E+00 -1.51973982E+01  7.59869910E+00
  7.59869910E+00 -1.51973982E+01  7.59869910E+00  7.59869910E+00 -1.51973982E+01
  7.59869910E+00  7.59869910E+00 -1.51973982E+01  7.59869910E+00  7.59869910E+00
 -1.51973982E+01  7.59869910E+00  7.59869910E+00 -1.51973982E+01  7.59869910E+00
  7.59869910E+00 -1.51973982E+01  7.59869910E+00  7.59869910E+00 -1.51973982E+01
  7.59869910E+00  7.59869910E+00 -1.51973982E+01  7.59869910E+00  7.59869910E+00
 -1.51973982E+01  7.59869910E+00  7.59869910E+00 -1.51973982E+01  7.59869910E+00
  7.59869910E+00 -1.51973982E+01  7.59869910E+00  7.59869910E+00 -1.51973982E+01
  7.59869910E+00  7.59869910E+00 -1.51973982E+01  7.59869910E+00  7.59869910E+00
 -1.51973982E+01  7.59869910E+00  7.59869910E+00 -1.51973982E+01  7.59869910E+00
  7.59869910E+00 -1.51973982E+01  7.59869910E+00  7.59869910E+00 -1.51973982E+01
  7.59869910E+00  7.59869910E+00 -1.51973982E+01  7.59869910E+00  7.59869910E+00
 -1.51973982E+01  7.59869910E+00  7.59869910E+00 -1.51973982E+01  7.59869910E+00
  7.59869910E+00 -1.51973982E+01  7.59869910E+00  7.59869910E+00 -1.51973982E+01
  7.59869910E+00  7.59869910E+00 -1.51973982E+01  7.59869910E+00  7.59869910E+00
 -1.51973982E+01  7.59869910E+00  7.59869910E+00 -1.51973982E+01  7.59869910E+00
  7.59869910E+00 -1.51973982E+01  7.59869910E+00  7.59869910E+00 -1.51973982E+01
  7.59869910E+00  7.59869910E+00 -1.51973982E+01  7.59869910E+00  7.59869910E+00
 -1.51973982E+01  7.59869910E+00  7.59869910E+00 -1.51973982E+01  7.59869910E+00
  7.59869910E+00 -1.51973982E+01  7.59869910E+00  7.59869910E+00 -1.51973982E+01
  7.59869910E+00  7.59869910E+00 -1.51973982E+01  7.59869910E+00  7.59869910E+00
 -1.51973982E+01  7.59869910E+00  7.59869910E+00 -1.51973982E+01  7.59869910E+00
  7.59869910E+00 -1.51973982E+01  7.59869910E+00  7.59869910E+00 -1.51973982E+01
  7.59869910E+00  7.59869910E+00 -1.51973982E+01  7.59869910E+00  7.59869910E+00
 -1.51973982E+01  7.59869910E+00  7.59869910E+00 -1.51973982E+01  7.59869910E+00
  7.59869910E+00 -1.51973982E+01  7.59869910E+00  7.59869910E+00 -1.51973982E+01
  7.59869910E+00  7.59869910E+00 -1.51973982E+01  7.59869910E+00  7.59869910E+00
 -1.51973982E+01  7.59869910E+00  7.59869910E+00 -1.51973982E+01  7.59869910E+00
  7.59869910E+00 -1.51973982E+01  7.59869910E+00  7.59869910E+00 -1.51973982E+01
  7.59869910E+00  7.59869910E+00 -1.51973982E+01  7.59869910E+00  7.59869910E+00
 -1.51973982E+01  7.59869910E+00  7.59869910E+00 -1.51973982E+01  7.59869910E+00
  7.59869910E+00 -1.51973982E+01  7.59869910E+00  7.59869910E+00 -1.51973982E+01
  7.59869910E+00  7.59869910E+00 -1.51973982E+01  7.59869910E+00  7.59869910E+00
 -1.51973982E+01  7.59869910E+00  7.59869910E+00 -1.51973982E+01  7.59869910E+00
  7.59869910E+00 -1.51973982E+01  7.59869910E+00  7.59869910E+00 -1.51973982E+01
  7.59869910E+00  7.59869910E+00 -1.51973982E+01  7.59869910E+00  7.59869910E+00
 -1.51973982E+01  7.59869910E+00  7.59869910E+00 -1.51973982E+01  7.59869910E+00
  7.59869910E+00 -1.51973982E+01  7.59869910E+00  7.59869910E+00 -1.51973982E+01
  7.59869910E+00  7.59869910E+00 -1.51973982E+01  7.59869910E+00  7.59869910E+00
 -1.51973982E+01  7.59869910E+00  7.59869910E+00 -1.51973982E+01  7.59869910E+00
  7.59869910E+00 -1.51973982E+01  7.59869910E+00  7.59869910E+00 -1.51973982E+01
  7.59869910E+00  7.59869910E+00 -1.51973982E+01  7.59869910E+00  7.59869910E+00
 -1.51973982E+01  7.59869910E+00  7.59869910E+00 -1.51973982E+01  7.59869910E+00
  7.59869910E+00 -1.51973982E+01  7.59869910E+00  7.59869910E+00 -1.51973982E+01
  7.59869910E+00  7.59869910E+00 -1.51973982E+01  7.59869910E+00  7.59869910E+00
 -1.51973982E+01  7.59869910E+00  7.59869910E+00 -1.51973982E+01  7.59869910E+00
  7.59869910E+00 -1.51973982E+01  7.59869910E+00  7.59869910E+00 -1.51973982E+01
  7.59869910E+00  7.59869910E+00 -1.51973982E+01  7.59869910E+00  7.59869910E+00
 -1.51973982E+01  7.59869910E+00  7.59869910E+00 -1.51973982E+01  7.59869910E+00
  7.59869910E+00 -1.51973982E+01  7.59869910E+00  7.59869910E+00 -1.51973982E+01
  7.59869910E+00  7.59869910E+00 -1.51973982E+01  7.59869910E+00  7.59869910E+00
 -1.51973982E+01  7.59869910E+00  7.59869910E+00 -1.51973982E+01  7.59869910E+00
  7.59869910E+00 -1.51973982E+01  7.59869910E+00  7.59869910E+00 -1.51973982E+01
  7.59869910E+00  7.59869910E+00 -1.51973982E+01  7.59869910E+00  7.59869910E+00
 -1.51973982E+01  7.59869910E+00  7.59869910E+00 -1.51973982E+01  7.59869910E+00
  7.59869910E+00 -1.51973982E+01  7.59869910E+00  7.59869910E+00 -1.51973982E+01
  7.59869910E+00  7.59869910E+00 -1.51973982E+01  7.59869910E+00  7.59869910E+00
 -1.51973982E+01  7.59869910E+00  7.59869910E+00 -1.51973982E+01  7.59869910E+00
  7.59869910E+00 -1.51973982E+01  7.59869910E+00  7.59869910E+00 -1.51973982E+01
  7.59869910E+00  7.59869910E+00 -1.51973982E+01  7.59869910E+00  7.59869910E+00
 -1.51973982E+01  7.59869910E+00  7.59869910E+00 -1.51973982E+01  7.59869910E+00
  7.59869910E+00 -1.51973982E+01  7.59869910E+00  7.59869910E+00 -1.51973982E+01
  7.59869910E+00  7.59869910E+00 -1.51973982E+01  7.59869910E+00  7.59869910E+00
 -1.51973982E+01  7.59869910E+00  7.59869910E+00 -1.51973982E+01  7.59869910E+00
  7.59869910E+00 -1.51973982E+01  7.59869910E+00  7.59869910E+00 -1.51973982E+01
  7.59869910E+00  7.59869910E+00 -1.51973982E+01  7.59869910E+00  7.59869910E+00
 -1.51973982E+01  7.59869910E+00  7.59869910E+00 -1.51973982E+01  7.59869910E+00
  7.59869910E+00 -1.51973982E+01  7.59869910E+00  7.59869910E+00 -1.51973982E+01
  7.59869910E+00  7.59869910E+00 -1.51973982E+01  7.59869910E+00  7.59869910E+00
 -1.51973982E+01  7.59869910E+00  7.59869910E+00 -1.51973982E+01  7.59869910E+00
  7.59869910E+00 -1.51973982E+01  7.59869910E+00  7.59869910E+00 -1.51973982E+01
  7.59869910E+00  7.59869910E+00 -1.51973982E+01  7.59869910E+00  7.59869910E+00
 -1.51973982E+01  7.59869910E+00  7.59869910E+00 -1.51973982E+01  7.59869910E+00
  7.59869910E+00 -1.51973982E+01  7.59869910E+00  7.59869910E+00 -1.51973982E+01
  7.59869910E+00  7.59869910E+00 -1.51973982E+01  7.59869910E+00  7.59869910E+00
 -1.51973982E+01  7.59869910E+00  7.59869910E+00 -1.51973982E+01  7.59869910E+00
  7.59869910E+00 -1.51973982E+01  7.59869910E+00  7.59869910E+00 -1.51973982E+01
  7.59869910E+00  7.59869910E+00 -1.51973982E+01  7.59869910E+00  7.59869910E+00
 -1.51973982E+01  7.59869910E+00  7.59869910E+00 -1.51973982E+01  7.59869910E+00
  7.59869910E+00 -1.51973982E+01  7.59869910E+00  7.59869910E+00 -1.51973982E+01
  7.59869910E+00  7.59869910E+00 -1.51973982E+01  7.59869910E+00  7.59869910E+00
 -1.51973982E+01  7.59869910E+00  7.59869910E+00 -1.51973982E+01  7.59869910E+00
  7.59869910E+00 -1.51973982E+01  7.59869910E+00  7.59869910E+00 -1.51973982E+01
  7.59869910E+00  7.59869910E+00 -1.51973982E+01  7.59869910E+00  7.59869910E+00
 -1.51973982E+01  7.59869910E+00  7.59869910E+00 -1.51973982E+01  7.59869910E+00
  7.59869910E+00 -1.51973982E+01  7.59869910E+00  7.59869910E+00 -1.51973982E+01
  7.59869910E+00  7.59869910E+00 -1.51973982E+01  7.59869910E+00  7.59869910E+00
 -1.51973982E+01  7.59869910E+00  7.59869910E+00 -1.51973982E+01  7.59869910E+00
  7.59869910E+00 -1.51973982E+01  7.59869910E+00  7.59869910E+00 -1.51973982E+01
  7.59869910E+00  7.59869910E+00 -1.51973982E+01  7.59869910E+00  7.59869910E+00
 -1.51973982E+01  7.59869910E+00  7.59869910E+00 -1.51973982E+01  7.59869910E+00
  7.59869910E+00 -1.51973982E+01  7.59869910E+00  7.59869910E+00 -1.51973982E+01
  7.59869910E+00  7.59869910E+00 -1.51973982E+01  7.59869910E+00  7.59869910E+00
 -1.51973982E+01  7.59869910E+00  7.59869910E+00 -1.51973982E+01  7.59869910E+00
  7.59869910E+00 -1.51973982E+01  7.59869910E+00  7.59869910E+00 -1.51973982E+01
  7.59869910E+00  7.59869910E+00 -1.51973982E+01  7.59869910E+00  7.59869910E+00
 -1.51973982E+01  7.59869910E+00  7.59869910E+00 -1.51973982E+01  7.59869910E+00
  7.59869910E+00 -1.51973982E+01  7.59869910E+00  7.59869910E+00 -1.51973982E+01
  7.59869910E+00  7.59869910E+00 -1.51973982E+01  7.59869910E+00  7.59869910E+00
 -1.51973982E+01  7.59869910E+00  7.59869910E+00 -1.51973982E+01  7.59869910E+00
  7.59869910E+00 -1.51973982E+01  7.59869910E+00  7.59869910E+00 -1.51973982E+01
  7.59869910E+00  7.59869910E+00 -1.51973982E+01  7.59869910E+00  7.59869910E+00
 -1.51973982E+01  7.59869910E+00  7.59869910E+00 -1.51973982E+01  7.59869910E+00
  7.59869910E+00 -1.51973982E+01  7.59869910E+00  7.59869910E+00 -1.51973982E+01
  7.59869910E+00  7.59869910E+00 -1.51973982E+01  7.59869910E+00  7.59869910E+00
 -1.51973982E+01  7.59869910E+00  7.59869910E+00 -1.51973982E+01  7.59869910E+00
  7.59869910E+00 -1.51973982E+01  7.59869910E+00  7.59869910E+00 -1.51973982E+01
  7.59869910E+00  7.59869910E+00 -1.51973982E+01  7.59869910E+00  7.59869910E+00
 -1.51973982E+01  7.59869910E+00  7.59869910E+00 -1.51973982E+01  7.59869910E+00
  7.59869910E+00 -1.51973982E+01  7.59869910E+00  7.59869910E+00 -1.51973982E+01
  7.59869910E+00  7.59869910E+00 -1.51973982E+01  7.59869910E+00  7.59869910E+00
 -1.51973982E+01  7.59869910E+00  7.59869910E+00 -1.51973982E+01  7.59869910E+00
  7.59869910E+00 -1.51973982E+01  7.59869910E+00  7.59869910E+00 -1.51973982E+01
  7.59869910E+00  7.59869910E+00 -1.51973982E+01  7.59869910E+00  7.59869910E+00
 -1.51973982E+01  7.59869910E+00  7.59869910E+00 -1.51973982E+01  7.59869910E+00
  7.59869910E+00 -1.51973982E+01  7.59869910E+00  7.59869910E+00 -1.51973982E+01
  7.59869910E+00  7.59869910E+00 -1.51973982E+01  7.59869910E+00  7.59869910E+00
 -1.51973982E+01  7.59869910E+00  7.59869910E+00 -1.51973982E+01  7.59869910E+00
  7.59869910E+00 -1.51973982E+01  7.59869910E+00  7.59869910E+00 -1.51973982E+01
  7.59869910E+00  7.59869910E+00 -1.51973982E+01  7.59869910E+00  7.59869910E+00
 -1.51973982E+01  7.59869910E+00  7.59869910E+00 -1.51973982E+01  7.59869910E+00
  7.59869910E+00 -1.51973982E+01  7.59869910E+00  7.59869910E+00 -1.51973982E+01
  7.59869910E+00  7.59869910E+00 -1.51973982E+01  7.59869910E+00  7.59869910E+00
 -1.51973982E+01  7.59869910E+00  7.59869910E+00 -1.51973982E+01  7.59869910E+00
  7.59869910E+00 -1.51973982E+01  7.59869910E+00  7.59869910E+00 -1.51973982E+01
  7.59869910E+00  7.59869910E+00 -1.51973982E+01  7.59869910E+00  7.59869910E+00
 -1.51973982E+01  7.59869910E+00  7.59869910E+00 -1.51973982E+01  7.59869910E+00
  7.59869910E+00 -1.51973982E+01  7.59869910E+00  7.59869910E+00 -1.51973982E+01
  7.59869910E+00  7.59869910E+00 -1.51973982E+01  7.59869910E+00  7.59869910E+00
 -1.51973982E+01  7.59869910E+00  7.59869910E+00 -1.51973982E+01  7.59869910E+00
  7.59869910E+00 -1.51973982E+01  7.59869910E+00  7.59869910E+00 -1.51973982E+01
  7.59869910E+00  7.59869910E+00 -1.51973982E+01  7.59869910E+00  7.59869910E+00
 -1.51973982E+01  7.59869910E+00  7.59869910E+00 -1.51973982E+01  7.59869910E+00
  7.59869910E+00 -1.51973982E+01  7.59869910E+00  7.59869910E+00 -1.51973982E+01
  7.59869910E+00  7.59869910E+00 -1.51973982E+01  7.59869910E+00  7.59869910E+00
 -1.51973982E+01  7.59869910E+00  7.59869910E+00 -1.51973982E+01  7.59869910E+00
  7.59869910E+00 -1.51973982E+01  7.59869910E+00  7.59869910E+00 -1.51973982E+01
  7.59869910E+00  7.59869910E+00 -1.51973982E+01  7.59869910E+00  7.59869910E+00
 -1.51973982E+01  7.59869910E+00  7.59869910E+00 -1.51973982E+01  7.59869910E+00
  7.59869910E+00 -1.51973982E+01  7.59869910E+00  7.59869910E+00 -1.51973982E+01
  7.59869910E+00  7.59869910E+00 -1.51973982E+01  7.59869910E+00  7.59869910E+00
 -1.51973982E+01  7.59869910E+00  7.59869910E+00 -1.51973982E+01  7.59869910E+00
  7.59869910E+00 -1.51973982E+01  7.59869910E+00  7.59869910E+00 -1.51973982E+01
  7.59869910E+00  7.59869910E+00 -1.51973982E+01  7.59869910E+00  7.59869910E+00
 -1.51973982E+01  7.59869910E+00  7.59869910E+00 -1.51973982E+01  7.59869910E+00
  7.59869910E+00 -1.51973982E+01  7.59869910E+00  7.59869910E+00 -1.51973982E+01
  7.59869910E+00  7.59869910E+00 -1.51973982E+01  7.59869910E+00  7.59869910E+00
 -1.51973982E+01  7.59869910E+00  7.59869910E+00 -1.51973982E+01  7.59869910E+00
  7.59869910E+00 -1.51973982E+01  7.59869910E+00  7.59869910E+00 -1.51973982E+01
  7.59869910E+00  7.59869910E+00 -1.51973982E+01  7.59869910E+00  7.59869910E+00
 -1.51973982E+01  7.59869910E+00  7.59869910E+00 -1.51973982E+01  7.59869910E+00
  7.59869910E+00 -1.51973982E+01  7.59869910E+00  7.59869910E+00 -1.51973982E+01
  7.59869910E+00  7.59869910E+00 -1.51973982E+01  7.59869910E+00  7.59869910E+00
 -1.51973982E+01  7.59869910E+00  7.59869910E+00 -1.51973982E+01  7.59869910E+00
  7.59869910E+00 -1.51973982E+01  7.59869910E+00  7.59869910E+00 -1.51973982E+01
  7.59869910E+00  7.59869910E+00 -1.51973982E+01  7.59869910E+00  7.59869910E+00
 -1.51973982E+01  7.59869910E+00  7.59869910E+00 -1.51973982E+01  7.59869910E+00
  7.59869910E+00 -1.51973982E+01  7.59869910E+00  7.59869910E+00 -1.51973982E+01
  7.59869910E+00  7.59869910E+00 -1.51973982E+01  7.59869910E+00  7.59869910E+00
 -1.51973982E+01  7.59869910E+00  7.59869910E+00 -1.51973982E+01  7.59869910E+00
  7.59869910E+00 -1.51973982E+01  7.59869910E+00  7.59869910E+00 -1.51973982E+01
  7.59869910E+00  7.59869910E+00 -1.51973982E+01  7.59869910E+00  7.59869910E+00
 -1.51973982E+01  7.59869910E+00  7.59869910E+00 -1.51973982E+01  7.59869910E+00
  7.59869910E+00 -1.51973982E+01  7.59869910E+00  7.59869910E+00 -1.51973982E+01
  7.59869910E+00  7.59869910E+00 -1.51973982E+01  7.59869910E+00  7.59869910E+00
 -1.51973982E+01  7.59869910E+00  7.59869910E+00 -1.51973982E+01  7.59869910E+00
  7.59869910E+00 -1.51973982E+01  7.59869910E+00  7.59869910E+00 -1.51973982E+01
  7.59869910E+00  7.59869910E+00 -1.51973982E+01  7.59869910E+00  7.59869910E+00
 -1.51973982E+01  7.59869910E+00  7.59869910E+00 -1.51973982E+01  7.59869910E+00
  7.59869910E+00 -1.51973982E+01  7.59869910E+00  7.59869910E+00 -1.51973982E+01
  7.59869910E+00  7.59869910E+00 -1.51973982E+01  7.59869910E+00  7.59869910E+00
 -1.51973982E+01  7.59869910E+00  7.59869910E+00 -1.51973982E+01  7.59869910E+00
  7.59869910E+00 -1.51973982E+01  7.59869910E+00  7.59869910E+00 -1.51973982E+01
  7.59869910E+00  7.59869910E+00 -1.51973982E+01  7.59869910E+00  7.59869910E+00
 -1.51973982E+01  7.59869910E+00  7.59869910E+00 -1.51973982E+01  7.59869910E+00
  7.59869910E+00 -1.51973982E+01  7.59869910E+00  7.59869910E+00 -1.51973982E+01
  7.59869910E+00  7.59869910E+00 -1.51973982E+01  7.59869910E+00  7.59869910E+00
 -1.51973982E+01  7.59869910E+00  7.59869910E+00 -1.51973982E+01  7.59869910E+00
  7.59869910E+00 -1.51973982E+01  7.59869910E+00  7.59869910E+00 -1.51973982E+01
  7.59869910E+00  7.59869910E+00 -1.51973982E+01  7.59869910E+00  7.59869910E+00
 -1.51973982E+01  7.59869910E+00  7.59869910E+00 -1.51973982E+01  7.59869910E+00
  7.59869910E+00 -1.51973982E+01  7.59869910E+00  7.59869910E+00 -1.51973982E+01
  7.59869910E+00  7.59869910E+00 -1.51973982E+01  7.59869910E+00  7.59869910E+00
 -1.51973982E+01  7.59869910E+00  7.59869910E+00 -1.51973982E+01  7.59869910E+00
  7.59869910E+00 -1.51973982E+01  7.59869910E+00  7.59869910E+00 -1.51973982E+01
  7.59869910E+00  7.59869910E+00 -1.51973982E+01  7.59869910E+00  7.59869910E+00
 -1.51973982E+01  7.59869910E+00  7.59869910E+00 -1.51973982E+01  7.59869910E+00
  7.59869910E+00 -1.51973982E+01  7.59869910E+00  7.59869910E+00 -1.51973982E+01
  7.59869910E+00  7.59869910E+00 -1.51973982E+01  7.59869910E+00  7.59869910E+00
 -1.51973982E+01  7.59869910E+00  7.59869910E+00 -1.51973982E+01  7.59869910E+00
  7.59869910E+00 -1.51973982E+01  7.59869910E+00  7.59869910E+00 -1.51973982E+01
  7.59869910E+00  7.59869910E+00 -1.51973982E+01  7.59869910E+00  7.59869910E+00
 -1.51973982E+01  7.59869910E+00  7.59869910E+00 -1.51973982E+01  7.59869910E+00
  7.59869910E+00 -1.51973982E+01  7.59869910E+00  7.59869910E+00 -1.51973982E+01
  7.59869910E+00  7.59869910E+00 -1.51973982E+01  7.59869910E+00  7.59869910E+00
 -1.51973982E+01  7.59869910E+00  7.59869910E+00 -1.51973982E+01  7.59869910E+00
  7.59869910E+00 -1.51973982E+01  7.59869910E+00  7.59869910E+00 -1.51973982E+01
  7.59869910E+00  7.59869910E+00 -1.51973982E+01  7.59869910E+00  7.59869910E+00
 -1.51973982E+01  7.59869910E+00  7.59869910E+00 -1.51973982E+01  7.59869910E+00
  7.59869910E+00 -1.51973982E+01  7.59869910E+00  7.59869910E+00 -1.51973982E+01
  7.59869910E+00  7.59869910E+00 -1.51973982E+01  7.59869910E+00  7.59869910E+00
 -1.51973982E+01  7.59869910E+00  7.59869910E+00 -1.51973982E+01  7.59869910E+00
  7.59869910E+00 -1.51973982E+01  7.59869910E+00  7.59869910E+00 -1.51973982E+01
  7.59869910E+00  7.59869910E+00 -1.51973982E+01  7.59869910E+00  7.59869910E+00
 -1.51973982E+01  7.59869910E+00  7.59869910E+00 -1.51973982E+01  7.59869910E+00
  7.59869910E+00 -1.51973982E+01  7.59869910E+00  7.59869910E+00 -1.51973982E+01
  7.59869910E+00  7.59869910E+00 -1.51973982E+01  7.59869910E+00  7.59869910E+00
 -1.51973982E+01  7.59869910E+00  7.59869910E+00 -1.51973982E+01  7.59869910E+00
  7.59869910E+00 -1.51973982E+01  7.59869910E+00  7.59869910E+00 -1.51973982E+01
  7.59869910E+00  7.59869910E+00 -1.51973982E+01  7.59869910E+00  7.59869910E+00
 -1.51973982E+01  7.59869910E+00  7.59869910E+00 -1.51973982E+01  7.59869910E+00
  7.59869910E+00 -1.51973982E+01  7.59869910E+00  7.59869910E+00 -1.51973982E+01
  7.59869910E+00  7.59869910E+00 -1.51973982E+01  7.59869910E+00  7.59869910E+00
 -1.51973982E+01  7.59869910E+00  7.59869910E+00 -1.51973982E+01  7.59869910E+00
  7.59869910E+00 -1.51973982E+01  7.59869910E+00  7.59869910E+00 -1.51973982E+01
  7.59869910E+00  7.59869910E+00 -1.51973982E+01  7.59869910E+00  7.59869910E+00
 -1.51973982E+01  7.59869910E+00  7.59869910E+00 -1.51973982E+01  7.59869910E+00
  7.59869910E+00 -1.51973982E+01  7.59869910E+00  7.59869910E+00 -1.51973982E+01
  7.59869910E+00  7.59869910E+00 -1.51973982E+01  7.59869910E+00  7.59869910E+00
 -1.51973982E+01  7.59869910E+00  7.59869910E+00 -1.51973982E+01  7.59869910E+00
  7.59869910E+00 -1.51973982E+01  7.59869910E+00  7.59869910E+00 -1.51973982E+01
  7.59869910E+00  7.59869910E+00 -1.51973982E+01  7.59869910E+00  7.59869910E+00
 -1.51973982E+01  7.59869910E+00  7.59869910E+00 -1.51973982E+01  7.59869910E+00
  7.59869910E+00 -1.51973982E+01  7.59869910E+00  7.59869910E+00 -1.51973982E+01
  7.59869910E+00  7.59869910E+00 -1.51973982E+01  7.59869910E+00  7.59869910E+00
 -1.51973982E+01  7.59869910E+00  7.59869910E+00 -1.51973982E+01  7.59869910E+00
  7.59869910E+00 -1.51973982E+01  7.59869910E+00  7.59869910E+00 -1.51973982E+01
  7.59869910E+00  7.59869910E+00 -1.51973982E+01  7.59869910E+00  7.59869910E+00
 -1.51973982E+01  7.59869910E+00  7.59869910E+00 -1.51973982E+01  7.59869910E+00
  7.59869910E+00 -1.51973982E+01  7.59869910E+00  7.59869910E+00 -1.51973982E+01
  7.59869910E+00  7.59869910E+00 -1.51973982E+01  7.59869910E+00  7.59869910E+00
 -1.51973982E+01  7.59869910E+00  7.59869910E+00 -1.51973982E+01  7.59869910E+00
  7.59869910E+00 -1.51973982E+01  7.59869910E+00  7.59869910E+00 -1.51973982E+01
  7.59869910E+00  7.59869910E+00 -1.51973982E+01  7.59869910E+00  7.59869910E+00
 -1.51973982E+01  7.59869910E+00  7.59869910E+00 -1.51973982E+01  7.59869910E+00
  7.59869910E+00 -1.51973982E+01  7.59869910E+00  7.59869910E+00 -1.51973982E+01
  7.59869910E+00  7.59869910E+00 -1.51973982E+01  7.59869910E+00  7.59869910E+00
 -1.51973982E+01  7.59869910E+00  7.59869910E+00 -1.51973982E+01  7.59869910E+00
  7.59869910E+00 -1.51973982E+01  7.59869910E+00  7.59869910E+00 -1.51973982E+01
  7.59869910E+00  7.59869910E+00 -1.51973982E+01  7.59869910E+00  7.59869910E+00
 -1.51973982E+01  7.59869910E+00  7.59869910E+00 -1.51973982E+01  7.59869910E+00
  7.59869910E+00 -1.51973982E+01  7.59869910E+00  7.59869910E+00 -1.51973982E+01
  7.59869910E+00  7.59869910E+00 -1.51973982E+01  7.59869910E+00  7.59869910E+00
 -1.51973982E+01  7.59869910E+00  7.59869910E+00 -1.51973982E+01  7.59869910E+00
  7.59869910E+00 -1.51973982E+01  7.59869910E+00  7.59869910E+00 -1.51973982E+01
  7.59869910E+00  7.59869910E+00 -1.51973982E+01  7.59869910E+00  7.59869910E+00
 -1.51973982E+01  7.59869910E+00  7.59869910E+00 -1.51973982E+01  7.59869910E+00
  7.59869910E+00 -1.51973982E+01  7.59869910E+00  7.59869910E+00 -1.51973982E+01
  7.59869910E+00  7.59869910E+00 -1.51973982E+01  7.59869910E+00  7.59869910E+00
 -1.51973982E+01  7.59869910E+00  7.59869910E+00 -1.51973982E+01  7.59869910E+00
  7.59869910E+00 -1.51973982E+01  7.59869910E+00  7.59869910E+00 -1.51973982E+01
  7.59869910E+00  7.59869910E+00 -1.51973982E+01  7.59869910E+00  7.59869910E+00
 -1.51973982E+01  7.59869910E+00  7.59869910E+00 -1.51973982E+01  7.59869910E+00
  7.59869910E+00 -1.51973982E+01  7.59869910E+00  7.59869910E+00 -1.51973982E+01
  7.59869910E+00  7.59869910E+00 -1.51973982E+01  7.59869910E+00  7.59869910E+00
 -1.51973982E+01  7.59869910E+00  7.59869910E+00 -1.51973982E+01  7.59869910E+00
  7.59869910E+00 -1.51973982E+01  7.59869910E+00  7.59869910E+00 -1.51973982E+01
  7.59869910E+00  7.59869910E+00 -1.51973982E+01  7.59869910E+00  7.59869910E+00
 -1.51973982E+01  7.59869910E+00  7.59869910E+00 -1.51973982E+01  7.59869910E+00
  7.59869910E+00 -1.51973982E+01  7.59869910E+00  7.59869910E+00 -1.51973982E+01
  7.59869910E+00  7.59869910E+00 -1.51973982E+01  7.59869910E+00  7.59869910E+00
 -1.51973982E+01  7.59869910E+00  7.59869910E+00 -1.51973982E+01  7.59869910E+00
  7.59869910E+00 -1.51973982E+01  7.59869910E+00  7.59869910E+00 -1.51973982E+01
  7.59869910E+00  7.59869910E+00 -1.51973982E+01  7.59869910E+00  7.59869910E+00
 -1.51973982E+01  7.59869910E+00  7.59869910E+00 -1.51973982E+01  7.59869910E+00
  7.59869910E+00 -1.51973982E+01  7.59869910E+00  7.59869910E+00 -1.51973982E+01
  7.59869910E+00  7.59869910E+00 -1.51973982E+01  7.59869910E+00  7.59869910E+00
 -1.51973982E+01  7.59869910E+00  7.59869910E+00 -1.51973982E+01  7.59869910E+00
  7.59869910E+00 -1.51973982E+01  7.59869910E+00  7.59869910E+00 -1.51973982E+01
  7.59869910E+00  7.59869910E+00 -1.51973982E+01  7.59869910E+00  7.59869910E+00
 -1.51973982E+01  7.59869910E+00  7.59869910E+00 -1.51973982E+01  7.59869910E+00
  7.59869910E+00 -1.51973982E+01  7.59869910E+00  7.59869910E+00 -1.51973982E+01
  7.59869910E+00  7.59869910E+00 -1.51973982E+01  7.59869910E+00  7.59869910E+00
 -1.51973982E+01  7.59869910E+00  7.59869910E+00 -1.51973982E+01  7.59869910E+00
  7.59869910E+00 -1.51973982E+01  7.59869910E+00  7.59869910E+00 -1.51973982E+01
  7.59869910E+00  7.59869910E+00 -1.51973982E+01  7.59869910E+00  7.59869910E+00
 -1.51973982E+01  7.59869910E+00  7.59869910E+00 -1.51973982E+01  7.59869910E+00
  7.59869910E+00 -1.51973982E+01  7.59869910E+00  7.59869910E+00 -1.51973982E+01
  7.59869910E+00  7.59869910E+00 -1.51973982E+01  7.59869910E+00  7.59869910E+00
 -1.51973982E+01  7.59869910E+00  7.59869910E+00 -1.51973982E+01  7.59869910E+00
  7.59869910E+00 -1.51973982E+01  7.59869910E+00  7.59869910E+00 -1.51973982E+01
  7.59869910E+00  7.59869910E+00 -1.51973982E+01  7.59869910E+00  7.59869910E+00
 -1.51973982E+01  7.59869910E+00  7.59869910E+00 -1.51973982E+01  7.59869910E+00
  7.59869910E+00 -1.51973982E+01  7.59869910E+00  7.59869910E+00 -1.51973982E+01
  7.59869910E+00  7.59869910E+00 -1.51973982E+01  7.59869910E+00  7.59869910E+00
 -1.51973982E+01  7.59869910E+00  7.59869910E+00 -1.51973982E+01  7.59869910E+00
  7.59869910E+00 -1.51973982E+01  7.59869910E+00  7.59869910E+00 -1.51973982E+01
  7.59869910E+00  7.59869910E+00 -1.51973982E+01  7.59869910E+00  7.59869910E+00
 -1.51973982E+01  7.59869910E+00  7.59869910E+00 -1.51973982E+01  7.59869910E+00
  7.59869910E+00 -1.51973982E+01  7.59869910E+00  7.59869910E+00 -1.51973982E+01
  7.59869910E+00  7.59869910E+00 -1.51973982E+01  7.59869910E+00  7.59869910E+00
 -1.51973982E+01  7.59869910E+00  7.59869910E+00 -1.51973982E+01  7.59869910E+00
  7.59869910E+00 -1.51973982E+01  7.59869910E+00  7.59869910E+00 -1.51973982E+01
  7.59869910E+00  7.59869910E+00 -1.51973982E+01  7.59869910E+00  7.59869910E+00
 -1.51973982E+01  7.59869910E+00  7.59869910E+00 -1.51973982E+01  7.59869910E+00
  7.59869910E+00 -1.51973982E+01  7.59869910E+00  7.59869910E+00 -1.51973982E+01
  7.59869910E+00  7.59869910E+00 -1.51973982E+01  7.59869910E+00  7.59869910E+00
 -1.51973982E+01  7.59869910E+00  7.59869910E+00 -1.51973982E+01  7.59869910E+00
  7.59869910E+00 -1.51973982E+01  7.59869910E+00  7.59869910E+00 -1.51973982E+01
  7.59869910E+00  7.59869910E+00 -1.51973982E+01  7.59869910E+00  7.59869910E+00
 -1.51973982E+01  7.59869910E+00  7.59869910E+00 -1.51973982E+01  7.59869910E+00
  7.59869910E+00 -1.51973982E+01  7.59869910E+00  7.59869910E+00 -1.51973982E+01
  7.59869910E+00  7.59869910E+00 -1.51973982E+01  7.59869910E+00  7.59869910E+00
 -1.51973982E+01  7.59869910E+00  7.59869910E+00 -1.51973982E+01  7.59869910E+00
  7.59869910E+00 -1.51973982E+01  7.59869910E+00  7.59869910E+00 -1.51973982E+01
  7.59869910E+00  7.59869910E+00 -1.51973982E+01  7.59869910E+00  7.59869910E+00
 -1.51973982E+01  7.59869910E+00  7.59869910E+00 -1.51973982E+01  7.59869910E+00
  7.59869910E+00 -1.51973982E+01  7.59869910E+00  7.59869910E+00 -1.51973982E+01
  7.59869910E+00  7.59869910E+00 -1.51973982E+01  7.59869910E+00  7.59869910E+00
 -1.51973982E+01  7.59869910E+00  7.59869910E+00 -1.51973982E+01  7.59869910E+00
  7.59869910E+00 -1.51973982E+01  7.59869910E+00  7.59869910E+00 -1.51973982E+01
  7.59869910E+00  7.59869910E+00 -1.51973982E+01  7.59869910E+00  7.59869910E+00
 -1.51973982E+01  7.59869910E+00  7.59869910E+00 -1.51973982E+01  7.59869910E+00
  7.59869910E+00 -1.51973982E+01  7.59869910E+00  7.59869910E+00 -1.51973982E+01
  7.59869910E+00  7.59869910E+00 -1.51973982E+01  7.59869910E+00  7.59869910E+00
 -1.51973982E+01  7.59869910E+00  7.59869910E+00 -1.51973982E+01  7.59869910E+00
  7.59869910E+00 -1.51973982E+01  7.59869910E+00  7.59869910E+00 -1.51973982E+01
  7.59869910E+00  7.59869910E+00 -1.51973982E+01  7.59869910E+00  7.59869910E+00
 -1.51973982E+01  7.59869910E+00  7.59869910E+00 -1.51973982E+01  7.59869910E+00
  7.59869910E+00 -1.51973982E+01  7.59869910E+00  7.59869910E+00 -1.51973982E+01
  7.59869910E+00  7.59869910E+00 -1.51973982E+01  7.59869910E+00  7.59869910E+00
 -1.51973982E+01  7.59869910E+00  7.59869910E+00 -1.51973982E+01  7.59869910E+00
  7.59869910E+00 -1.51973982E+01  7.59869910E+00  7.59869910E+00 -1.51973982E+01
  7.59869910E+00  7.59869910E+00 -1.51973982E+01  7.59869910E+00  7.59869910E+00
 -1.51973982E+01  7.59869910E+00  7.59869910E+00 -1.51973982E+01  7.59869910E+00
  7.59869910E+00 -1.51973982E+01  7.59869910E+00  7.59869910E+00 -1.51973982E+01
  7.59869910E+00  7.59869910E+00 -1.51973982E+01  7.59869910E+00  7.59869910E+00
 -1.51973982E+01  7.59869910E+00  7.59869910E+00 -1.51973982E+01  7.59869910E+00
  7.59869910E+00 -1.51973982E+01  7.59869910E+00  7.59869910E+00 -1.51973982E+01
  7.59869910E+00  7.59869910E+00 -1.51973982E+01  7.59869910E+00  7.59869910E+00
 -1.51973982E+01  7.59869910E+00  7.59869910E+00 -1.51973982E+01  7.59869910E+00
  7.59869910E+00 -1.51973982E+01  7.59869910E+00  7.59869910E+00 -1.51973982E+01
  7.59869910E+00  7.59869910E+00 -1.51973982E+01  7.59869910E+00  7.59869910E+00
 -1.51973982E+01  7.59869910E+00  7.59869910E+00 -1.51973982E+01  7.59869910E+00
  7.59869910E+00 -1.51973982E+01  7.59869910E+00  7.59869910E+00 -1.51973982E+01
  7.59869910E+00  7.59869910E+00 -1.51973982E+01  7.59869910E+00  7.59869910E+00
 -1.51973982E+01  7.59869910E+00  7.59869910E+00 -1.51973982E+01  7.59869910E+00
  7.59869910E+00 -1.51973982E+01  7.59869910E+00  7.59869910E+00 -1.51973982E+01
  7.59869910E+00  7.59869910E+00 -1.51973982E+01  7.59869910E+00  7.59869910E+00
 -1.51973982E+01  7.59869910E+00  7.59869910E+00 -1.51973982E+01  7.59869910E+00
  7.59869910E+00 -1.51973982E+01  7.59869910E+00  7.59869910E+00 -1.51973982E+01
  7.59869910E+00  7.59869910E+00 -1.51973982E+01  7.59869910E+00  7.59869910E+00
 -1.51973982E+01  7.59869910E+00  7.59869910E+00 -1.51973982E+01  7.59869910E+00
  7.59869910E+00 -1.51973982E+01  7.59869910E+00  7.59869910E+00 -1.51973982E+01
  7.59869910E+00  7.59869910E+00 -1.51973982E+01  7.59869910E+00  7.59869910E+00
 -1.51973982E+01  7.59869910E+00  7.59869910E+00 -1.51973982E+01  7.59869910E+00
  7.59869910E+00 -1.51973982E+01  7.59869910E+00  7.59869910E+00 -1.51973982E+01
  7.59869910E+00  7.59869910E+00 -1.51973982E+01  7.59869910E+00  7.59869910E+00
 -1.51973982E+01  7.59869910E+00  7.59869910E+00 -1.51973982E+01  7.59869910E+00
  7.59869910E+00 -1.51973982E+01  7.59869910E+00  7.59869910E+00 -1.51973982E+01
  7.59869910E+00  7.59869910E+00 -1.51973982E+01  7.59869910E+00  7.59869910E+00
 -1.51973982E+01  7.59869910E+00  7.59869910E+00 -1.51973982E+01  7.59869910E+00
  7.59869910E+00 -1.51973982E+01  7.59869910E+00  7.59869910E+00 -1.51973982E+01
  7.59869910E+00  7.59869910E+00 -1.51973982E+01  7.59869910E+00  7.59869910E+00
 -1.51973982E+01  7.59869910E+00  7.59869910E+00 -1.51973982E+01  7.59869910E+00
  7.59869910E+00 -1.51973982E+01  7.59869910E+00  7.59869910E+00 -1.51973982E+01
  7.59869910E+00  7.59869910E+00 -1.51973982E+01  7.59869910E+00  7.59869910E+00
 -1.51973982E+01  7.59869910E+00  7.59869910E+00 -1.51973982E+01  7.59869910E+00
  7.59869910E+00 -1.51973982E+01  7.59869910E+00  7.59869910E+00 -1.51973982E+01
  7.59869910E+00  7.59869910E+00 -1.51973982E+01  7.59869910E+00  7.59869910E+00
 -1.51973982E+01  7.59869910E+00  7.59869910E+00 -1.51973982E+01  7.59869910E+00
  7.59869910E+00 -1.51973982E+01  7.59869910E+00  7.59869910E+00 -1.51973982E+01
  7.59869910E+00  7.59869910E+00 -1.51973982E+01  7.59869910E+00  7.59869910E+00
 -1.51973982E+01  7.59869910E+00  7.59869910E+00 -1.51973982E+01  7.59869910E+00
  7.59869910E+00 -1.51973982E+01  7.59869910E+00  7.59869910E+00 -1.51973982E+01
  7.59869910E+00  7.59869910E+00 -1.51973982E+01  7.59869910E+00  7.59869910E+00
 -1.51973982E+01  7.59869910E+00  7.59869910E+00 -1.51973982E+01  7.59869910E+00
  7.59869910E+00 -1.51973982E+01  7.59869910E+00  7.59869910E+00 -1.51973982E+01
  7.59869910E+00  7.59869910E+00 -1.51973982E+01  7.59869910E+00  7.59869910E+00
 -1.51973982E+01  7.59869910E+00  7.59869910E+00 -1.51973982E+01  7.59869910E+00
  7.59869910E+00 -1.51973982E+01  7.59869910E+00  7.59869910E+00 -1.51973982E+01
  7.59869910E+00  7.59869910E+00 -1.51973982E+01  7.59869910E+00  7.59869910E+00
 -1.51973982E+01  7.59869910E+00  7.59869910E+00 -1.51973982E+01  7.59869910E+00
  7.59869910E+00 -1.51973982E+01  7.59869910E+00  7.59869910E+00 -1.51973982E+01
  7.59869910E+00  7.59869910E+00 -1.51973982E+01  7.59869910E+00  7.59869910E+00
 -1.51973982E+01  7.59869910E+00  7.59869910E+00 -1.51973982E+01  7.59869910E+00
  7.59869910E+00 -1.51973982E+01  7.59869910E+00  7.59869910E+00 -1.51973982E+01
  7.59869910E+00  7.59869910E+00 -1.51973982E+01  7.59869910E+00  7.59869910E+00
 -1.51973982E+01  7.59869910E+00  7.59869910E+00 -1.51973982E+01  7.59869910E+00
  7.59869910E+00 -1.51973982E+01  7.59869910E+00  7.59869910E+00 -1.51973982E+01
  7.59869910E+00  7.59869910E+00 -1.51973982E+01  7.59869910E+00  7.59869910E+00
 -1.51973982E+01  7.59869910E+00  7.59869910E+00 -1.51973982E+01  7.59869910E+00
  7.59869910E+00 -1.51973982E+01  7.59869910E+00  7.59869910E+00 -1.51973982E+01
  7.59869910E+00  7.59869910E+00 -1.51973982E+01  7.59869910E+00  7.59869910E+00
 -1.51973982E+01  7.59869910E+00  7.59869910E+00 -1.51973982E+01  7.59869910E+00
  7.59869910E+00 -1.51973982E+01  7.59869910E+00  7.59869910E+00 -1.51973982E+01
  7.59869910E+00  7.59869910E+00 -1.51973982E+01  7.59869910E+00  7.59869910E+00
 -1.51973982E+01  7.59869910E+00  7.59869910E+00 -1.51973982E+01  7.59869910E+00
  7.59869910E+00 -1.51973982E+01  7.59869910E+00  7.59869910E+00 -1.51973982E+01
  7.59869910E+00  7.59869910E+00 -1.51973982E+01  7.59869910E+00  7.59869910E+00
 -1.51973982E+01  7.59869910E+00  7.59869910E+00 -1.51973982E+01  7.59869910E+00
  7.59869910E+00 -1.51973982E+01  7.59869910E+00  7.59869910E+00 -1.51973982E+01
  7.59869910E+00  7.59869910E+00 -1.51973982E+01  7.59869910E+00  7.59869910E+00
 -1.51973982E+01  7.59869910E+00  7.59869910E+00 -1.51973982E+01  7.59869910E+00
  7.59869910E+00 -1.51973982E+01  7.59869910E+00  7.59869910E+00 -1.51973982E+01
  7.59869910E+00  7.59869910E+00 -1.51973982E+01  7.59869910E+00  7.59869910E+00
 -1.51973982E+01  7.59869910E+00  7.59869910E+00 -1.51973982E+01  7.59869910E+00
  7.59869910E+00 -1.51973982E+01  7.59869910E+00  7.59869910E+00 -1.51973982E+01
  7.59869910E+00  7.59869910E+00 -1.51973982E+01  7.59869910E+00  7.59869910E+00
 -1.51973982E+01  7.59869910E+00  7.59869910E+00 -1.51973982E+01  7.59869910E+00
  7.59869910E+00 -1.51973982E+01  7.59869910E+00  7.59869910E+00 -1.51973982E+01
  7.59869910E+00  7.59869910E+00 -1.51973982E+01  7.59869910E+00  7.59869910E+00
 -1.51973982E+01  7.59869910E+00  7.59869910E+00 -1.51973982E+01  7.59869910E+00
  7.59869910E+00 -1.51973982E+01  7.59869910E+00  7.59869910E+00 -1.51973982E+01
  7.59869910E+00  7.59869910E+00 -1.51973982E+01  7.59869910E+00  7.59869910E+00
 -1.51973982E+01  7.59869910E+00  7.59869910E+00 -1.51973982E+01  7.59869910E+00
  7.59869910E+00 -1.51973982E+01  7.59869910E+00  7.59869910E+00 -1.51973982E+01
  7.59869910E+00  7.59869910E+00 -1.51973982E+01  7.59869910E+00  7.59869910E+00
 -1.51973982E+01  7.59869910E+00  7.59869910E+00 -1.51973982E+01  7.59869910E+00
  7.59869910E+00 -1.51973982E+01  7.59869910E+00  7.59869910E+00 -1.51973982E+01
  7.59869910E+00  7.59869910E+00 -1.51973982E+01  7.59869910E+00  7.59869910E+00
 -1.51973982E+01  7.59869910E+00  7.59869910E+00 -1.51973982E+01  7.59869910E+00
  7.59869910E+00 -1.51973982E+01  7.59869910E+00  7.59869910E+00 -1.51973982E+01
  7.59869910E+00  7.59869910E+00 -1.51973982E+01  7.59869910E+00  7.59869910E+00
 -1.51973982E+01  7.59869910E+00  7.59869910E+00 -1.51973982E+01  7.59869910E+00
  7.59869910E+00 -1.51973982E+01  7.59869910E+00  7.59869910E+00 -1.51973982E+01
  7.59869910E+00  7.59869910E+00 -1.51973982E+01  7.59869910E+00  7.59869910E+00
 -1.51973982E+01  7.59869910E+00  7.59869910E+00 -1.51973982E+01  7.59869910E+00
  7.59869910E+00 -1.51973982E+01  7.59869910E+00  7.59869910E+00 -1.51973982E+01
  7.59869910E+00  7.59869910E+00 -1.51973982E+01  7.59869910E+00  7.59869910E+00
 -1.51973982E+01  7.59869910E+00  7.59869910E+00 -1.51973982E+01  7.59869910E+00
  7.59869910E+00 -1.51973982E+01  7.59869910E+00  7.59869910E+00 -1.51973982E+01
  7.59869910E+00  7.59869910E+00 -1.51973982E+01  7.59869910E+00  7.59869910E+00
 -1.51973982E+01  7.59869910E+00  7.59869910E+00 -1.51973982E+01  7.59869910E+00
  7.59869910E+00 -1.51973982E+01  7.59869910E+00  7.59869910E+00 -1.51973982E+01
  7.59869910E+00  7.59869910E+00 -1.51973982E+01  7.59869910E+00  7.59869910E+00
 -1.51973982E+01  7.59869910E+00  7.59869910E+00 -1.51973982E+01  7.59869910E+00
  7.59869910E+00 -1.51973982E+01  7.59869910E+00  7.59869910E+00 -1.51973982E+01
  7.59869910E+00  7.59869910E+00 -1.51973982E+01  7.59869910E+00  7.59869910E+00
 -1.51973982E+01  7.59869910E+00  7.59869910E+00 -1.51973982E+01  7.59869910E+00
  7.59869910E+00 -1.51973982E+01  7.59869910E+00  7.59869910E+00 -1.51973982E+01
  7.59869910E+00  7.59869910E+00 -1.51973982E+01  7.59869910E+00  7.59869910E+00
 -1.51973982E+01  7.59869910E+00  7.59869910E+00 -1.51973982E+01  7.59869910E+00
  7.59869910E+00 -1.51973982E+01  7.59869910E+00  7.59869910E+00 -1.51973982E+01
  7.59869910E+00  7.59869910E+00 -1.51973982E+01  7.59869910E+00  7.59869910E+00
 -1.51973982E+01  7.59869910E+00  7.59869910E+00 -1.51973982E+01  7.59869910E+00
  7.59869910E+00 -1.51973982E+01  7.59869910E+00  7.59869910E+00 -1.51973982E+01
  7.59869910E+00  7.59869910E+00 -1.51973982E+01  7.59869910E+00  7.59869910E+00
 -1.51973982E+01  7.59869910E+00  7.59869910E+00 -1.51973982E+01  7.59869910E+00
  7.59869910E+00 -1.51973982E+01  7.59869910E+00  7.59869910E+00 -1.51973982E+01
  7.59869910E+00  7.59869910E+00 -1.51973982E+01  7.59869910E+00  7.59869910E+00
 -1.51973982E+01  7.59869910E+00  7.59869910E+00 -1.51973982E+01  7.59869910E+00
  7.59869910E+00 -1.51973982E+01  7.59869910E+00  7.59869910E+00 -1.51973982E+01
  7.59869910E+00  7.59869910E+00 -1.51973982E+01  7.59869910E+00  7.59869910E+00
 -1.51973982E+01  7.59869910E+00  7.59869910E+00 -1.51973982E+01  7.59869910E+00
  7.59869910E+00 -1.51973982E+01  7.59869910E+00  7.59869910E+00 -1.51973982E+01
  7.59869910E+00  7.59869910E+00 -1.51973982E+01  7.59869910E+00  7.59869910E+00
 -1.51973982E+01  7.59869910E+00  7.59869910E+00 -1.51973982E+01  7.59869910E+00
  7.59869910E+00 -1.51973982E+01  7.59869910E+00  7.59869910E+00 -1.51973982E+01
  7.59869910E+00  7.59869910E+00 -1.51973982E+01  7.59869910E+00  7.59869910E+00
 -1.51973982E+01  7.59869910E+00  7.59869910E+00 -1.51973982E+01  7.59869910E+00
  7.59869910E+00 -1.51973982E+01  7.59869910E+00  7.59869910E+00 -1.51973982E+01
  7.59869910E+00  7.59869910E+00 -1.51973982E+01  7.59869910E+00  7.59869910E+00
 -1.51973982E+01  7.59869910E+00  7.59869910E+00 -1.51973982E+01  7.59869910E+00
  7.59869910E+00 -1.51973982E+01  7.59869910E+00  7.59869910E+00 -1.51973982E+01
  7.59869910E+00  7.59869910E+00 -1.51973982E+01  7.59869910E+00  7.59869910E+00
 -1.51973982E+01  7.59869910E+00  7.59869910E+00 -1.51973982E+01  7.59869910E+00
  7.59869910E+00 -1.51973982E+01  7.59869910E+00  7.59869910E+00 -1.51973982E+01
  7.59869910E+00  7.59869910E+00 -1.51973982E+01  7.59869910E+00  7.59869910E+00
 -1.51973982E+01  7.59869910E+00  7.59869910E+00 -1.51973982E+01  7.59869910E+00
  7.59869910E+00 -1.51973982E+01  7.59869910E+00  7.59869910E+00 -1.51973982E+01
  7.59869910E+00  7.59869910E+00 -1.51973982E+01  7.59869910E+00  7.59869910E+00
 -1.51973982E+01  7.59869910E+00  7.59869910E+00 -1.51973982E+01  7.59869910E+00
  7.59869910E+00 -1.51973982E+01  7.59869910E+00  7.59869910E+00 -1.51973982E+01
  7.59869910E+00  7.59869910E+00 -1.51973982E+01  7.59869910E+00  7.59869910E+00
 -1.51973982E+01  7.59869910E+00  7.59869910E+00 -1.51973982E+01  7.59869910E+00
  7.59869910E+00 -1.51973982E+01  7.59869910E+00  7.59869910E+00 -1.51973982E+01
  7.59869910E+00  7.59869910E+00 -1.51973982E+01  7.59869910E+00  7.59869910E+00
 -1.51973982E+01  7.59869910E+00  7.59869910E+00 -1.51973982E+01  7.59869910E+00
  7.59869910E+00 -1.51973982E+01  7.59869910E+00  7.59869910E+00 -1.51973982E+01
  7.59869910E+00  7.59869910E+00 -1.51973982E+01  7.59869910E+00  7.59869910E+00
 -1.51973982E+01  7.59869910E+00  7.59869910E+00 -1.51973982E+01  7.59869910E+00
  7.59869910E+00 -1.51973982E+01  7.59869910E+00  7.59869910E+00 -1.51973982E+01
  7.59869910E+00  7.59869910E+00 -1.51973982E+01  7.59869910E+00  7.59869910E+00
 -1.51973982E+01  7.59869910E+00  7.59869910E+00 -1.51973982E+01  7.59869910E+00
  7.59869910E+00 -1.51973982E+01  7.59869910E+00  7.59869910E+00 -1.51973982E+01
  7.59869910E+00  7.59869910E+00 -1.51973982E+01  7.59869910E+00  7.59869910E+00
 -1.51973982E+01  7.59869910E+00  7.59869910E+00 -1.51973982E+01  7.59869910E+00
  7.59869910E+00 -1.51973982E+01  7.59869910E+00  7.59869910E+00 -1.51973982E+01
  7.59869910E+00  7.59869910E+00 -1.51973982E+01  7.59869910E+00  7.59869910E+00
 -1.51973982E+01  7.59869910E+00  7.59869910E+00 -1.51973982E+01  7.59869910E+00
  7.59869910E+00 -1.51973982E+01  7.59869910E+00  7.59869910E+00 -1.51973982E+01
  7.59869910E+00  7.59869910E+00 -1.51973982E+01  7.59869910E+00  7.59869910E+00
 -1.51973982E+01  7.59869910E+00  7.59869910E+00 -1.51973982E+01  7.59869910E+00
  7.59869910E+00 -1.51973982E+01  7.59869910E+00  7.59869910E+00 -1.51973982E+01
  7.59869910E+00  7.59869910E+00 -1.51973982E+01  7.59869910E+00  7.59869910E+00
 -1.51973982E+01  7.59869910E+00  7.59869910E+00 -1.51973982E+01  7.59869910E+00
  7.59869910E+00 -1.51973982E+01  7.59869910E+00  7.59869910E+00 -1.51973982E+01
  7.59869910E+00  7.59869910E+00 -1.51973982E+01  7.59869910E+00  7.59869910E+00
 -1.51973982E+01  7.59869910E+00  7.59869910E+00 -1.51973982E+01  7.59869910E+00
  7.59869910E+00 -1.51973982E+01  7.59869910E+00  7.59869910E+00 -1.51973982E+01
  7.59869910E+00  7.59869910E+00 -1.51973982E+01  7.59869910E+00  7.59869910E+00
 -1.51973982E+01  7.59869910E+00  7.59869910E+00 -1.51973982E+01  7.59869910E+00
  7.59869910E+00 -1.51973982E+01  7.59869910E+00  7.59869910E+00 -1.51973982E+01
  7.59869910E+00  7.59869910E+00 -1.51973982E+01  7.59869910E+00  7.59869910E+00
 -1.51973982E+01  7.59869910E+00  7.59869910E+00 -1.51973982E+01  7.59869910E+00
  7.59869910E+00 -1.51973982E+01  7.59869910E+00  7.59869910E+00 -1.51973982E+01
  7.59869910E+00  7.59869910E+00 -1.51973982E+01  7.59869910E+00  7.59869910E+00
 -1.51973982E+01  7.59869910E+00  7.59869910E+00 -1.51973982E+01  7.59869910E+00
  7.59869910E+00 -1.51973982E+01  7.59869910E+00  7.59869910E+00 -1.51973982E+01
  7.59869910E+00  7.59869910E+00 -1.51973982E+01  7.59869910E+00  7.59869910E+00
 -1.51973982E+01  7.59869910E+00  7.59869910E+00 -1.51973982E+01  7.59869910E+00
  7.59869910E+00 -1.51973982E+01  7.59869910E+00  7.59869910E+00 -1.51973982E+01
  7.59869910E+00  7.59869910E+00 -1.51973982E+01  7.59869910E+00  7.59869910E+00
 -1.51973982E+01  7.59869910E+00  7.59869910E+00 -1.51973982E+01  7.59869910E+00
  7.59869910E+00 -1.51973982E+01  7.59869910E+00  7.59869910E+00 -1.51973982E+01
  7.59869910E+00  7.59869910E+00 -1.51973982E+01  7.59869910E+00  7.59869910E+00
 -1.51973982E+01  7.59869910E+00  7.59869910E+00 -1.51973982E+01  7.59869910E+00
  7.59869910E+00 -1.51973982E+01  7.59869910E+00  7.59869910E+00 -1.51973982E+01
  7.59869910E+00  7.59869910E+00 -1.51973982E+01  7.59869910E+00  7.59869910E+00
 -1.51973982E+01  7.59869910E+00  7.59869910E+00 -1.51973982E+01  7.59869910E+00
  7.59869910E+00 -1.51973982E+01  7.59869910E+00  7.59869910E+00 -1.51973982E+01
  7.59869910E+00  7.59869910E+00 -1.51973982E+01  7.59869910E+00  7.59869910E+00
 -1.51973982E+01  7.59869910E+00  7.59869910E+00 -1.51973982E+01  7.59869910E+00
  7.59869910E+00 -1.51973982E+01  7.59869910E+00  7.59869910E+00 -1.51973982E+01
  7.59869910E+00  7.59869910E+00 -1.51973982E+01  7.59869910E+00  7.59869910E+00
 -1.51973982E+01  7.59869910E+00  7.59869910E+00 -1.51973982E+01  7.59869910E+00
  7.59869910E+00 -1.51973982E+01  7.59869910E+00  7.59869910E+00 -1.51973982E+01
  7.59869910E+00  7.59869910E+00 -1.51973982E+01  7.59869910E+00  7.59869910E+00
 -1.51973982E+01  7.59869910E+00  7.59869910E+00 -1.51973982E+01  7.59869910E+00
  7.59869910E+00 -1.51973982E+01  7.59869910E+00  7.59869910E+00 -1.51973982E+01
  7.59869910E+00  7.59869910E+00 -1.51973982E+01  7.59869910E+00  7.59869910E+00
 -1.51973982E+01  7.59869910E+00  7.59869910E+00 -1.51973982E+01  7.59869910E+00
  7.59869910E+00 -1.51973982E+01  7.59869910E+00  7.59869910E+00 -1.51973982E+01
  7.59869910E+00  7.59869910E+00 -1.51973982E+01  7.59869910E+00  7.59869910E+00
 -1.51973982E+01  7.59869910E+00  7.59869910E+00 -1.51973982E+01  7.59869910E+00
  7.59869910E+00 -1.51973982E+01  7.59869910E+00  7.59869910E+00 -1.51973982E+01
  7.59869910E+00  7.59869910E+00 -1.51973982E+01  7.59869910E+00  7.59869910E+00
 -1.51973982E+01  7.59869910E+00  7.59869910E+00 -1.51973982E+01  7.59869910E+00
  7.59869910E+00 -1.51973982E+01  7.59869910E+00  7.59869910E+00 -1.51973982E+01
  7.59869910E+00  7.59869910E+00 -1.51973982E+01  7.59869910E+00  7.59869910E+00
 -1.51973982E+01  7.59869910E+00  7.59869910E+00 -1.51973982E+01  7.59869910E+00
  7.59869910E+00 -1.51973982E+01  7.59869910E+00  7.59869910E+00 -1.51973982E+01
  7.59869910E+00  7.59869910E+00 -1.51973982E+01  7.59869910E+00  7.59869910E+00
 -1.51973982E+01  7.59869910E+00  7.59869910E+00 -1.51973982E+01  7.59869910E+00
  7.59869910E+00 -1.51973982E+01  7.59869910E+00  7.59869910E+00 -1.51973982E+01
  7.59869910E+00  7.59869910E+00 -1.51973982E+01  7.59869910E+00  7.59869910E+00
 -1.51973982E+01  7.59869910E+00  7.59869910E+00 -1.51973982E+01  7.59869910E+00
  7.59869910E+00 -1.51973982E+01  7.59869910E+00  7.59869910E+00 -1.51973982E+01
  7.59869910E+00  7.59869910E+00 -1.51973982E+01  7.59869910E+00  7.59869910E+00
 -1.51973982E+01  7.59869910E+00  7.59869910E+00 -1.51973982E+01  7.59869910E+00
  7.59869910E+00 -1.51973982E+01  7.59869910E+00  7.59869910E+00 -1.51973982E+01
  7.59869910E+00  7.59869910E+00 -1.51973982E+01  7.59869910E+00  7.59869910E+00
 -1.51973982E+01  7.59869910E+00  7.59869910E+00 -1.51973982E+01  7.59869910E+00
  7.59869910E+00 -1.51973982E+01  7.59869910E+00  7.59869910E+00 -1.51973982E+01
  7.59869910E+00  7.59869910E+00 -1.51973982E+01  7.59869910E+00  7.59869910E+00
 -1.51973982E+01  7.59869910E+00  7.59869910E+00 -1.51973982E+01  7.59869910E+00
  7.59869910E+00 -1.51973982E+01  7.59869910E+00  7.59869910E+00 -1.51973982E+01
  7.59869910E+00  7.59869910E+00 -1.51973982E+01  7.59869910E+00  7.59869910E+00
 -1.51973982E+01  7.59869910E+00  7.59869910E+00 -1.51973982E+01  7.59869910E+00
  7.59869910E+00 -1.51973982E+01  7.59869910E+00  7.59869910E+00 -1.51973982E+01
  7.59869910E+00  7.59869910E+00 -1.51973982E+01  7.59869910E+00  7.59869910E+00
 -1.51973982E+01  7.59869910E+00  7.59869910E+00 -1.51973982E+01  7.59869910E+00
  7.59869910E+00 -1.51973982E+01  7.59869910E+00  7.59869910E+00 -1.51973982E+01
  7.59869910E+00  7.59869910E+00 -1.51973982E+01  7.59869910E+00  7.59869910E+00
 -1.51973982E+01  7.59869910E+00  7.59869910E+00 -1.51973982E+01  7.59869910E+00
  7.59869910E+00 -1.51973982E+01  7.59869910E+00  7.59869910E+00 -1.51973982E+01
  7.59869910E+00  7.59869910E+00 -1.51973982E+01  7.59869910E+00  7.59869910E+00
 -1.51973982E+01  7.59869910E+00  7.59869910E+00 -1.51973982E+01  7.59869910E+00
  7.59869910E+00 -1.51973982E+01  7.59869910E+00  7.59869910E+00 -1.51973982E+01
  7.59869910E+00  7.59869910E+00 -1.51973982E+01  7.59869910E+00  7.59869910E+00
 -1.51973982E+01  7.59869910E+00  7.59869910E+00 -1.51973982E+01  7.59869910E+00
  7.59869910E+00 -1.51973982E+01  7.59869910E+00  7.59869910E+00 -1.51973982E+01
  7.59869910E+00  7.59869910E+00 -1.51973982E+01  7.59869910E+00  7.59869910E+00
 -1.51973982E+01  7.59869910E+00  7.59869910E+00 -1.51973982E+01  7.59869910E+00
  7.59869910E+00 -1.51973982E+01  7.59869910E+00  7.59869910E+00 -1.51973982E+01
  7.59869910E+00  7.59869910E+00 -1.51973982E+01  7.59869910E+00  7.59869910E+00
 -1.51973982E+01  7.59869910E+00  7.59869910E+00 -1.51973982E+01  7.59869910E+00
  7.59869910E+00 -1.51973982E+01  7.59869910E+00  7.59869910E+00 -1.51973982E+01
  7.59869910E+00  7.59869910E+00 -1.51973982E+01  7.59869910E+00  7.59869910E+00
 -1.51973982E+01  7.59869910E+00  7.59869910E+00 -1.51973982E+01  7.59869910E+00
  7.59869910E+00 -1.51973982E+01  7.59869910E+00  7.59869910E+00 -1.51973982E+01
  7.59869910E+00  7.59869910E+00 -1.51973982E+01  7.59869910E+00  7.59869910E+00
 -1.51973982E+01  7.59869910E+00  7.59869910E+00 -1.51973982E+01  7.59869910E+00
  7.59869910E+00 -1.51973982E+01  7.59869910E+00  7.59869910E+00 -1.51973982E+01
  7.59869910E+00  7.59869910E+00 -1.51973982E+01  7.59869910E+00  7.59869910E+00
 -1.51973982E+01  7.59869910E+00  7.59869910E+00 -1.51973982E+01  7.59869910E+00
  7.59869910E+00 -1.51973982E+01  7.59869910E+00  7.59869910E+00 -1.51973982E+01
  7.59869910E+00  7.59869910E+00 -1.51973982E+01  7.59869910E+00  7.59869910E+00
 -1.51973982E+01  7.59869910E+00  7.59869910E+00 -1.51973982E+01  7.59869910E+00
  7.59869910E+00 -1.51973982E+01  7.59869910E+00  7.59869910E+00 -1.51973982E+01
  7.59869910E+00  7.59869910E+00 -1.51973982E+01  7.59869910E+00  7.59869910E+00
 -1.51973982E+01  7.59869910E+00  7.59869910E+00 -1.51973982E+01  7.59869910E+00
  7.59869910E+00 -1.51973982E+01  7.59869910E+00  7.59869910E+00 -1.51973982E+01
  7.59869910E+00  7.59869910E+00 -1.51973982E+01  7.59869910E+00  7.59869910E+00
 -1.51973982E+01  7.59869910E+00  7.59869910E+00 -1.51973982E+01  7.59869910E+00
  7.59869910E+00 -1.51973982E+01  7.59869910E+00  7.59869910E+00 -1.51973982E+01
  7.59869910E+00  7.59869910E+00 -1.51973982E+01  7.59869910E+00  7.59869910E+00
 -1.51973982E+01  7.59869910E+00  7.59869910E+00 -1.51973982E+01  7.59869910E+00
  7.59869910E+00 -1.51973982E+01  7.59869910E+00  7.59869910E+00 -1.51973982E+01
  7.59869910E+00  7.59869910E+00 -1.51973982E+01  7.59869910E+00  7.59869910E+00
 -1.51973982E+01  7.59869910E+00  7.59869910E+00 -1.51973982E+01  7.59869910E+00
  7.59869910E+00 -1.51973982E+01  7.59869910E+00  7.59869910E+00 -1.51973982E+01
  7.59869910E+00  7.59869910E+00 -1.51973982E+01  7.59869910E+00  7.59869910E+00
 -1.51973982E+01  7.59869910E+00  7.59869910E+00 -1.51973982E+01  7.59869910E+00
  7.59869910E+00 -1.51973982E+01  7.59869910E+00  7.59869910E+00 -1.51973982E+01
  7.59869910E+00  7.59869910E+00 -1.51973982E+01  7.59869910E+00  7.59869910E+00
 -1.51973982E+01  7.59869910E+00  7.59869910E+00 -1.51973982E+01  7.59869910E+00
  7.59869910E+00 -1.51973982E+01  7.59869910E+00  7.59869910E+00 -1.51973982E+01
  7.59869910E+00  7.59869910E+00 -1.51973982E+01  7.59869910E+00  7.59869910E+00
 -1.51973982E+01  7.59869910E+00  7.59869910E+00 -1.51973982E+01  7.59869910E+00
  7.59869910E+00 -1.51973982E+01  7.59869910E+00  7.59869910E+00 -1.51973982E+01
  7.59869910E+00  7.59869910E+00 -1.51973982E+01  7.59869910E+00  7.59869910E+00
 -1.51973982E+01  7.59869910E+00  7.59869910E+00 -1.51973982E+01  7.59869910E+00
  7.59869910E+00 -1.51973982E+01  7.59869910E+00  7.59869910E+00 -1.51973982E+01
  7.59869910E+00  7.59869910E+00 -1.51973982E+01  7.59869910E+00  7.59869910E+00
 -1.51973982E+01  7.59869910E+00  7.59869910E+00 -1.51973982E+01  7.59869910E+00
  7.59869910E+00 -1.51973982E+01  7.59869910E+00  7.59869910E+00 -1.51973982E+01
  7.59869910E+00  7.59869910E+00 -1.51973982E+01  7.59869910E+00  7.59869910E+00
 -1.51973982E+01  7.59869910E+00  7.59869910E+00 -1.51973982E+01  7.59869910E+00
  7.59869910E+00 -1.51973982E+01  7.59869910E+00  7.59869910E+00 -1.51973982E+01
  7.59869910E+00  7.59869910E+00 -1.51973982E+01  7.59869910E+00  7.59869910E+00
 -1.51973982E+01  7.59869910E+00  7.59869910E+00 -1.51973982E+01  7.59869910E+00
  7.59869910E+00 -1.51973982E+01  7.59869910E+00  7.59869910E+00 -1.51973982E+01
  7.59869910E+00  7.59869910E+00 -1.51973982E+01  7.59869910E+00  7.59869910E+00
 -1.51973982E+01  7.59869910E+00  7.59869910E+00 -1.51973982E+01  7.59869910E+00
  7.59869910E+00 -1.51973982E+01  7.59869910E+00  7.59869910E+00 -1.51973982E+01
  7.59869910E+00  7.59869910E+00 -1.51973982E+01  7.59869910E+00  7.59869910E+00
 -1.51973982E+01  7.59869910E+00  7.59869910E+00 -1.51973982E+01  7.59869910E+00
  7.59869910E+00 -1.51973982E+01  7.59869910E+00  7.59869910E+00 -1.51973982E+01
  7.59869910E+00  7.59869910E+00 -1.51973982E+01  7.59869910E+00  7.59869910E+00
 -1.51973982E+01  7.59869910E+00  7.59869910E+00 -1.51973982E+01  7.59869910E+00
  7.59869910E+00 -1.51973982E+01  7.59869910E+00  7.59869910E+00 -1.51973982E+01
  7.59869910E+00  7.59869910E+00 -1.51973982E+01  7.59869910E+00  7.59869910E+00
 -1.51973982E+01  7.59869910E+00  7.59869910E+00 -1.51973982E+01  7.59869910E+00
  7.59869910E+00 -1.51973982E+01  7.59869910E+00  7.59869910E+00 -1.51973982E+01
  7.59869910E+00  7.59869910E+00 -1.51973982E+01  7.59869910E+00  7.59869910E+00
 -1.51973982E+01  7.59869910E+00  7.59869910E+00 -1.51973982E+01  7.59869910E+00
  7.59869910E+00 -1.51973982E+01  7.59869910E+00  7.59869910E+00 -1.51973982E+01
  7.59869910E+00  7.59869910E+00 -1.51973982E+01  7.59869910E+00  7.59869910E+00
 -1.51973982E+01  7.59869910E+00  7.59869910E+00 -1.51973982E+01  7.59869910E+00
  7.59869910E+00 -1.51973982E+01  7.59869910E+00  7.59869910E+00 -1.51973982E+01
  7.59869910E+00  7.59869910E+00 -1.51973982E+01  7.59869910E+00  7.59869910E+00
 -1.51973982E+01  7.59869910E+00  7.59869910E+00 -1.51973982E+01  7.59869910E+00
  7.59869910E+00 -1.51973982E+01  7.59869910E+00  7.59869910E+00 -1.51973982E+01
  7.59869910E+00  7.59869910E+00 -1.51973982E+01  7.59869910E+00  7.59869910E+00
 -1.51973982E+01  7.59869910E+00  7.59869910E+00 -1.51973982E+01  7.59869910E+00
  7.59869910E+00 -1.51973982E+01  7.59869910E+00  7.59869910E+00 -1.51973982E+01
  7.59869910E+00  7.59869910E+00 -1.51973982E+01  7.59869910E+00  7.59869910E+00
 -1.51973982E+01  7.59869910E+00  7.59869910E+00 -1.51973982E+01  7.59869910E+00
  7.59869910E+00 -1.51973982E+01  7.59869910E+00  7.59869910E+00 -1.51973982E+01
  7.59869910E+00  7.59869910E+00 -1.51973982E+01  7.59869910E+00  7.59869910E+00
 -1.51973982E+01  7.59869910E+00  7.59869910E+00 -1.51973982E+01  7.59869910E+00
  7.59869910E+00 -1.51973982E+01  7.59869910E+00  7.59869910E+00 -1.51973982E+01
  7.59869910E+00  7.59869910E+00 -1.51973982E+01  7.59869910E+00  7.59869910E+00
 -1.51973982E+01  7.59869910E+00  7.59869910E+00 -1.51973982E+01  7.59869910E+00
  7.59869910E+00 -1.51973982E+01  7.59869910E+00  7.59869910E+00 -1.51973982E+01
  7.59869910E+00  7.59869910E+00 -1.51973982E+01  7.59869910E+00  7.59869910E+00
 -1.51973982E+01  7.59869910E+00  7.59869910E+00 -1.51973982E+01  7.59869910E+00
  7.59869910E+00 -1.51973982E+01  7.59869910E+00  7.59869910E+00 -1.51973982E+01
  7.59869910E+00  7.59869910E+00 -1.51973982E+01  7.59869910E+00  7.59869910E+00
 -1.51973982E+01  7.59869910E+00  7.59869910E+00 -1.51973982E+01  7.59869910E+00
  7.59869910E+00 -1.51973982E+01  7.59869910E+00  7.59869910E+00 -1.51973982E+01
  7.59869910E+00  7.59869910E+00 -1.51973982E+01  7.59869910E+00  7.59869910E+00
 -1.51973982E+01  7.59869910E+00  7.59869910E+00 -1.51973982E+01  7.59869910E+00
  7.59869910E+00 -1.51973982E+01  7.59869910E+00  7.59869910E+00 -1.51973982E+01
  7.59869910E+00  7.59869910E+00 -1.51973982E+01  7.59869910E+00  7.59869910E+00
 -1.51973982E+01  7.59869910E+00  7.59869910E+00 -1.51973982E+01  7.59869910E+00
  7.59869910E+00 -1.51973982E+01  7.59869910E+00  7.59869910E+00 -1.51973982E+01
  7.59869910E+00  7.59869910E+00 -1.51973982E+01  7.59869910E+00  7.59869910E+00
 -1.51973982E+01  7.59869910E+00  7.59869910E+00 -1.51973982E+01  7.59869910E+00
  7.59869910E+00 -1.51973982E+01  7.59869910E+00  7.59869910E+00 -1.51973982E+01
  7.59869910E+00  7.59869910E+00 -1.51973982E+01  7.59869910E+00  7.59869910E+00
 -1.51973982E+01  7.59869910E+00  7.59869910E+00 -1.51973982E+01  7.59869910E+00
  7.59869910E+00 -1.51973982E+01  7.59869910E+00  7.59869910E+00 -1.51973982E+01
  7.59869910E+00  7.59869910E+00 -1.51973982E+01  7.59869910E+00  7.59869910E+00
 -1.51973982E+01  7.59869910E+00  7.59869910E+00 -1.51973982E+01  7.59869910E+00
  7.59869910E+00 -1.51973982E+01  7.59869910E+00  7.59869910E+00 -1.51973982E+01
  7.59869910E+00  7.59869910E+00 -1.51973982E+01  7.59869910E+00  7.59869910E+00
 -1.51973982E+01  7.59869910E+00  7.59869910E+00 -1.51973982E+01  7.59869910E+00
  7.59869910E+00 -1.51973982E+01  7.59869910E+00  7.59869910E+00 -1.51973982E+01
  7.59869910E+00  7.59869910E+00 -1.51973982E+01  7.59869910E+00  7.59869910E+00
 -1.51973982E+01  7.59869910E+00  7.59869910E+00 -1.51973982E+01  7.59869910E+00
  7.59869910E+00 -1.51973982E+01  7.59869910E+00  7.59869910E+00 -1.51973982E+01
  7.59869910E+00  7.59869910E+00 -1.51973982E+01  7.59869910E+00  7.59869910E+00
 -1.51973982E+01  7.59869910E+00  7.59869910E+00 -1.51973982E+01  7.59869910E+00
  7.59869910E+00 -1.51973982E+01  7.59869910E+00  7.59869910E+00 -1.51973982E+01
  7.59869910E+00  7.59869910E+00 -1.51973982E+01  7.59869910E+00  7.59869910E+00
 -1.51973982E+01  7.59869910E+00  7.59869910E+00 -1.51973982E+01  7.59869910E+00
  7.59869910E+00 -1.51973982E+01  7.59869910E+00  7.59869910E+00 -1.51973982E+01
  7.59869910E+00  7.59869910E+00 -1.51973982E+01  7.59869910E+00  7.59869910E+00
 -1.51973982E+01  7.59869910E+00  7.59869910E+00 -1.51973982E+01  7.59869910E+00
  7.59869910E+00 -1.51973982E+01  7.59869910E+00  7.59869910E+00 -1.51973982E+01
  7.59869910E+00  7.59869910E+00 -1.51973982E+01  7.59869910E+00  7.59869910E+00
 -1.51973982E+01  7.59869910E+00  7.59869910E+00 -1.51973982E+01  7.59869910E+00
  7.59869910E+00 -1.51973982E+01  7.59869910E+00  7.59869910E+00 -1.51973982E+01
  7.59869910E+00  7.59869910E+00 -1.51973982E+01  7.59869910E+00  7.59869910E+00
 -1.51973982E+01  7.59869910E+00  7.59869910E+00 -1.51973982E+01  7.59869910E+00
  7.59869910E+00 -1.51973982E+01  7.59869910E+00  7.59869910E+00 -1.51973982E+01
  7.59869910E+00  7.59869910E+00 -1.51973982E+01  7.59869910E+00  7.59869910E+00
 -1.51973982E+01  7.59869910E+00  7.59869910E+00 -1.51973982E+01  7.59869910E+00
  7.59869910E+00 -1.51973982E+01  7.59869910E+00  7.59869910E+00 -1.51973982E+01
  7.59869910E+00  7.59869910E+00 -1.51973982E+01  7.59869910E+00  7.59869910E+00
 -1.51973982E+01  7.59869910E+00  7.59869910E+00 -1.51973982E+01  7.59869910E+00
  7.59869910E+00 -1.51973982E+01  7.59869910E+00  7.59869910E+00 -1.51973982E+01
  7.59869910E+00  7.59869910E+00 -1.51973982E+01  7.59869910E+00  7.59869910E+00
 -1.51973982E+01  7.59869910E+00  7.59869910E+00 -1.51973982E+01  7.59869910E+00
  7.59869910E+00 -1.51973982E+01  7.59869910E+00  7.59869910E+00 -1.51973982E+01
  7.59869910E+00  7.59869910E+00 -1.51973982E+01  7.59869910E+00  7.59869910E+00
 -1.51973982E+01  7.59869910E+00  7.59869910E+00 -1.51973982E+01  7.59869910E+00
  7.59869910E+00 -1.51973982E+01  7.59869910E+00  7.59869910E+00 -1.51973982E+01
  7.59869910E+00  7.59869910E+00 -1.51973982E+01  7.59869910E+00  7.59869910E+00
 -1.51973982E+01  7.59869910E+00  7.59869910E+00 -1.51973982E+01  7.59869910E+00
  7.59869910E+00 -1.51973982E+01  7.59869910E+00  7.59869910E+00 -1.51973982E+01
  7.59869910E+00  7.59869910E+00 -1.51973982E+01  7.59869910E+00  7.59869910E+00
 -1.51973982E+01  7.59869910E+00  7.59869910E+00 -1.51973982E+01  7.59869910E+00
  7.59869910E+00 -1.51973982E+01  7.59869910E+00  7.59869910E+00 -1.51973982E+01
  7.59869910E+00  7.59869910E+00 -1.51973982E+01  7.59869910E+00  7.59869910E+00
 -1.51973982E+01  7.59869910E+00  7.59869910E+00 -1.51973982E+01  7.59869910E+00
  7.59869910E+00 -1.51973982E+01  7.59869910E+00  7.59869910E+00 -1.51973982E+01
  7.59869910E+00  7.59869910E+00 -1.51973982E+01  7.59869910E+00  7.59869910E+00
 -1.51973982E+01  7.59869910E+00  7.59869910E+00 -1.51973982E+01  7.59869910E+00
  7.59869910E+00 -1.51973982E+01  7.59869910E+00  7.59869910E+00 -1.51973982E+01
  7.59869910E+00  7.59869910E+00 -1.51973982E+01  7.59869910E+00  7.59869910E+00
 -1.51973982E+01  7.59869910E+00  7.59869910E+00 -1.51973982E+01  7.59869910E+00
  7.59869910E+00 -1.51973982E+01  7.59869910E+00  7.59869910E+00 -1.51973982E+01
  7.59869910E+00  7.59869910E+00 -1.51973982E+01  7.59869910E+00  7.59869910E+00
 -1.51973982E+01  7.59869910E+00  7.59869910E+00 -1.51973982E+01  7.59869910E+00
  7.59869910E+00 -1.51973982E+01  7.59869910E+00  7.59869910E+00 -1.51973982E+01
  7.59869910E+00  7.59869910E+00 -1.51973982E+01  7.59869910E+00  7.59869910E+00
 -1.51973982E+01  7.59869910E+00  7.59869910E+00 -1.51973982E+01  7.59869910E+00
  7.59869910E+00 -1.51973982E+01  7.59869910E+00  7.59869910E+00 -1.51973982E+01
  7.59869910E+00  7.59869910E+00 -1.51973982E+01  7.59869910E+00  7.59869910E+00
 -1.51973982E+01  7.59869910E+00  7.59869910E+00 -1.51973982E+01  7.59869910E+00
  7.59869910E+00 -1.51973982E+01  7.59869910E+00  7.59869910E+00 -1.51973982E+01
  7.59869910E+00  7.59869910E+00 -1.51973982E+01  7.59869910E+00  7.59869910E+00
 -1.51973982E+01  7.59869910E+00  7.59869910E+00 -1.51973982E+01  7.59869910E+00
  7.59869910E+00 -1.51973982E+01  7.59869910E+00  7.59869910E+00 -1.51973982E+01
  7.59869910E+00  7.59869910E+00 -1.51973982E+01  7.59869910E+00  7.59869910E+00
 -1.51973982E+01  7.59869910E+00  7.59869910E+00 -1.51973982E+01  7.59869910E+00
  7.59869910E+00 -1.51973982E+01  7.59869910E+00  7.59869910E+00 -1.51973982E+01
  7.59869910E+00  7.59869910E+00 -1.51973982E+01  7.59869910E+00  7.59869910E+00
 -1.51973982E+01  7.59869910E+00  7.59869910E+00 -1.51973982E+01  7.59869910E+00
  7.59869910E+00 -1.51973982E+01  7.59869910E+00  7.59869910E+00 -1.51973982E+01
  7.59869910E+00  7.59869910E+00 -1.51973982E+01  7.59869910E+00  7.59869910E+00
 -1.51973982E+01  7.59869910E+00  7.59869910E+00 -1.51973982E+01  7.59869910E+00
  7.59869910E+00 -1.51973982E+01  7.59869910E+00  7.59869910E+00 -1.51973982E+01
  7.59869910E+00  7.59869910E+00 -1.51973982E+01  7.59869910E+00  7.59869910E+00
 -1.51973982E+01  7.59869910E+00  7.59869910E+00 -1.51973982E+01  7.59869910E+00
  7.59869910E+00 -1.51973982E+01  7.59869910E+00  7.59869910E+00 -1.51973982E+01
  7.59869910E+00  7.59869910E+00 -1.51973982E+01  7.59869910E+00  7.59869910E+00
 -1.51973982E+01  7.59869910E+00  7.59869910E+00 -1.51973982E+01  7.59869910E+00
  7.59869910E+00 -1.51973982E+01  7.59869910E+00  7.59869910E+00 -1.51973982E+01
  7.59869910E+00  7.59869910E+00 -1.51973982E+01  7.59869910E+00  7.59869910E+00
 -1.51973982E+01  7.59869910E+00  7.59869910E+00 -1.51973982E+01  7.59869910E+00
  7.59869910E+00 -1.51973982E+01  7.59869910E+00  7.59869910E+00 -1.51973982E+01
  7.59869910E+00  7.59869910E+00 -1.51973982E+01  7.59869910E+00  7.59869910E+00
 -1.51973982E+01  7.59869910E+00  7.59869910E+00 -1.51973982E+01  7.59869910E+00
  7.59869910E+00 -1.51973982E+01  7.59869910E+00  7.59869910E+00 -1.51973982E+01
  7.59869910E+00  7.59869910E+00 -1.51973982E+01  7.59869910E+00  7.59869910E+00
 -1.51973982E+01  7.59869910E+00  7.59869910E+00 -1.51973982E+01  7.59869910E+00
  7.59869910E+00 -1.51973982E+01  7.59869910E+00  7.59869910E+00 -1.51973982E+01
  7.59869910E+00  7.59869910E+00 -1.51973982E+01  7.59869910E+00  7.59869910E+00
 -1.51973982E+01  7.59869910E+00  7.59869910E+00 -1.51973982E+01  7.59869910E+00
  7.59869910E+00 -1.51973982E+01  7.59869910E+00  7.59869910E+00 -1.51973982E+01
  7.59869910E+00  7.59869910E+00 -1.51973982E+01  7.59869910E+00  7.59869910E+00
 -1.51973982E+01  7.59869910E+00  7.59869910E+00 -1.51973982E+01  7.59869910E+00
  7.59869910E+00 -1.51973982E+01  7.59869910E+00  7.59869910E+00 -1.51973982E+01
  7.59869910E+00  7.59869910E+00 -1.51973982E+01  7.59869910E+00  7.59869910E+00
 -1.51973982E+01  7.59869910E+00  7.59869910E+00 -1.51973982E+01  7.59869910E+00
  7.59869910E+00 -1.51973982E+01  7.59869910E+00  7.59869910E+00 -1.51973982E+01
  7.59869910E+00  7.59869910E+00 -1.51973982E+01  7.59869910E+00  7.59869910E+00
 -1.51973982E+01  7.59869910E+00  7.59869910E+00 -1.51973982E+01  7.59869910E+00
  7.59869910E+00 -1.51973982E+01  7.59869910E+00  7.59869910E+00 -1.51973982E+01
  7.59869910E+00  7.59869910E+00 -1.51973982E+01  7.59869910E+00  7.59869910E+00
 -1.51973982E+01  7.59869910E+00  7.59869910E+00 -1.51973982E+01  7.59869910E+00
  7.59869910E+00 -1.51973982E+01  7.59869910E+00  7.59869910E+00 -1.51973982E+01
  7.59869910E+00  7.59869910E+00 -1.51973982E+01  7.59869910E+00  7.59869910E+00
 -1.51973982E+01  7.59869910E+00  7.59869910E+00 -1.51973982E+01  7.59869910E+00
  7.59869910E+00 -1.51973982E+01  7.59869910E+00  7.59869910E+00 -1.51973982E+01
  7.59869910E+00  7.59869910E+00 -1.51973982E+01  7.59869910E+00  7.59869910E+00
 -1.51973982E+01  7.59869910E+00  7.59869910E+00 -1.51973982E+01  7.59869910E+00
  7.59869910E+00 -1.51973982E+01  7.59869910E+00  7.59869910E+00 -1.51973982E+01
  7.59869910E+00  7.59869910E+00 -1.51973982E+01  7.59869910E+00  7.59869910E+00
 -1.51973982E+01  7.59869910E+00  7.59869910E+00 -1.51973982E+01  7.59869910E+00
  7.59869910E+00 -1.51973982E+01  7.59869910E+00  7.59869910E+00 -1.51973982E+01
  7.59869910E+00  7.59869910E+00 -1.51973982E+01  7.59869910E+00  7.59869910E+00
 -1.51973982E+01  7.59869910E+00  7.59869910E+00 -1.51973982E+01  7.59869910E+00
  7.59869910E+00 -1.51973982E+01  7.59869910E+00  7.59869910E+00 -1.51973982E+01
  7.59869910E+00  7.59869910E+00 -1.51973982E+01  7.59869910E+00  7.59869910E+00
 -1.51973982E+01  7.59869910E+00  7.59869910E+00 -1.51973982E+01  7.59869910E+00
  7.59869910E+00 -1.51973982E+01  7.59869910E+00  7.59869910E+00 -1.51973982E+01
  7.59869910E+00  7.59869910E+00 -1.51973982E+01  7.59869910E+00  7.59869910E+00
 -1.51973982E+01  7.59869910E+00  7.59869910E+00 -1.51973982E+01  7.59869910E+00
  7.59869910E+00 -1.51973982E+01  7.59869910E+00  7.59869910E+00 -1.51973982E+01
  7.59869910E+00  7.59869910E+00 -1.51973982E+01  7.59869910E+00  7.59869910E+00
 -1.51973982E+01  7.59869910E+00  7.59869910E+00 -1.51973982E+01  7.59869910E+00
  7.59869910E+00 -1.51973982E+01  7.59869910E+00  7.59869910E+00 -1.51973982E+01
  7.59869910E+00  7.59869910E+00 -1.51973982E+01  7.59869910E+00  7.59869910E+00
 -1.51973982E+01  7.59869910E+00  7.59869910E+00 -1.51973982E+01  7.59869910E+00
  7.59869910E+00 -1.51973982E+01  7.59869910E+00  7.59869910E+00 -1.51973982E+01
  7.59869910E+00  7.59869910E+00 -1.51973982E+01  7.59869910E+00  7.59869910E+00
 -1.51973982E+01  7.59869910E+00  7.59869910E+00 -1.51973982E+01  7.59869910E+00
  7.59869910E+00 -1.51973982E+01  7.59869910E+00  7.59869910E+00 -1.51973982E+01
  7.59869910E+00  7.59869910E+00 -1.51973982E+01  7.59869910E+00  7.59869910E+00
 -1.51973982E+01  7.59869910E+00  7.59869910E+00 -1.51973982E+01  7.59869910E+00
  7.59869910E+00 -1.51973982E+01  7.59869910E+00  7.59869910E+00 -1.51973982E+01
  7.59869910E+00  7.59869910E+00 -1.51973982E+01  7.59869910E+00  7.59869910E+00
 -1.51973982E+01  7.59869910E+00  7.59869910E+00 -1.51973982E+01  7.59869910E+00
  7.59869910E+00 -1.51973982E+01  7.59869910E+00  7.59869910E+00 -1.51973982E+01
  7.59869910E+00  7.59869910E+00 -1.51973982E+01  7.59869910E+00  7.59869910E+00
 -1.51973982E+01  7.59869910E+00  7.59869910E+00 -1.51973982E+01  7.59869910E+00
  7.59869910E+00 -1.51973982E+01  7.59869910E+00  7.59869910E+00 -1.51973982E+01
  7.59869910E+00  7.59869910E+00 -1.51973982E+01  7.59869910E+00  7.59869910E+00
 -1.51973982E+01  7.59869910E+00  7.59869910E+00 -1.51973982E+01  7.59869910E+00
  7.59869910E+00 -1.51973982E+01  7.59869910E+00  7.59869910E+00 -1.51973982E+01
  7.59869910E+00  7.59869910E+00 -1.51973982E+01  7.59869910E+00  7.59869910E+00
 -1.51973982E+01  7.59869910E+00  7.59869910E+00 -1.51973982E+01  7.59869910E+00
  7.59869910E+00 -1.51973982E+01  7.59869910E+00  7.59869910E+00 -1.51973982E+01
  7.59869910E+00  7.59869910E+00 -1.51973982E+01  7.59869910E+00  7.59869910E+00
 -1.51973982E+01  7.59869910E+00  7.59869910E+00 -1.51973982E+01  7.59869910E+00
  7.59869910E+00 -1.51973982E+01  7.59869910E+00  7.59869910E+00 -1.51973982E+01
  7.59869910E+00  7.59869910E+00 -1.51973982E+01  7.59869910E+00  7.59869910E+00
 -1.51973982E+01  7.59869910E+00  7.59869910E+00 -1.51973982E+01  7.59869910E+00
  7.59869910E+00 -1.51973982E+01  7.59869910E+00  7.59869910E+00 -1.51973982E+01
  7.59869910E+00  7.59869910E+00 -1.51973982E+01  7.59869910E+00  7.59869910E+00
 -1.51973982E+01  7.59869910E+00  7.59869910E+00 -1.51973982E+01  7.59869910E+00
  7.59869910E+00 -1.51973982E+01  7.59869910E+00  7.59869910E+00 -1.51973982E+01
  7.59869910E+00  7.59869910E+00 -1.51973982E+01  7.59869910E+00  7.59869910E+00
 -1.51973982E+01  7.59869910E+00  7.59869910E+00 -1.51973982E+01  7.59869910E+00
  7.59869910E+00 -1.51973982E+01  7.59869910E+00  7.59869910E+00 -1.51973982E+01
  7.59869910E+00  7.59869910E+00 -1.51973982E+01  7.59869910E+00  7.59869910E+00
 -1.51973982E+01  7.59869910E+00  7.59869910E+00 -1.51973982E+01  7.59869910E+00
  7.59869910E+00 -1.51973982E+01  7.59869910E+00  7.59869910E+00 -1.51973982E+01
  7.59869910E+00  7.59869910E+00 -1.51973982E+01  7.59869910E+00  7.59869910E+00
 -1.51973982E+01  7.59869910E+00  7.59869910E+00 -1.51973982E+01  7.59869910E+00
  7.59869910E+00 -1.51973982E+01  7.59869910E+00  7.59869910E+00 -1.51973982E+01
  7.59869910E+00  7.59869910E+00 -1.51973982E+01  7.59869910E+00  7.59869910E+00
 -1.51973982E+01  7.59869910E+00  7.59869910E+00 -1.51973982E+01  7.59869910E+00
  7.59869910E+00 -1.51973982E+01  7.59869910E+00  7.59869910E+00 -1.51973982E+01
  7.59869910E+00  7.59869910E+00 -1.51973982E+01  7.59869910E+00  7.59869910E+00
 -1.51973982E+01  7.59869910E+00  7.59869910E+00 -1.51973982E+01  7.59869910E+00
  7.59869910E+00 -1.51973982E+01  7.59869910E+00  7.59869910E+00 -1.51973982E+01
  7.59869910E+00  7.59869910E+00 -1.51973982E+01  7.59869910E+00  7.59869910E+00
 -1.51973982E+01  7.59869910E+00  7.59869910E+00 -1.51973982E+01  7.59869910E+00
  7.59869910E+00 -1.51973982E+01  7.59869910E+00  7.59869910E+00 -1.51973982E+01
  7.59869910E+00  7.59869910E+00 -1.51973982E+01  7.59869910E+00  7.59869910E+00
 -1.51973982E+01  7.59869910E+00  7.59869910E+00 -1.51973982E+01  7.59869910E+00
  7.59869910E+00 -1.51973982E+01  7.59869910E+00  7.59869910E+00 -1.51973982E+01
  7.59869910E+00  7.59869910E+00 -1.51973982E+01  7.59869910E+00  7.59869910E+00
 -1.51973982E+01  7.59869910E+00  7.59869910E+00 -1.51973982E+01  7.59869910E+00
  7.59869910E+00 -1.51973982E+01  7.59869910E+00  7.59869910E+00 -1.51973982E+01
  7.59869910E+00  7.59869910E+00 -1.51973982E+01  7.59869910E+00  7.59869910E+00
 -1.51973982E+01  7.59869910E+00  7.59869910E+00 -1.51973982E+01  7.59869910E+00
  7.59869910E+00 -1.51973982E+01  7.59869910E+00  7.59869910E+00 -1.51973982E+01
  7.59869910E+00  7.59869910E+00 -1.51973982E+01  7.59869910E+00  7.59869910E+00
 -1.51973982E+01  7.59869910E+00  7.59869910E+00 -1.51973982E+01  7.59869910E+00
  7.59869910E+00 -1.51973982E+01  7.59869910E+00  7.59869910E+00 -1.51973982E+01
  7.59869910E+00  7.59869910E+00 -1.51973982E+01  7.59869910E+00  7.59869910E+00
 -1.51973982E+01  7.59869910E+00  7.59869910E+00 -1.51973982E+01  7.59869910E+00
  7.59869910E+00 -1.51973982E+01  7.59869910E+00  7.59869910E+00 -1.51973982E+01
  7.59869910E+00  7.59869910E+00 -1.51973982E+01  7.59869910E+00  7.59869910E+00
 -1.51973982E+01  7.59869910E+00  7.59869910E+00 -1.51973982E+01  7.59869910E+00
  7.59869910E+00 -1.51973982E+01  7.59869910E+00  7.59869910E+00 -1.51973982E+01
  7.59869910E+00  7.59869910E+00 -1.51973982E+01  7.59869910E+00  7.59869910E+00
 -1.51973982E+01  7.59869910E+00  7.59869910E+00 -1.51973982E+01  7.59869910E+00
  7.59869910E+00 -1.51973982E+01  7.59869910E+00  7.59869910E+00 -1.51973982E+01
  7.59869910E+00  7.59869910E+00 -1.51973982E+01  7.59869910E+00  7.59869910E+00
 -1.51973982E+01  7.59869910E+00  7.59869910E+00 -1.51973982E+01  7.59869910E+00
  7.59869910E+00 -1.51973982E+01  7.59869910E+00  7.59869910E+00 -1.51973982E+01
  7.59869910E+00  7.59869910E+00 -1.51973982E+01  7.59869910E+00  7.59869910E+00
 -1.51973982E+01  7.59869910E+00  7.59869910E+00 -1.51973982E+01  7.59869910E+00
  7.59869910E+00 -1.51973982E+01  7.59869910E+00  7.59869910E+00 -1.51973982E+01
  7.59869910E+00  7.59869910E+00 -1.51973982E+01  7.59869910E+00  7.59869910E+00
 -1.51973982E+01  7.59869910E+00  7.59869910E+00 -1.51973982E+01  7.59869910E+00
  7.59869910E+00 -1.51973982E+01  7.59869910E+00  7.59869910E+00 -1.51973982E+01
  7.59869910E+00  7.59869910E+00 -1.51973982E+01  7.59869910E+00  7.59869910E+00
 -1.51973982E+01  7.59869910E+00  7.59869910E+00 -1.51973982E+01  7.59869910E+00
  7.59869910E+00 -1.51973982E+01  7.59869910E+00  7.59869910E+00 -1.51973982E+01
  7.59869910E+00  7.59869910E+00 -1.51973982E+01  7.59869910E+00  7.59869910E+00
 -1.51973982E+01  7.59869910E+00  7.59869910E+00 -1.51973982E+01  7.59869910E+00
  7.59869910E+00 -1.51973982E+01  7.59869910E+00  7.59869910E+00 -1.51973982E+01
  7.59869910E+00  7.59869910E+00 -1.51973982E+01  7.59869910E+00  7.59869910E+00
 -1.51973982E+01  7.59869910E+00  7.59869910E+00 -1.51973982E+01  7.59869910E+00
  7.59869910E+00 -1.51973982E+01  7.59869910E+00  7.59869910E+00 -1.51973982E+01
  7.59869910E+00  7.59869910E+00 -1.51973982E+01  7.59869910E+00  7.59869910E+00
 -1.51973982E+01  7.59869910E+00  7.59869910E+00 -1.51973982E+01  7.59869910E+00
  7.59869910E+00 -1.51973982E+01  7.59869910E+00  7.59869910E+00 -1.51973982E+01
  7.59869910E+00  7.59869910E+00 -1.51973982E+01  7.59869910E+00  7.59869910E+00
 -1.51973982E+01  7.59869910E+00  7.59869910E+00 -1.51973982E+01  7.59869910E+00
  7.59869910E+00 -1.51973982E+01  7.59869910E+00  7.59869910E+00 -1.51973982E+01
  7.59869910E+00  7.59869910E+00 -1.51973982E+01  7.59869910E+00  7.59869910E+00
 -1.51973982E+01  7.59869910E+00  7.59869910E+00 -1.51973982E+01  7.59869910E+00
  7.59869910E+00 -1.51973982E+01  7.59869910E+00  7.59869910E+00 -1.51973982E+01
  7.59869910E+00  7.59869910E+00 -1.51973982E+01  7.59869910E+00  7.59869910E+00
 -1.51973982E+01  7.59869910E+00  7.59869910E+00 -1.51973982E+01  7.59869910E+00
  7.59869910E+00 -1.51973982E+01  7.59869910E+00  7.59869910E+00 -1.51973982E+01
  7.59869910E+00  7.59869910E+00 -1.51973982E+01  7.59869910E+00  7.59869910E+00
 -1.51973982E+01  7.59869910E+00  7.59869910E+00 -1.51973982E+01  7.59869910E+00
  7.59869910E+00 -1.51973982E+01  7.59869910E+00  7.59869910E+00 -1.51973982E+01
  7.59869910E+00  7.59869910E+00 -1.51973982E+01  7.59869910E+00  7.59869910E+00
 -1.51973982E+01  7.59869910E+00  7.59869910E+00 -1.51973982E+01  7.59869910E+00
  7.59869910E+00 -1.51973982E+01  7.59869910E+00  7.59869910E+00 -1.51973982E+01
  7.59869910E+00  7.59869910E+00 -1.51973982E+01  7.59869910E+00  7.59869910E+00
 -1.51973982E+01  7.59869910E+00  7.59869910E+00 -1.51973982E+01  7.59869910E+00
  7.59869910E+00 -1.51973982E+01  7.59869910E+00  7.59869910E+00 -1.51973982E+01
  7.59869910E+00  7.59869910E+00 -1.51973982E+01  7.59869910E+00  7.59869910E+00
 -1.51973982E+01  7.59869910E+00  7.59869910E+00 -1.51973982E+01  7.59869910E+00
  7.59869910E+00 -1.51973982E+01  7.59869910E+00  7.59869910E+00 -1.51973982E+01
  7.59869910E+00  7.59869910E+00 -1.51973982E+01  7.59869910E+00  7.59869910E+00
 -1.51973982E+01  7.59869910E+00  7.59869910E+00 -1.51973982E+01  7.59869910E+00
  7.59869910E+00 -1.51973982E+01  7.59869910E+00  7.59869910E+00 -1.51973982E+01
  7.59869910E+00  7.59869910E+00 -1.51973982E+01  7.59869910E+00  7.59869910E+00
 -1.51973982E+01  7.59869910E+00  7.59869910E+00 -1.51973982E+01  7.59869910E+00
  7.59869910E+00 -1.51973982E+01  7.59869910E+00  7.59869910E+00 -1.51973982E+01
  7.59869910E+00  7.59869910E+00 -1.51973982E+01  7.59869910E+00  7.59869910E+00
 -1.51973982E+01  7.59869910E+00  7.59869910E+00 -1.51973982E+01  7.59869910E+00
  7.59869910E+00 -1.51973982E+01  7.59869910E+00  7.59869910E+00 -1.51973982E+01
  7.59869910E+00  7.59869910E+00 -1.51973982E+01  7.59869910E+00  7.59869910E+00
 -1.51973982E+01  7.59869910E+00  7.59869910E+00 -1.51973982E+01  7.59869910E+00
  7.59869910E+00 -1.51973982E+01  7.59869910E+00  7.59869910E+00 -1.51973982E+01
  7.59869910E+00  7.59869910E+00 -1.51973982E+01  7.59869910E+00  7.59869910E+00
 -1.51973982E+01  7.59869910E+00  7.59869910E+00 -1.51973982E+01  7.59869910E+00
  7.59869910E+00 -1.51973982E+01  7.59869910E+00  7.59869910E+00 -1.51973982E+01
  7.59869910E+00  7.59869910E+00 -1.51973982E+01  7.59869910E+00  7.59869910E+00
 -1.51973982E+01  7.59869910E+00  7.59869910E+00 -1.51973982E+01  7.59869910E+00
  7.59869910E+00 -1.51973982E+01  7.59869910E+00  7.59869910E+00 -1.51973982E+01
  7.59869910E+00  7.59869910E+00 -1.51973982E+01  7.59869910E+00  7.59869910E+00
 -1.51973982E+01  7.59869910E+00  7.59869910E+00 -1.51973982E+01  7.59869910E+00
  7.59869910E+00 -1.51973982E+01  7.59869910E+00  7.59869910E+00 -1.51973982E+01
  7.59869910E+00  7.59869910E+00 -1.51973982E+01  7.59869910E+00  7.59869910E+00
 -1.51973982E+01  7.59869910E+00  7.59869910E+00 -1.51973982E+01  7.59869910E+00
  7.59869910E+00 -1.51973982E+01  7.59869910E+00  7.59869910E+00 -1.51973982E+01
  7.59869910E+00  7.59869910E+00 -1.51973982E+01  7.59869910E+00  7.59869910E+00
 -1.51973982E+01  7.59869910E+00  7.59869910E+00 -1.51973982E+01  7.59869910E+00
  7.59869910E+00 -1.51973982E+01  7.59869910E+00  7.59869910E+00 -1.51973982E+01
  7.59869910E+00  7.59869910E+00 -1.51973982E+01  7.59869910E+00  7.59869910E+00
 -1.51973982E+01  7.59869910E+00  7.59869910E+00 -1.51973982E+01  7.59869910E+00
  7.59869910E+00 -1.51973982E+01  7.59869910E+00  7.59869910E+00 -1.51973982E+01
  7.59869910E+00  7.59869910E+00 -1.51973982E+01  7.59869910E+00  7.59869910E+00
 -1.51973982E+01  7.59869910E+00  7.59869910E+00 -1.51973982E+01  7.59869910E+00
  7.59869910E+00 -1.51973982E+01  7.59869910E+00  7.59869910E+00 -1.51973982E+01
  7.59869910E+00  7.59869910E+00 -1.51973982E+01  7.59869910E+00  7.59869910E+00
 -1.51973982E+01  7.59869910E+00  7.59869910E+00 -1.51973982E+01  7.59869910E+00
  7.59869910E+00 -1.51973982E+01  7.59869910E+00  7.59869910E+00 -1.51973982E+01
  7.59869910E+00  7.59869910E+00 -1.51973982E+01  7.59869910E+00  7.59869910E+00
 -1.51973982E+01  7.59869910E+00  7.59869910E+00 -1.51973982E+01  7.59869910E+00
  7.59869910E+00 -1.51973982E+01  7.59869910E+00  7.59869910E+00 -1.51973982E+01
  7.59869910E+00  7.59869910E+00 -1.51973982E+01  7.59869910E+00  7.59869910E+00
 -1.51973982E+01  7.59869910E+00  7.59869910E+00 -1.51973982E+01  7.59869910E+00
  7.59869910E+00 -1.51973982E+01  7.59869910E+00  7.59869910E+00 -1.51973982E+01
  7.59869910E+00  7.59869910E+00 -1.51973982E+01  7.59869910E+00  7.59869910E+00
 -1.51973982E+01  7.59869910E+00  7.59869910E+00 -1.51973982E+01  7.59869910E+00
  7.59869910E+00 -1.51973982E+01  7.59869910E+00  7.59869910E+00 -1.51973982E+01
  7.59869910E+00  7.59869910E+00 -1.51973982E+01  7.59869910E+00  7.59869910E+00
 -1.51973982E+01  7.59869910E+00  7.59869910E+00 -1.51973982E+01  7.59869910E+00
  7.59869910E+00 -1.51973982E+01  7.59869910E+00  7.59869910E+00 -1.51973982E+01
  7.59869910E+00  7.59869910E+00 -1.51973982E+01  7.59869910E+00  7.59869910E+00
 -1.51973982E+01  7.59869910E+00  7.59869910E+00 -1.51973982E+01  7.59869910E+00
  7.59869910E+00 -1.51973982E+01  7.59869910E+00  7.59869910E+00 -1.51973982E+01
  7.59869910E+00  7.59869910E+00 -1.51973982E+01  7.59869910E+00  7.59869910E+00
 -1.51973982E+01  7.59869910E+00  7.59869910E+00 -1.51973982E+01  7.59869910E+00
  7.59869910E+00 -1.51973982E+01  7.59869910E+00  7.59869910E+00 -1.51973982E+01
  7.59869910E+00  7.59869910E+00 -1.51973982E+01  7.59869910E+00  7.59869910E+00
 -1.51973982E+01  7.59869910E+00  7.59869910E+00 -1.51973982E+01  7.59869910E+00
  7.59869910E+00 -1.51973982E+01  7.59869910E+00  7.59869910E+00 -1.51973982E+01
  7.59869910E+00  7.59869910E+00 -1.51973982E+01  7.59869910E+00  7.59869910E+00
 -1.51973982E+01  7.59869910E+00  7.59869910E+00 -1.51973982E+01  7.59869910E+00
  7.59869910E+00 -1.51973982E+01  7.59869910E+00  7.59869910E+00 -1.51973982E+01
  7.59869910E+00  7.59869910E+00 -1.51973982E+01  7.59869910E+00  7.59869910E+00
 -1.51973982E+01  7.59869910E+00  7.59869910E+00 -1.51973982E+01  7.59869910E+00
  7.59869910E+00 -1.51973982E+01  7.59869910E+00  7.59869910E+00 -1.51973982E+01
  7.59869910E+00  7.59869910E+00 -1.51973982E+01  7.59869910E+00  7.59869910E+00
 -1.51973982E+01  7.59869910E+00  7.59869910E+00 -1.51973982E+01  7.59869910E+00
  7.59869910E+00 -1.51973982E+01  7.59869910E+00  7.59869910E+00 -1.51973982E+01
  7.59869910E+00  7.59869910E+00 -1.51973982E+01  7.59869910E+00  7.59869910E+00
 -1.51973982E+01  7.59869910E+00  7.59869910E+00 -1.51973982E+01  7.59869910E+00
  7.59869910E+00 -1.51973982E+01  7.59869910E+00  7.59869910E+00 -1.51973982E+01
  7.59869910E+00  7.59869910E+00 -1.51973982E+01  7.59869910E+00  7.59869910E+00
 -1.51973982E+01  7.59869910E+00  7.59869910E+00 -1.51973982E+01  7.59869910E+00
  7.59869910E+00 -1.51973982E+01  7.59869910E+00  7.59869910E+00 -1.51973982E+01
  7.59869910E+00  7.59869910E+00 -1.51973982E+01  7.59869910E+00  7.59869910E+00
 -1.51973982E+01  7.59869910E+00  7.59869910E+00 -1.51973982E+01  7.59869910E+00
  7.59869910E+00 -1.51973982E+01  7.59869910E+00  7.59869910E+00 -1.51973982E+01
  7.59869910E+00  7.59869910E+00 -1.51973982E+01  7.59869910E+00  7.59869910E+00
 -1.51973982E+01  7.59869910E+00  7.59869910E+00 -1.51973982E+01  7.59869910E+00
  7.59869910E+00 -1.51973982E+01  7.59869910E+00  7.59869910E+00 -1.51973982E+01
  7.59869910E+00  7.59869910E+00 -1.51973982E+01  7.59869910E+00  7.59869910E+00
 -1.51973982E+01  7.59869910E+00  7.59869910E+00 -1.51973982E+01  7.59869910E+00
  7.59869910E+00 -1.51973982E+01  7.59869910E+00  7.59869910E+00 -1.51973982E+01
  7.59869910E+00  7.59869910E+00 -1.51973982E+01  7.59869910E+00  7.59869910E+00
 -1.51973982E+01  7.59869910E+00  7.59869910E+00 -1.51973982E+01  7.59869910E+00
  7.59869910E+00 -1.51973982E+01  7.59869910E+00  7.59869910E+00 -1.51973982E+01
  7.59869910E+00  7.59869910E+00 -1.51973982E+01  7.59869910E+00  7.59869910E+00
 -1.51973982E+01  7.59869910E+00  7.59869910E+00 -1.51973982E+01  7.59869910E+00
  7.59869910E+00 -1.51973982E+01  7.59869910E+00  7.59869910E+00 -1.51973982E+01
  7.59869910E+00  7.59869910E+00 -1.51973982E+01  7.59869910E+00  7.59869910E+00
 -1.51973982E+01  7.59869910E+00  7.59869910E+00 -1.51973982E+01  7.59869910E+00
  7.59869910E+00 -1.51973982E+01  7.59869910E+00  7.59869910E+00 -1.51973982E+01
  7.59869910E+00  7.59869910E+00 -1.51973982E+01  7.59869910E+00  7.59869910E+00
 -1.51973982E+01  7.59869910E+00  7.59869910E+00 -1.51973982E+01  7.59869910E+00
  7.59869910E+00 -1.51973982E+01  7.59869910E+00  7.59869910E+00 -1.51973982E+01
  7.59869910E+00  7.59869910E+00 -1.51973982E+01  7.59869910E+00  7.59869910E+00
 -1.51973982E+01  7.59869910E+00  7.59869910E+00 -1.51973982E+01  7.59869910E+00
  7.59869910E+00 -1.51973982E+01  7.59869910E+00  7.59869910E+00 -1.51973982E+01
  7.59869910E+00  7.59869910E+00 -1.51973982E+01  7.59869910E+00  7.59869910E+00
 -1.51973982E+01  7.59869910E+00  7.59869910E+00 -1.51973982E+01  7.59869910E+00
  7.59869910E+00 -1.51973982E+01  7.59869910E+00  7.59869910E+00 -1.51973982E+01
  7.59869910E+00  7.59869910E+00 -1.51973982E+01  7.59869910E+00  7.59869910E+00
 -1.51973982E+01  7.59869910E+00  7.59869910E+00 -1.51973982E+01  7.59869910E+00
  7.59869910E+00 -1.51973982E+01  7.59869910E+00  7.59869910E+00 -1.51973982E+01
  7.59869910E+00  7.59869910E+00 -1.51973982E+01  7.59869910E+00  7.59869910E+00
 -1.51973982E+01  7.59869910E+00  7.59869910E+00 -1.51973982E+01  7.59869910E+00
  7.59869910E+00 -1.51973982E+01  7.59869910E+00  7.59869910E+00 -1.51973982E+01
  7.59869910E+00  7.59869910E+00 -1.51973982E+01  7.59869910E+00  7.59869910E+00
 -1.51973982E+01  7.59869910E+00  7.59869910E+00 -1.51973982E+01  7.59869910E+00
  7.59869910E+00 -1.51973982E+01  7.59869910E+00  7.59869910E+00 -1.51973982E+01
  7.59869910E+00  7.59869910E+00 -1.51973982E+01  7.59869910E+00  7.59869910E+00
 -1.51973982E+01  7.59869910E+00  7.59869910E+00 -1.51973982E+01  7.59869910E+00
  7.59869910E+00 -1.51973982E+01  7.59869910E+00  7.59869910E+00 -1.51973982E+01
  7.59869910E+00  7.59869910E+00 -1.51973982E+01  7.59869910E+00  7.59869910E+00
 -1.51973982E+01  7.59869910E+00  7.59869910E+00 -1.51973982E+01  7.59869910E+00
  7.59869910E+00 -1.51973982E+01  7.59869910E+00  7.59869910E+00 -1.51973982E+01
  7.59869910E+00  7.59869910E+00 -1.51973982E+01  7.59869910E+00  7.59869910E+00
 -1.51973982E+01  7.59869910E+00  7.59869910E+00 -1.51973982E+01  7.59869910E+00
  7.59869910E+00 -1.51973982E+01  7.59869910E+00  7.59869910E+00 -1.51973982E+01
  7.59869910E+00  7.59869910E+00 -1.51973982E+01  7.59869910E+00  7.59869910E+00
 -1.51973982E+01  7.59869910E+00  7.59869910E+00 -1.51973982E+01  7.59869910E+00
  7.59869910E+00 -1.51973982E+01  7.59869910E+00  7.59869910E+00 -1.51973982E+01
  7.59869910E+00  7.59869910E+00 -1.51973982E+01  7.59869910E+00  7.59869910E+00
 -1.51973982E+01  7.59869910E+00  7.59869910E+00 -1.51973982E+01  7.59869910E+00
  7.59869910E+00 -1.51973982E+01  7.59869910E+00  7.59869910E+00 -1.51973982E+01
  7.59869910E+00  7.59869910E+00 -1.51973982E+01  7.59869910E+00  7.59869910E+00
 -1.51973982E+01  7.59869910E+00  7.59869910E+00 -1.51973982E+01  7.59869910E+00
  7.59869910E+00 -1.51973982E+01  7.59869910E+00  7.59869910E+00 -1.51973982E+01
  7.59869910E+00  7.59869910E+00 -1.51973982E+01  7.59869910E+00  7.59869910E+00
 -1.51973982E+01  7.59869910E+00  7.59869910E+00 -1.51973982E+01  7.59869910E+00
  7.59869910E+00 -1.51973982E+01  7.59869910E+00  7.59869910E+00 -1.51973982E+01
  7.59869910E+00  7.59869910E+00 -1.51973982E+01  7.59869910E+00  7.59869910E+00
 -1.51973982E+01  7.59869910E+00  7.59869910E+00 -1.51973982E+01  7.59869910E+00
  7.59869910E+00 -1.51973982E+01  7.59869910E+00  7.59869910E+00 -1.51973982E+01
  7.59869910E+00  7.59869910E+00 -1.51973982E+01  7.59869910E+00  7.59869910E+00
 -1.51973982E+01  7.59869910E+00  7.59869910E+00 -1.51973982E+01  7.59869910E+00
  7.59869910E+00 -1.51973982E+01  7.59869910E+00  7.59869910E+00 -1.51973982E+01
  7.59869910E+00  7.59869910E+00 -1.51973982E+01  7.59869910E+00  7.59869910E+00
 -1.51973982E+01  7.59869910E+00  7.59869910E+00 -1.51973982E+01  7.59869910E+00
  7.59869910E+00 -1.51973982E+01  7.59869910E+00  7.59869910E+00 -1.51973982E+01
  7.59869910E+00  7.59869910E+00 -1.51973982E+01  7.59869910E+00  7.59869910E+00
 -1.51973982E+01  7.59869910E+00  7.59869910E+00 -1.51973982E+01  7.59869910E+00
  7.59869910E+00 -1.51973982E+01  7.59869910E+00  7.59869910E+00 -1.51973982E+01
  7.59869910E+00  7.59869910E+00 -1.51973982E+01  7.59869910E+00  7.59869910E+00
 -1.51973982E+01  7.59869910E+00  7.59869910E+00 -1.51973982E+01  7.59869910E+00
  7.59869910E+00 -1.51973982E+01  7.59869910E+00  7.59869910E+00 -1.51973982E+01
  7.59869910E+00  7.59869910E+00 -1.51973982E+01  7.59869910E+00  7.59869910E+00
 -1.51973982E+01  7.59869910E+00  7.59869910E+00 -1.51973982E+01  7.59869910E+00
  7.59869910E+00 -1.51973982E+01  7.59869910E+00  7.59869910E+00 -1.51973982E+01
  7.59869910E+00  7.59869910E+00 -1.51973982E+01  7.59869910E+00  7.59869910E+00
 -1.51973982E+01  7.59869910E+00  7.59869910E+00 -1.51973982E+01  7.59869910E+00
  7.59869910E+00 -1.51973982E+01  7.59869910E+00  7.59869910E+00 -1.51973982E+01
  7.59869910E+00  7.59869910E+00 -1.51973982E+01  7.59869910E+00  7.59869910E+00
 -1.51973982E+01  7.59869910E+00  7.59869910E+00 -1.51973982E+01  7.59869910E+00
  7.59869910E+00 -1.51973982E+01  7.59869910E+00  7.59869910E+00 -1.51973982E+01
  7.59869910E+00  7.59869910E+00 -1.51973982E+01  7.59869910E+00  7.59869910E+00
 -1.51973982E+01  7.59869910E+00  7.59869910E+00 -1.51973982E+01  7.59869910E+00
  7.59869910E+00 -1.51973982E+01  7.59869910E+00  7.59869910E+00 -1.51973982E+01
  7.59869910E+00  7.59869910E+00 -1.51973982E+01  7.59869910E+00  7.59869910E+00
 -1.51973982E+01  7.59869910E+00  7.59869910E+00 -1.51973982E+01  7.59869910E+00
  7.59869910E+00 -1.51973982E+01  7.59869910E+00  7.59869910E+00 -1.51973982E+01
  7.59869910E+00  7.59869910E+00 -1.51973982E+01  7.59869910E+00  7.59869910E+00
 -1.51973982E+01  7.59869910E+00  7.59869910E+00 -1.51973982E+01  7.59869910E+00
  7.59869910E+00 -1.51973982E+01  7.59869910E+00  7.59869910E+00 -1.51973982E+01
  7.59869910E+00  7.59869910E+00 -1.51973982E+01  7.59869910E+00  7.59869910E+00
 -1.51973982E+01  7.59869910E+00  7.59869910E+00 -1.51973982E+01  7.59869910E+00
  7.59869910E+00 -1.51973982E+01  7.59869910E+00  7.59869910E+00 -1.51973982E+01
  7.59869910E+00  7.59869910E+00 -1.51973982E+01  7.59869910E+00  7.59869910E+00
 -1.51973982E+01  7.59869910E+00  7.59869910E+00 -1.51973982E+01  7.59869910E+00
  7.59869910E+00 -1.51973982E+01  7.59869910E+00  7.59869910E+00 -1.51973982E+01
  7.59869910E+00  7.59869910E+00 -1.51973982E+01  7.59869910E+00  7.59869910E+00
 -1.51973982E+01  7.59869910E+00  7.59869910E+00 -1.51973982E+01  7.59869910E+00
  7.59869910E+00 -1.51973982E+01  7.59869910E+00  7.59869910E+00 -1.51973982E+01
  7.59869910E+00  7.59869910E+00 -1.51973982E+01  7.59869910E+00  7.59869910E+00
 -1.51973982E+01  7.59869910E+00  7.59869910E+00 -1.51973982E+01  7.59869910E+00
  7.59869910E+00 -1.51973982E+01  7.59869910E+00  7.59869910E+00 -1.51973982E+01
  7.59869910E+00  7.59869910E+00 -1.51973982E+01  7.59869910E+00  7.59869910E+00
 -1.51973982E+01  7.59869910E+00  7.59869910E+00 -1.51973982E+01  7.59869910E+00
  7.59869910E+00 -1.51973982E+01  7.59869910E+00  7.59869910E+00 -1.51973982E+01
  7.59869910E+00  7.59869910E+00 -1.51973982E+01  7.59869910E+00  7.59869910E+00
 -1.51973982E+01  7.59869910E+00  7.59869910E+00 -1.51973982E+01  7.59869910E+00
  7.59869910E+00 -1.51973982E+01  7.59869910E+00  7.59869910E+00 -1.51973982E+01
  7.59869910E+00  7.59869910E+00 -1.51973982E+01  7.59869910E+00  7.59869910E+00
 -1.51973982E+01  7.59869910E+00  7.59869910E+00 -1.51973982E+01  7.59869910E+00
  7.59869910E+00 -1.51973982E+01  7.59869910E+00  7.59869910E+00 -1.51973982E+01
  7.59869910E+00  7.59869910E+00 -1.51973982E+01  7.59869910E+00  7.59869910E+00
 -1.51973982E+01  7.59869910E+00  7.59869910E+00 -1.51973982E+01  7.59869910E+00
  7.59869910E+00 -1.51973982E+01  7.59869910E+00  7.59869910E+00 -1.51973982E+01
  7.59869910E+00  7.59869910E+00 -1.51973982E+01  7.59869910E+00  7.59869910E+00
 -1.51973982E+01  7.59869910E+00  7.59869910E+00 -1.51973982E+01  7.59869910E+00
  7.59869910E+00 -1.51973982E+01  7.59869910E+00  7.59869910E+00 -1.51973982E+01
  7.59869910E+00  7.59869910E+00 -1.51973982E+01  7.59869910E+00  7.59869910E+00
 -1.51973982E+01  7.59869910E+00  7.59869910E+00 -1.51973982E+01  7.59869910E+00
  7.59869910E+00 -1.51973982E+01  7.59869910E+00  7.59869910E+00 -1.51973982E+01
  7.59869910E+00  7.59869910E+00 -1.51973982E+01  7.59869910E+00  7.59869910E+00
 -1.51973982E+01  7.59869910E+00  7.59869910E+00 -1.51973982E+01  7.59869910E+00
  7.59869910E+00 -1.51973982E+01  7.59869910E+00  7.59869910E+00 -1.51973982E+01
  7.59869910E+00  7.59869910E+00 -1.51973982E+01  7.59869910E+00  7.59869910E+00
 -1.51973982E+01  7.59869910E+00  7.59869910E+00 -1.51973982E+01  7.59869910E+00
  7.59869910E+00 -1.51973982E+01  7.59869910E+00  7.59869910E+00 -1.51973982E+01
  7.59869910E+00  7.59869910E+00 -1.51973982E+01  7.59869910E+00  7.59869910E+00
 -1.51973982E+01  7.59869910E+00  7.59869910E+00 -1.51973982E+01  7.59869910E+00
  7.59869910E+00 -1.51973982E+01  7.59869910E+00  7.59869910E+00 -1.51973982E+01
  7.59869910E+00  7.59869910E+00 -1.51973982E+01  7.59869910E+00  7.59869910E+00
 -1.51973982E+01  7.59869910E+00  7.59869910E+00 -1.51973982E+01  7.59869910E+00
  7.59869910E+00 -1.51973982E+01  7.59869910E+00  7.59869910E+00 -1.51973982E+01
  7.59869910E+00  7.59869910E+00 -1.51973982E+01  7.59869910E+00  7.59869910E+00
 -1.51973982E+01  7.59869910E+00  7.59869910E+00 -1.51973982E+01  7.59869910E+00
  7.59869910E+00 -1.51973982E+01  7.59869910E+00  7.59869910E+00 -1.51973982E+01
  7.59869910E+00  7.59869910E+00 -1.51973982E+01  7.59869910E+00  7.59869910E+00
 -1.51973982E+01  7.59869910E+00  7.59869910E+00 -1.51973982E+01  7.59869910E+00
  7.59869910E+00 -1.51973982E+01  7.59869910E+00  7.59869910E+00 -1.51973982E+01
  7.59869910E+00  7.59869910E+00 -1.51973982E+01  7.59869910E+00  7.59869910E+00
 -1.51973982E+01  7.59869910E+00  7.59869910E+00 -1.51973982E+01  7.59869910E+00
  7.59869910E+00 -1.51973982E+01  7.59869910E+00  7.59869910E+00 -1.51973982E+01
  7.59869910E+00  7.59869910E+00 -1.51973982E+01  7.59869910E+00  7.59869910E+00
 -1.51973982E+01  7.59869910E+00  7.59869910E+00 -1.51973982E+01  7.59869910E+00
  7.59869910E+00 -1.51973982E+01  7.59869910E+00  7.59869910E+00 -1.51973982E+01
  7.59869910E+00  7.59869910E+00 -1.51973982E+01  7.59869910E+00  7.59869910E+00
 -1.51973982E+01  7.59869910E+00  7.59869910E+00 -1.51973982E+01  7.59869910E+00
  7.59869910E+00 -1.51973982E+01  7.59869910E+00  7.59869910E+00 -1.51973982E+01
  7.59869910E+00  7.59869910E+00 -1.51973982E+01  7.59869910E+00  7.59869910E+00
 -1.51973982E+01  7.59869910E+00  7.59869910E+00 -1.51973982E+01  7.59869910E+00
  7.59869910E+00 -1.51973982E+01  7.59869910E+00  7.59869910E+00 -1.51973982E+01
  7.59869910E+00  7.59869910E+00 -1.51973982E+01  7.59869910E+00  7.59869910E+00
 -1.51973982E+01  7.59869910E+00  7.59869910E+00 -1.51973982E+01  7.59869910E+00
  7.59869910E+00 -1.51973982E+01  7.59869910E+00  7.59869910E+00 -1.51973982E+01
  7.59869910E+00  7.59869910E+00 -1.51973982E+01  7.59869910E+00  7.59869910E+00
 -1.51973982E+01  7.59869910E+00  7.59869910E+00 -1.51973982E+01  7.59869910E+00
  7.59869910E+00 -1.51973982E+01  7.59869910E+00  7.59869910E+00 -1.51973982E+01
  7.59869910E+00  7.59869910E+00 -1.51973982E+01  7.59869910E+00  7.59869910E+00
 -1.51973982E+01  7.59869910E+00  7.59869910E+00 -1.51973982E+01  7.59869910E+00
  7.59869910E+00 -1.51973982E+01  7.59869910E+00  7.59869910E+00 -1.51973982E+01
  7.59869910E+00  7.59869910E+00 -1.51973982E+01  7.59869910E+00  7.59869910E+00
 -1.51973982E+01  7.59869910E+00  7.59869910E+00 -1.51973982E+01  7.59869910E+00
  7.59869910E+00 -1.51973982E+01  7.59869910E+00  7.59869910E+00 -1.51973982E+01
  7.59869910E+00  7.59869910E+00 -1.51973982E+01  7.59869910E+00  7.59869910E+00
 -1.51973982E+01  7.59869910E+00  7.59869910E+00 -1.51973982E+01  7.59869910E+00
  7.59869910E+00 -1.51973982E+01  7.59869910E+00  7.59869910E+00 -1.51973982E+01
  7.59869910E+00  7.59869910E+00 -1.51973982E+01  7.59869910E+00  7.59869910E+00
 -1.51973982E+01  7.59869910E+00  7.59869910E+00 -1.51973982E+01  7.59869910E+00
  7.59869910E+00 -1.51973982E+01  7.59869910E+00  7.59869910E+00 -1.51973982E+01
  7.59869910E+00  7.59869910E+00 -1.51973982E+01  7.59869910E+00  7.59869910E+00
 -1.51973982E+01  7.59869910E+00  7.59869910E+00 -1.51973982E+01  7.59869910E+00
  7.59869910E+00 -1.51973982E+01  7.59869910E+00  7.59869910E+00 -1.51973982E+01
  7.59869910E+00  7.59869910E+00 -1.51973982E+01  7.59869910E+00  7.59869910E+00
 -1.51973982E+01  7.59869910E+00  7.59869910E+00 -1.51973982E+01  7.59869910E+00
  7.59869910E+00 -1.51973982E+01  7.59869910E+00  7.59869910E+00 -1.51973982E+01
  7.59869910E+00  7.59869910E+00 -1.51973982E+01  7.59869910E+00  7.59869910E+00
 -1.51973982E+01  7.59869910E+00  7.59869910E+00 -1.51973982E+01  7.59869910E+00
  7.59869910E+00 -1.51973982E+01  7.59869910E+00  7.59869910E+00 -1.51973982E+01
  7.59869910E+00  7.59869910E+00 -1.51973982E+01  7.59869910E+00  7.59869910E+00
 -1.51973982E+01  7.59869910E+00  7.59869910E+00 -1.51973982E+01  7.59869910E+00
  7.59869910E+00 -1.51973982E+01  7.59869910E+00  7.59869910E+00 -1.51973982E+01
  7.59869910E+00  7.59869910E+00 -1.51973982E+01  7.59869910E+00  7.59869910E+00
 -1.51973982E+01  7.59869910E+00  7.59869910E+00 -1.51973982E+01  7.59869910E+00
  7.59869910E+00 -1.51973982E+01  7.59869910E+00  7.59869910E+00 -1.51973982E+01
  7.59869910E+00  7.59869910E+00 -1.51973982E+01  7.59869910E+00  7.59869910E+00
 -1.51973982E+01  7.59869910E+00  7.59869910E+00 -1.51973982E+01  7.59869910E+00
  7.59869910E+00 -1.51973982E+01  7.59869910E+00  7.59869910E+00 -1.51973982E+01
  7.59869910E+00  7.59869910E+00 -1.51973982E+01  7.59869910E+00  7.59869910E+00
 -1.51973982E+01  7.59869910E+00  7.59869910E+00 -1.51973982E+01  7.59869910E+00
  7.59869910E+00 -1.51973982E+01  7.59869910E+00  7.59869910E+00 -1.51973982E+01
  7.59869910E+00  7.59869910E+00 -1.51973982E+01  7.59869910E+00  7.59869910E+00
 -1.51973982E+01  7.59869910E+00  7.59869910E+00 -1.51973982E+01  7.59869910E+00
  7.59869910E+00 -1.51973982E+01  7.59869910E+00  7.59869910E+00 -1.51973982E+01
  7.59869910E+00  7.59869910E+00 -1.51973982E+01  7.59869910E+00  7.59869910E+00
 -1.51973982E+01  7.59869910E+00  7.59869910E+00 -1.51973982E+01  7.59869910E+00
  7.59869910E+00 -1.51973982E+01  7.59869910E+00  7.59869910E+00 -1.51973982E+01
  7.59869910E+00  7.59869910E+00 -1.51973982E+01  7.59869910E+00  7.59869910E+00
 -1.51973982E+01  7.59869910E+00  7.59869910E+00 -1.51973982E+01  7.59869910E+00
  7.59869910E+00 -1.51973982E+01  7.59869910E+00  7.59869910E+00 -1.51973982E+01
  7.59869910E+00  7.59869910E+00 -1.51973982E+01  7.59869910E+00  7.59869910E+00
 -1.51973982E+01  7.59869910E+00  7.59869910E+00 -1.51973982E+01  7.59869910E+00
  7.59869910E+00 -1.51973982E+01  7.59869910E+00  7.59869910E+00 -1.51973982E+01
  7.59869910E+00  7.59869910E+00 -1.51973982E+01  7.59869910E+00  7.59869910E+00
 -1.51973982E+01  7.59869910E+00  7.59869910E+00 -1.51973982E+01  7.59869910E+00
  7.59869910E+00 -1.51973982E+01  7.59869910E+00  7.59869910E+00 -1.51973982E+01
  7.59869910E+00  7.59869910E+00 -1.51973982E+01  7.59869910E+00  7.59869910E+00
 -1.51973982E+01  7.59869910E+00  7.59869910E+00 -1.51973982E+01  7.59869910E+00
  7.59869910E+00 -1.51973982E+01  7.59869910E+00  7.59869910E+00 -1.51973982E+01
  7.59869910E+00  7.59869910E+00 -1.51973982E+01  7.59869910E+00  7.59869910E+00
 -1.51973982E+01  7.59869910E+00  7.59869910E+00 -1.51973982E+01  7.59869910E+00
  7.59869910E+00 -1.51973982E+01  7.59869910E+00  7.59869910E+00 -1.51973982E+01
  7.59869910E+00  7.59869910E+00 -1.51973982E+01  7.59869910E+00  7.59869910E+00
 -1.51973982E+01  7.59869910E+00  7.59869910E+00 -1.51973982E+01  7.59869910E+00
  7.59869910E+00 -1.51973982E+01  7.59869910E+00  7.59869910E+00 -1.51973982E+01
  7.59869910E+00  7.59869910E+00 -1.51973982E+01  7.59869910E+00  7.59869910E+00
 -1.51973982E+01  7.59869910E+00  7.59869910E+00 -1.51973982E+01  7.59869910E+00
  7.59869910E+00 -1.51973982E+01  7.59869910E+00  7.59869910E+00 -1.51973982E+01
  7.59869910E+00  7.59869910E+00 -1.51973982E+01  7.59869910E+00  7.59869910E+00
 -1.51973982E+01  7.59869910E+00  7.59869910E+00 -1.51973982E+01  7.59869910E+00
  7.59869910E+00 -1.51973982E+01  7.59869910E+00  7.59869910E+00 -1.51973982E+01
  7.59869910E+00  7.59869910E+00 -1.51973982E+01  7.59869910E+00  7.59869910E+00
 -1.51973982E+01  7.59869910E+00  7.59869910E+00 -1.51973982E+01  7.59869910E+00
  7.59869910E+00 -1.51973982E+01  7.59869910E+00  7.59869910E+00 -1.51973982E+01
  7.59869910E+00  7.59869910E+00 -1.51973982E+01  7.59869910E+00  7.59869910E+00
 -1.51973982E+01  7.59869910E+00  7.59869910E+00 -1.51973982E+01  7.59869910E+00
  7.59869910E+00 -1.51973982E+01  7.59869910E+00  7.59869910E+00 -1.51973982E+01
  7.59869910E+00  7.59869910E+00 -1.51973982E+01  7.59869910E+00  7.59869910E+00
 -1.51973982E+01  7.59869910E+00  7.59869910E+00 -1.51973982E+01  7.59869910E+00
  7.59869910E+00 -1.51973982E+01  7.59869910E+00  7.59869910E+00 -1.51973982E+01
  7.59869910E+00  7.59869910E+00 -1.51973982E+01  7.59869910E+00  7.59869910E+00
 -1.51973982E+01  7.59869910E+00  7.59869910E+00 -1.51973982E+01  7.59869910E+00
  7.59869910E+00 -1.51973982E+01  7.59869910E+00  7.59869910E+00 -1.51973982E+01
  7.59869910E+00  7.59869910E+00 -1.51973982E+01  7.59869910E+00  7.59869910E+00
 -1.51973982E+01  7.59869910E+00  7.59869910E+00 -1.51973982E+01  7.59869910E+00
  7.59869910E+00 -1.51973982E+01  7.59869910E+00  7.59869910E+00 -1.51973982E+01
  7.59869910E+00  7.59869910E+00 -1.51973982E+01  7.59869910E+00  7.59869910E+00
 -1.51973982E+01  7.59869910E+00  7.59869910E+00 -1.51973982E+01  7.59869910E+00
  7.59869910E+00 -1.51973982E+01  7.59869910E+00  7.59869910E+00 -1.51973982E+01
  7.59869910E+00  7.59869910E+00 -1.51973982E+01  7.59869910E+00  7.59869910E+00
 -1.51973982E+01  7.59869910E+00  7.59869910E+00 -1.51973982E+01  7.59869910E+00
  7.59869910E+00 -1.51973982E+01  7.59869910E+00  7.59869910E+00 -1.51973982E+01
  7.59869910E+00  7.59869910E+00 -1.51973982E+01  7.59869910E+00  7.59869910E+00
 -1.51973982E+01  7.59869910E+00  7.59869910E+00 -1.51973982E+01  7.59869910E+00
  7.59869910E+00 -1.51973982E+01  7.59869910E+00  7.59869910E+00 -1.51973982E+01
  7.59869910E+00  7.59869910E+00 -1.51973982E+01  7.59869910E+00  7.59869910E+00
 -1.51973982E+01  7.59869910E+00  7.59869910E+00 -1.51973982E+01  7.59869910E+00
  7.59869910E+00 -1.51973982E+01  7.59869910E+00  7.59869910E+00 -1.51973982E+01
  7.59869910E+00  7.59869910E+00 -1.51973982E+01  7.59869910E+00  7.59869910E+00
 -1.51973982E+01  7.59869910E+00  7.59869910E+00 -1.51973982E+01  7.59869910E+00
  7.59869910E+00 -1.51973982E+01  7.59869910E+00  7.59869910E+00 -1.51973982E+01
  7.59869910E+00  7.59869910E+00 -1.51973982E+01  7.59869910E+00  7.59869910E+00
 -1.51973982E+01  7.59869910E+00  7.59869910E+00 -1.51973982E+01  7.59869910E+00
  7.59869910E+00 -1.51973982E+01  7.59869910E+00  7.59869910E+00 -1.51973982E+01
  7.59869910E+00  7.59869910E+00 -1.51973982E+01  7.59869910E+00  7.59869910E+00
 -1.51973982E+01  7.59869910E+00  7.59869910E+00 -1.51973982E+01  7.59869910E+00
  7.59869910E+00 -1.51973982E+01  7.59869910E+00  7.59869910E+00 -1.51973982E+01
  7.59869910E+00  7.59869910E+00 -1.51973982E+01  7.59869910E+00  7.59869910E+00
 -1.51973982E+01  7.59869910E+00  7.59869910E+00 -1.51973982E+01  7.59869910E+00
  7.59869910E+00 -1.51973982E+01  7.59869910E+00  7.59869910E+00 -1.51973982E+01
  7.59869910E+00  7.59869910E+00 -1.51973982E+01  7.59869910E+00  7.59869910E+00
 -1.51973982E+01  7.59869910E+00  7.59869910E+00 -1.51973982E+01  7.59869910E+00
  7.59869910E+00 -1.51973982E+01  7.59869910E+00  7.59869910E+00 -1.51973982E+01
  7.59869910E+00  7.59869910E+00 -1.51973982E+01  7.59869910E+00  7.59869910E+00
 -1.51973982E+01  7.59869910E+00  7.59869910E+00 -1.51973982E+01  7.59869910E+00
  7.59869910E+00 -1.51973982E+01  7.59869910E+00  7.59869910E+00 -1.51973982E+01
  7.59869910E+00  7.59869910E+00 -1.51973982E+01  7.59869910E+00  7.59869910E+00
 -1.51973982E+01  7.59869910E+00  7.59869910E+00 -1.51973982E+01  7.59869910E+00
  7.59869910E+00 -1.51973982E+01  7.59869910E+00  7.59869910E+00 -1.51973982E+01
  7.59869910E+00  7.59869910E+00 -1.51973982E+01  7.59869910E+00  7.59869910E+00
 -1.51973982E+01  7.59869910E+00  7.59869910E+00 -1.51973982E+01  7.59869910E+00
  7.59869910E+00 -1.51973982E+01  7.59869910E+00  7.59869910E+00 -1.51973982E+01
  7.59869910E+00  7.59869910E+00 -1.51973982E+01  7.59869910E+00  7.59869910E+00
 -1.51973982E+01  7.59869910E+00  7.59869910E+00 -1.51973982E+01  7.59869910E+00
  7.59869910E+00 -1.51973982E+01  7.59869910E+00  7.59869910E+00 -1.51973982E+01
  7.59869910E+00  7.59869910E+00 -1.51973982E+01  7.59869910E+00  7.59869910E+00
 -1.51973982E+01  7.59869910E+00  7.59869910E+00 -1.51973982E+01  7.59869910E+00
  7.59869910E+00 -1.51973982E+01  7.59869910E+00  7.59869910E+00 -1.51973982E+01
  7.59869910E+00  7.59869910E+00 -1.51973982E+01  7.59869910E+00  7.59869910E+00
 -1.51973982E+01  7.59869910E+00  7.59869910E+00 -1.51973982E+01  7.59869910E+00
  7.59869910E+00 -1.51973982E+01  7.59869910E+00  7.59869910E+00 -1.51973982E+01
  7.59869910E+00  7.59869910E+00 -1.51973982E+01  7.59869910E+00  7.59869910E+00
 -1.51973982E+01  7.59869910E+00  7.59869910E+00 -1.51973982E+01  7.59869910E+00
  7.59869910E+00 -1.51973982E+01  7.59869910E+00  7.59869910E+00 -1.51973982E+01
  7.59869910E+00  7.59869910E+00 -1.51973982E+01  7.59869910E+00  7.59869910E+00
 -1.51973982E+01  7.59869910E+00  7.59869910E+00 -1.51973982E+01  7.59869910E+00
  7.59869910E+00 -1.51973982E+01  7.59869910E+00  7.59869910E+00 -1.51973982E+01
  7.59869910E+00  7.59869910E+00 -1.51973982E+01  7.59869910E+00  7.59869910E+00
 -1.51973982E+01  7.59869910E+00  7.59869910E+00 -1.51973982E+01  7.59869910E+00
  7.59869910E+00 -1.51973982E+01  7.59869910E+00  7.59869910E+00 -1.51973982E+01
  7.59869910E+00  7.59869910E+00 -1.51973982E+01  7.59869910E+00  7.59869910E+00
 -1.51973982E+01  7.59869910E+00  7.59869910E+00 -1.51973982E+01  7.59869910E+00
  7.59869910E+00 -1.51973982E+01  7.59869910E+00  7.59869910E+00 -1.51973982E+01
  7.59869910E+00  7.59869910E+00 -1.51973982E+01  7.59869910E+00  7.59869910E+00
 -1.51973982E+01  7.59869910E+00  7.59869910E+00 -1.51973982E+01  7.59869910E+00
  7.59869910E+00 -1.51973982E+01  7.59869910E+00  7.59869910E+00 -1.51973982E+01
  7.59869910E+00  7.59869910E+00 -1.51973982E+01  7.59869910E+00  7.59869910E+00
 -1.51973982E+01  7.59869910E+00  7.59869910E+00 -1.51973982E+01  7.59869910E+00
  7.59869910E+00 -1.51973982E+01  7.59869910E+00  7.59869910E+00 -1.51973982E+01
  7.59869910E+00  7.59869910E+00 -1.51973982E+01  7.59869910E+00  7.59869910E+00
 -1.51973982E+01  7.59869910E+00  7.59869910E+00 -1.51973982E+01  7.59869910E+00
  7.59869910E+00 -1.51973982E+01  7.59869910E+00  7.59869910E+00 -1.51973982E+01
  7.59869910E+00  7.59869910E+00 -1.51973982E+01  7.59869910E+00  7.59869910E+00
 -1.51973982E+01  7.59869910E+00  7.59869910E+00 -1.51973982E+01  7.59869910E+00
  7.59869910E+00 -1.51973982E+01  7.59869910E+00  7.59869910E+00 -1.51973982E+01
  7.59869910E+00  7.59869910E+00 -1.51973982E+01  7.59869910E+00  7.59869910E+00
 -1.51973982E+01  7.59869910E+00  7.59869910E+00 -1.51973982E+01  7.59869910E+00
  7.59869910E+00 -1.51973982E+01  7.59869910E+00  7.59869910E+00 -1.51973982E+01
  7.59869910E+00  7.59869910E+00 -1.51973982E+01  7.59869910E+00  7.59869910E+00
 -1.51973982E+01  7.59869910E+00  7.59869910E+00 -1.51973982E+01  7.59869910E+00
  7.59869910E+00 -1.51973982E+01  7.59869910E+00  7.59869910E+00 -1.51973982E+01
  7.59869910E+00  7.59869910E+00 -1.51973982E+01  7.59869910E+00  7.59869910E+00
 -1.51973982E+01  7.59869910E+00  7.59869910E+00 -1.51973982E+01  7.59869910E+00
  7.59869910E+00 -1.51973982E+01  7.59869910E+00  7.59869910E+00 -1.51973982E+01
  7.59869910E+00  7.59869910E+00 -1.51973982E+01  7.59869910E+00  7.59869910E+00
 -1.51973982E+01  7.59869910E+00  7.59869910E+00 -1.51973982E+01  7.59869910E+00
  7.59869910E+00 -1.51973982E+01  7.59869910E+00  7.59869910E+00 -1.51973982E+01
  7.59869910E+00  7.59869910E+00 -1.51973982E+01  7.59869910E+00  7.59869910E+00
 -1.51973982E+01  7.59869910E+00  7.59869910E+00 -1.51973982E+01  7.59869910E+00
  7.59869910E+00 -1.51973982E+01  7.59869910E+00  7.59869910E+00 -1.51973982E+01
  7.59869910E+00  7.59869910E+00 -1.51973982E+01  7.59869910E+00  7.59869910E+00
 -1.51973982E+01  7.59869910E+00  7.59869910E+00 -1.51973982E+01  7.59869910E+00
  7.59869910E+00 -1.51973982E+01  7.59869910E+00  7.59869910E+00 -1.51973982E+01
  7.59869910E+00  7.59869910E+00 -1.51973982E+01  7.59869910E+00  7.59869910E+00
 -1.51973982E+01  7.59869910E+00  7.59869910E+00 -1.51973982E+01  7.59869910E+00
  7.59869910E+00 -1.51973982E+01  7.59869910E+00  7.59869910E+00 -1.51973982E+01
  7.59869910E+00  7.59869910E+00 -1.51973982E+01  7.59869910E+00  7.59869910E+00
 -1.51973982E+01  7.59869910E+00  7.59869910E+00 -1.51973982E+01  7.59869910E+00
  7.59869910E+00 -1.51973982E+01  7.59869910E+00  7.59869910E+00 -1.51973982E+01
  7.59869910E+00  7.59869910E+00 -1.51973982E+01  7.59869910E+00  7.59869910E+00
 -1.51973982E+01  7.59869910E+00  7.59869910E+00 -1.51973982E+01  7.59869910E+00
  7.59869910E+00 -1.51973982E+01  7.59869910E+00  7.59869910E+00 -1.51973982E+01
  7.59869910E+00  7.59869910E+00 -1.51973982E+01  7.59869910E+00  7.59869910E+00
 -1.51973982E+01  7.59869910E+00  7.59869910E+00 -1.51973982E+01  7.59869910E+00
  7.59869910E+00 -1.51973982E+01  7.59869910E+00  7.59869910E+00 -1.51973982E+01
  7.59869910E+00  7.59869910E+00 -1.51973982E+01  7.59869910E+00  7.59869910E+00
 -1.51973982E+01  7.59869910E+00  7.59869910E+00 -1.51973982E+01  7.59869910E+00
  7.59869910E+00 -1.51973982E+01  7.59869910E+00  7.59869910E+00 -1.51973982E+01
  7.59869910E+00  7.59869910E+00 -1.51973982E+01  7.59869910E+00  7.59869910E+00
 -1.51973982E+01  7.59869910E+00  7.59869910E+00 -1.51973982E+01  7.59869910E+00
  7.59869910E+00 -1.51973982E+01  7.59869910E+00  7.59869910E+00 -1.51973982E+01
  7.59869910E+00  7.59869910E+00 -1.51973982E+01  7.59869910E+00  7.59869910E+00
 -1.51973982E+01  7.59869910E+00  7.59869910E+00 -1.51973982E+01  7.59869910E+00
  7.59869910E+00 -1.51973982E+01  7.59869910E+00  7.59869910E+00 -1.51973982E+01
  7.59869910E+00  7.59869910E+00 -1.51973982E+01  7.59869910E+00  7.59869910E+00
 -1.51973982E+01  7.59869910E+00  7.59869910E+00 -1.51973982E+01  7.59869910E+00
  7.59869910E+00 -1.51973982E+01  7.59869910E+00  7.59869910E+00 -1.51973982E+01
  7.59869910E+00  7.59869910E+00 -1.51973982E+01  7.59869910E+00  7.59869910E+00
 -1.51973982E+01  7.59869910E+00  7.59869910E+00 -1.51973982E+01  7.59869910E+00
  7.59869910E+00 -1.51973982E+01  7.59869910E+00  7.59869910E+00 -1.51973982E+01
  7.59869910E+00  7.59869910E+00 -1.51973982E+01  7.59869910E+00  7.59869910E+00
 -1.51973982E+01  7.59869910E+00  7.59869910E+00 -1.51973982E+01  7.59869910E+00
  7.59869910E+00 -1.51973982E+01  7.59869910E+00  7.59869910E+00 -1.51973982E+01
  7.59869910E+00  7.59869910E+00 -1.51973982E+01  7.59869910E+00  7.59869910E+00
 -1.51973982E+01  7.59869910E+00  7.59869910E+00 -1.51973982E+01  7.59869910E+00
  7.59869910E+00 -1.51973982E+01  7.59869910E+00  7.59869910E+00 -1.51973982E+01
  7.59869910E+00  7.59869910E+00 -1.51973982E+01  7.59869910E+00  7.59869910E+00
 -1.51973982E+01  7.59869910E+00  7.59869910E+00 -1.51973982E+01  7.59869910E+00
  7.59869910E+00 -1.51973982E+01  7.59869910E+00  7.59869910E+00 -1.51973982E+01
  7.59869910E+00  7.59869910E+00 -1.51973982E+01  7.59869910E+00  7.59869910E+00
 -1.51973982E+01  7.59869910E+00  7.59869910E+00 -1.51973982E+01  7.59869910E+00
  7.59869910E+00 -1.51973982E+01  7.59869910E+00  7.59869910E+00 -1.51973982E+01
  7.59869910E+00  7.59869910E+00 -1.51973982E+01  7.59869910E+00  7.59869910E+00
 -1.51973982E+01  7.59869910E+00  7.59869910E+00 -1.51973982E+01  7.59869910E+00
  7.59869910E+00 -1.51973982E+01  7.59869910E+00  7.59869910E+00 -1.51973982E+01
  7.59869910E+00  7.59869910E+00 -1.51973982E+01  7.59869910E+00  7.59869910E+00
 -1.51973982E+01  7.59869910E+00  7.59869910E+00 -1.51973982E+01  7.59869910E+00
  7.59869910E+00 -1.51973982E+01  7.59869910E+00  7.59869910E+00 -1.51973982E+01
  7.59869910E+00  7.59869910E+00 -1.51973982E+01  7.59869910E+00  7.59869910E+00
 -1.51973982E+01  7.59869910E+00  7.59869910E+00 -1.51973982E+01  7.59869910E+00
  7.59869910E+00 -1.51973982E+01  7.59869910E+00  7.59869910E+00 -1.51973982E+01
  7.59869910E+00  7.59869910E+00 -1.51973982E+01  7.59869910E+00  7.59869910E+00
 -1.51973982E+01  7.59869910E+00  7.59869910E+00 -1.51973982E+01  7.59869910E+00
  7.59869910E+00 -1.51973982E+01  7.59869910E+00  7.59869910E+00 -1.51973982E+01
  7.59869910E+00  7.59869910E+00 -1.51973982E+01  7.59869910E+00  7.59869910E+00
 -1.51973982E+01  7.59869910E+00  7.59869910E+00 -1.51973982E+01  7.59869910E+00
  7.59869910E+00 -1.51973982E+01  7.59869910E+00  7.59869910E+00 -1.51973982E+01
  7.59869910E+00  7.59869910E+00 -1.51973982E+01  7.59869910E+00  7.59869910E+00
 -1.51973982E+01  7.59869910E+00  7.59869910E+00 -1.51973982E+01  7.59869910E+00
  7.59869910E+00 -1.51973982E+01  7.59869910E+00  7.59869910E+00 -1.51973982E+01
  7.59869910E+00  7.59869910E+00 -1.51973982E+01  7.59869910E+00  7.59869910E+00
 -1.51973982E+01  7.59869910E+00  7.59869910E+00 -1.51973982E+01  7.59869910E+00
  7.59869910E+00 -1.51973982E+01  7.59869910E+00  7.59869910E+00 -1.51973982E+01
  7.59869910E+00  7.59869910E+00 -1.51973982E+01  7.59869910E+00  7.59869910E+00
 -1.51973982E+01  7.59869910E+00  7.59869910E+00 -1.51973982E+01  7.59869910E+00
  7.59869910E+00 -1.51973982E+01  7.59869910E+00  7.59869910E+00 -1.51973982E+01
  7.59869910E+00  7.59869910E+00 -1.51973982E+01  7.59869910E+00  7.59869910E+00
 -1.51973982E+01  7.59869910E+00  7.59869910E+00 -1.51973982E+01  7.59869910E+00
  7.59869910E+00 -1.51973982E+01  7.59869910E+00  7.59869910E+00 -1.51973982E+01
  7.59869910E+00  7.59869910E+00 -1.51973982E+01  7.59869910E+00  7.59869910E+00
 -1.51973982E+01  7.59869910E+00  7.59869910E+00 -1.51973982E+01  7.59869910E+00
  7.59869910E+00 -1.51973982E+01  7.59869910E+00  7.59869910E+00 -1.51973982E+01
  7.59869910E+00  7.59869910E+00 -1.51973982E+01  7.59869910E+00  7.59869910E+00
 -1.51973982E+01  7.59869910E+00  7.59869910E+00 -1.51973982E+01  7.59869910E+00
  7.59869910E+00 -1.51973982E+01  7.59869910E+00  7.59869910E+00 -1.51973982E+01
  7.59869910E+00  7.59869910E+00 -1.51973982E+01  7.59869910E+00  7.59869910E+00
 -1.51973982E+01  7.59869910E+00  7.59869910E+00 -1.51973982E+01  7.59869910E+00
  7.59869910E+00 -1.51973982E+01  7.59869910E+00  7.59869910E+00 -1.51973982E+01
  7.59869910E+00  7.59869910E+00 -1.51973982E+01  7.59869910E+00  7.59869910E+00
 -1.51973982E+01  7.59869910E+00  7.59869910E+00 -1.51973982E+01  7.59869910E+00
  7.59869910E+00 -1.51973982E+01  7.59869910E+00  7.59869910E+00 -1.51973982E+01
  7.59869910E+00  7.59869910E+00 -1.51973982E+01  7.59869910E+00  7.59869910E+00
 -1.51973982E+01  7.59869910E+00  7.59869910E+00 -1.51973982E+01  7.59869910E+00
  7.59869910E+00 -1.51973982E+01  7.59869910E+00  7.59869910E+00 -1.51973982E+01
  7.59869910E+00  7.59869910E+00 -1.51973982E+01  7.59869910E+00  7.59869910E+00
 -1.51973982E+01  7.59869910E+00  7.59869910E+00 -1.51973982E+01  7.59869910E+00
  7.59869910E+00 -1.51973982E+01  7.59869910E+00  7.59869910E+00 -1.51973982E+01
  7.59869910E+00  7.59869910E+00 -1.51973982E+01  7.59869910E+00  7.59869910E+00
 -1.51973982E+01  7.59869910E+00  7.59869910E+00 -1.51973982E+01  7.59869910E+00
  7.59869910E+00 -1.51973982E+01  7.59869910E+00  7.59869910E+00 -1.51973982E+01
  7.59869910E+00  7.59869910E+00 -1.51973982E+01  7.59869910E+00  7.59869910E+00
 -1.51973982E+01  7.59869910E+00  7.59869910E+00 -1.51973982E+01  7.59869910E+00
  7.59869910E+00 -1.51973982E+01  7.59869910E+00  7.59869910E+00 -1.51973982E+01
  7.59869910E+00  7.59869910E+00 -1.51973982E+01  7.59869910E+00  7.59869910E+00
 -1.51973982E+01  7.59869910E+00  7.59869910E+00 -1.51973982E+01  7.59869910E+00
  7.59869910E+00 -1.51973982E+01  7.59869910E+00  7.59869910E+00 -1.51973982E+01
  7.59869910E+00  7.59869910E+00 -1.51973982E+01  7.59869910E+00  7.59869910E+00
 -1.51973982E+01  7.59869910E+00  7.59869910E+00 -1.51973982E+01  7.59869910E+00
  7.59869910E+00 -1.51973982E+01  7.59869910E+00  7.59869910E+00 -1.51973982E+01
  7.59869910E+00  7.59869910E+00 -1.51973982E+01  7.59869910E+00  7.59869910E+00
 -1.51973982E+01  7.59869910E+00  7.59869910E+00 -1.51973982E+01  7.59869910E+00
  7.59869910E+00 -1.51973982E+01  7.59869910E+00  7.59869910E+00 -1.51973982E+01
  7.59869910E+00  7.59869910E+00 -1.51973982E+01  7.59869910E+00  7.59869910E+00
 -1.51973982E+01  7.59869910E+00  7.59869910E+00 -1.51973982E+01  7.59869910E+00
  7.59869910E+00 -1.51973982E+01  7.59869910E+00  7.59869910E+00 -1.51973982E+01
  7.59869910E+00  7.59869910E+00 -1.51973982E+01  7.59869910E+00  7.59869910E+00
 -1.51973982E+01  7.59869910E+00  7.59869910E+00 -1.51973982E+01  7.59869910E+00
  7.59869910E+00 -1.51973982E+01  7.59869910E+00  7.59869910E+00 -1.51973982E+01
  7.59869910E+00  7.59869910E+00 -1.51973982E+01  7.59869910E+00  7.59869910E+00
 -1.51973982E+01  7.59869910E+00  7.59869910E+00 -1.51973982E+01  7.59869910E+00
  7.59869910E+00 -1.51973982E+01  7.59869910E+00  7.59869910E+00 -1.51973982E+01
  7.59869910E+00  7.59869910E+00 -1.51973982E+01  7.59869910E+00  7.59869910E+00
 -1.51973982E+01  7.59869910E+00  7.59869910E+00 -1.51973982E+01  7.59869910E+00
  7.59869910E+00 -1.51973982E+01  7.59869910E+00  7.59869910E+00 -1.51973982E+01
  7.59869910E+00  7.59869910E+00 -1.51973982E+01  7.59869910E+00  7.59869910E+00
 -1.51973982E+01  7.59869910E+00  7.59869910E+00 -1.51973982E+01  7.59869910E+00
  7.59869910E+00 -1.51973982E+01  7.59869910E+00  7.59869910E+00 -1.51973982E+01
  7.59869910E+00  7.59869910E+00 -1.51973982E+01  7.59869910E+00  7.59869910E+00
 -1.51973982E+01  7.59869910E+00  7.59869910E+00 -1.51973982E+01  7.59869910E+00
  7.59869910E+00 -1.51973982E+01  7.59869910E+00  7.59869910E+00 -1.51973982E+01
  7.59869910E+00  7.59869910E+00 -1.51973982E+01  7.59869910E+00  7.59869910E+00
 -1.51973982E+01  7.59869910E+00  7.59869910E+00 -1.51973982E+01  7.59869910E+00
  7.59869910E+00 -1.51973982E+01  7.59869910E+00  7.59869910E+00 -1.51973982E+01
  7.59869910E+00  7.59869910E+00 -1.51973982E+01  7.59869910E+00  7.59869910E+00
 -1.51973982E+01  7.59869910E+00  7.59869910E+00 -1.51973982E+01  7.59869910E+00
  7.59869910E+00 -1.51973982E+01  7.59869910E+00  7.59869910E+00 -1.51973982E+01
  7.59869910E+00  7.59869910E+00 -1.51973982E+01  7.59869910E+00  7.59869910E+00
 -1.51973982E+01  7.59869910E+00  7.59869910E+00 -1.51973982E+01  7.59869910E+00
  7.59869910E+00 -1.51973982E+01  7.59869910E+00  7.59869910E+00 -1.51973982E+01
  7.59869910E+00  7.59869910E+00 -1.51973982E+01  7.59869910E+00  7.59869910E+00
 -1.51973982E+01  7.59869910E+00  7.59869910E+00 -1.51973982E+01  7.59869910E+00
  7.59869910E+00 -1.51973982E+01  7.59869910E+00  7.59869910E+00 -1.51973982E+01
  7.59869910E+00  7.59869910E+00 -1.51973982E+01  7.59869910E+00  7.59869910E+00
 -1.51973982E+01  7.59869910E+00  7.59869910E+00 -1.51973982E+01  7.59869910E+00
  7.59869910E+00 -1.51973982E+01  7.59869910E+00  7.59869910E+00 -1.51973982E+01
  7.59869910E+00  7.59869910E+00 -1.51973982E+01  7.59869910E+00  7.59869910E+00
 -1.51973982E+01  7.59869910E+00  7.59869910E+00 -1.51973982E+01  7.59869910E+00
  7.59869910E+00 -1.51973982E+01  7.59869910E+00  7.59869910E+00 -1.51973982E+01
  7.59869910E+00  7.59869910E+00 -1.51973982E+01  7.59869910E+00  7.59869910E+00
 -1.51973982E+01  7.59869910E+00  7.59869910E+00 -1.51973982E+01  7.59869910E+00
  7.59869910E+00 -1.51973982E+01  7.59869910E+00  7.59869910E+00 -1.51973982E+01
  7.59869910E+00  7.59869910E+00 -1.51973982E+01  7.59869910E+00  7.59869910E+00
 -1.51973982E+01  7.59869910E+00  7.59869910E+00 -1.51973982E+01  7.59869910E+00
  7.59869910E+00 -1.51973982E+01  7.59869910E+00  7.59869910E+00 -1.51973982E+01
  7.59869910E+00  7.59869910E+00 -1.51973982E+01  7.59869910E+00  7.59869910E+00
 -1.51973982E+01  7.59869910E+00  7.59869910E+00 -1.51973982E+01  7.59869910E+00
  7.59869910E+00 -1.51973982E+01  7.59869910E+00  7.59869910E+00 -1.51973982E+01
  7.59869910E+00  7.59869910E+00 -1.51973982E+01  7.59869910E+00  7.59869910E+00
 -1.51973982E+01  7.59869910E+00  7.59869910E+00 -1.51973982E+01  7.59869910E+00
  7.59869910E+00 -1.51973982E+01  7.59869910E+00  7.59869910E+00 -1.51973982E+01
  7.59869910E+00  7.59869910E+00 -1.51973982E+01  7.59869910E+00  7.59869910E+00
 -1.51973982E+01  7.59869910E+00  7.59869910E+00 -1.51973982E+01  7.59869910E+00
  7.59869910E+00 -1.51973982E+01  7.59869910E+00  7.59869910E+00 -1.51973982E+01
  7.59869910E+00  7.59869910E+00 -1.51973982E+01  7.59869910E+00  7.59869910E+00
 -1.51973982E+01  7.59869910E+00  7.59869910E+00 -1.51973982E+01  7.59869910E+00
  7.59869910E+00 -1.51973982E+01  7.59869910E+00  7.59869910E+00 -1.51973982E+01
  7.59869910E+00  7.59869910E+00 -1.51973982E+01  7.59869910E+00  7.59869910E+00
 -1.51973982E+01  7.59869910E+00  7.59869910E+00 -1.51973982E+01  7.59869910E+00
  7.59869910E+00 -1.51973982E+01  7.59869910E+00  7.59869910E+00 -1.51973982E+01
  7.59869910E+00  7.59869910E+00 -1.51973982E+01  7.59869910E+00  7.59869910E+00
 -1.51973982E+01  7.59869910E+00  7.59869910E+00 -1.51973982E+01  7.59869910E+00
  7.59869910E+00 -1.51973982E+01  7.59869910E+00  7.59869910E+00 -1.51973982E+01
  7.59869910E+00  7.59869910E+00 -1.51973982E+01  7.59869910E+00  7.59869910E+00
 -1.51973982E+01  7.59869910E+00  7.59869910E+00 -1.51973982E+01  7.59869910E+00
  7.59869910E+00 -1.51973982E+01  7.59869910E+00  7.59869910E+00 -1.51973982E+01
  7.59869910E+00  7.59869910E+00 -1.51973982E+01  7.59869910E+00  7.59869910E+00
 -1.51973982E+01  7.59869910E+00  7.59869910E+00 -1.51973982E+01  7.59869910E+00
  7.59869910E+00 -1.51973982E+01  7.59869910E+00  7.59869910E+00 -1.51973982E+01
  7.59869910E+00  7.59869910E+00 -1.51973982E+01  7.59869910E+00  7.59869910E+00
 -1.51973982E+01  7.59869910E+00  7.59869910E+00 -1.51973982E+01  7.59869910E+00
  7.59869910E+00 -1.51973982E+01  7.59869910E+00  7.59869910E+00 -1.51973982E+01
  7.59869910E+00  7.59869910E+00 -1.51973982E+01  7.59869910E+00  7.59869910E+00
 -1.51973982E+01  7.59869910E+00  7.59869910E+00 -1.51973982E+01  7.59869910E+00
  7.59869910E+00 -1.51973982E+01  7.59869910E+00  7.59869910E+00 -1.51973982E+01
  7.59869910E+00  7.59869910E+00 -1.51973982E+01  7.59869910E+00  7.59869910E+00
 -1.51973982E+01  7.59869910E+00  7.59869910E+00 -1.51973982E+01  7.59869910E+00
  7.59869910E+00 -1.51973982E+01  7.59869910E+00  7.59869910E+00 -1.51973982E+01
  7.59869910E+00  7.59869910E+00 -1.51973982E+01  7.59869910E+00  7.59869910E+00
 -1.51973982E+01  7.59869910E+00  7.59869910E+00 -1.51973982E+01  7.59869910E+00
  7.59869910E+00 -1.51973982E+01  7.59869910E+00  7.59869910E+00 -1.51973982E+01
  7.59869910E+00  7.59869910E+00 -1.51973982E+01  7.59869910E+00  7.59869910E+00
 -1.51973982E+01  7.59869910E+00  7.59869910E+00 -1.51973982E+01  7.59869910E+00
  7.59869910E+00 -1.51973982E+01  7.59869910E+00  7.59869910E+00 -1.51973982E+01
  7.59869910E+00  7.59869910E+00 -1.51973982E+01  7.59869910E+00  7.59869910E+00
 -1.51973982E+01  7.59869910E+00  7.59869910E+00 -1.51973982E+01  7.59869910E+00
  7.59869910E+00 -1.51973982E+01  7.59869910E+00  7.59869910E+00 -1.51973982E+01
  7.59869910E+00  7.59869910E+00 -1.51973982E+01  7.59869910E+00  7.59869910E+00
 -1.51973982E+01  7.59869910E+00  7.59869910E+00 -1.51973982E+01  7.59869910E+00
  7.59869910E+00 -1.51973982E+01  7.59869910E+00  7.59869910E+00 -1.51973982E+01
  7.59869910E+00  7.59869910E+00 -1.51973982E+01  7.59869910E+00  7.59869910E+00
 -1.51973982E+01  7.59869910E+00  7.59869910E+00 -1.51973982E+01  7.59869910E+00
  7.59869910E+00 -1.51973982E+01  7.59869910E+00  7.59869910E+00 -1.51973982E+01
  7.59869910E+00  7.59869910E+00 -1.51973982E+01  7.59869910E+00  7.59869910E+00
 -1.51973982E+01  7.59869910E+00  7.59869910E+00 -1.51973982E+01  7.59869910E+00
  7.59869910E+00 -1.51973982E+01  7.59869910E+00  7.59869910E+00 -1.51973982E+01
  7.59869910E+00  7.59869910E+00 -1.51973982E+01  7.59869910E+00  7.59869910E+00
 -1.51973982E+01  7.59869910E+00  7.59869910E+00 -1.51973982E+01  7.59869910E+00
  7.59869910E+00 -1.51973982E+01  7.59869910E+00  7.59869910E+00 -1.51973982E+01
  7.59869910E+00  7.59869910E+00 -1.51973982E+01  7.59869910E+00  7.59869910E+00
 -1.51973982E+01  7.59869910E+00  7.59869910E+00 -1.51973982E+01  7.59869910E+00
  7.59869910E+00 -1.51973982E+01  7.59869910E+00  7.59869910E+00 -1.51973982E+01
  7.59869910E+00  7.59869910E+00 -1.51973982E+01  7.59869910E+00  7.59869910E+00
 -1.51973982E+01  7.59869910E+00  7.59869910E+00 -1.51973982E+01  7.59869910E+00
  7.59869910E+00 -1.51973982E+01  7.59869910E+00  7.59869910E+00 -1.51973982E+01
  7.59869910E+00  7.59869910E+00 -1.51973982E+01  7.59869910E+00  7.59869910E+00
 -1.51973982E+01  7.59869910E+00  7.59869910E+00 -1.51973982E+01  7.59869910E+00
  7.59869910E+00 -1.51973982E+01  7.59869910E+00  7.59869910E+00 -1.51973982E+01
  7.59869910E+00  7.59869910E+00 -1.51973982E+01  7.59869910E+00  7.59869910E+00
 -1.51973982E+01  7.59869910E+00  7.59869910E+00 -1.51973982E+01  7.59869910E+00
  7.59869910E+00 -1.51973982E+01  7.59869910E+00  7.59869910E+00 -1.51973982E+01
  7.59869910E+00  7.59869910E+00 -1.51973982E+01  7.59869910E+00  7.59869910E+00
 -1.51973982E+01  7.59869910E+00  7.59869910E+00 -1.51973982E+01  7.59869910E+00
  7.59869910E+00 -1.51973982E+01  7.59869910E+00  7.59869910E+00 -1.51973982E+01
  7.59869910E+00  7.59869910E+00 -1.51973982E+01  7.59869910E+00  7.59869910E+00
 -1.51973982E+01  7.59869910E+00  7.59869910E+00 -1.51973982E+01  7.59869910E+00
  7.59869910E+00 -1.51973982E+01  7.59869910E+00  7.59869910E+00 -1.51973982E+01
  7.59869910E+00  7.59869910E+00 -1.51973982E+01  7.59869910E+00  7.59869910E+00
 -1.51973982E+01  7.59869910E+00  7.59869910E+00 -1.51973982E+01  7.59869910E+00
  7.59869910E+00 -1.51973982E+01  7.59869910E+00  7.59869910E+00 -1.51973982E+01
  7.59869910E+00  7.59869910E+00 -1.51973982E+01  7.59869910E+00  7.59869910E+00
 -1.51973982E+01  7.59869910E+00  7.59869910E+00 -1.51973982E+01  7.59869910E+00
  7.59869910E+00 -1.51973982E+01  7.59869910E+00  7.59869910E+00 -1.51973982E+01
  7.59869910E+00  7.59869910E+00 -1.51973982E+01  7.59869910E+00  7.59869910E+00
 -1.51973982E+01  7.59869910E+00  7.59869910E+00 -1.51973982E+01  7.59869910E+00
  7.59869910E+00 -1.51973982E+01  7.59869910E+00  7.59869910E+00 -1.51973982E+01
  7.59869910E+00  7.59869910E+00 -1.51973982E+01  7.59869910E+00  7.59869910E+00
 -1.51973982E+01  7.59869910E+00  7.59869910E+00 -1.51973982E+01  7.59869910E+00
  7.59869910E+00 -1.51973982E+01  7.59869910E+00  7.59869910E+00 -1.51973982E+01
  7.59869910E+00  7.59869910E+00 -1.51973982E+01  7.59869910E+00  7.59869910E+00
 -1.51973982E+01  7.59869910E+00  7.59869910E+00 -1.51973982E+01  7.59869910E+00
  7.59869910E+00 -1.51973982E+01  7.59869910E+00  7.59869910E+00 -1.51973982E+01
  7.59869910E+00  7.59869910E+00 -1.51973982E+01  7.59869910E+00  7.59869910E+00
 -1.51973982E+01  7.59869910E+00  7.59869910E+00 -1.51973982E+01  7.59869910E+00
  7.59869910E+00 -1.51973982E+01  7.59869910E+00  7.59869910E+00 -1.51973982E+01
  7.59869910E+00  7.59869910E+00 -1.51973982E+01  7.59869910E+00  7.59869910E+00
 -1.51973982E+01  7.59869910E+00  7.59869910E+00 -1.51973982E+01  7.59869910E+00
  7.59869910E+00 -1.51973982E+01  7.59869910E+00  7.59869910E+00 -1.51973982E+01
  7.59869910E+00  7.59869910E+00 -1.51973982E+01  7.59869910E+00  7.59869910E+00
 -1.51973982E+01  7.59869910E+00  7.59869910E+00 -1.51973982E+01  7.59869910E+00
  7.59869910E+00 -1.51973982E+01  7.59869910E+00  7.59869910E+00 -1.51973982E+01
  7.59869910E+00  7.59869910E+00 -1.51973982E+01  7.59869910E+00  7.59869910E+00
 -1.51973982E+01  7.59869910E+00  7.59869910E+00 -1.51973982E+01  7.59869910E+00
  7.59869910E+00 -1.51973982E+01  7.59869910E+00  7.59869910E+00 -1.51973982E+01
  7.59869910E+00  7.59869910E+00 -1.51973982E+01  7.59869910E+00  7.59869910E+00
 -1.51973982E+01  7.59869910E+00  7.59869910E+00 -1.51973982E+01  7.59869910E+00
  7.59869910E+00 -1.51973982E+01  7.59869910E+00  7.59869910E+00 -1.51973982E+01
  7.59869910E+00  7.59869910E+00 -1.51973982E+01  7.59869910E+00  7.59869910E+00
 -1.51973982E+01  7.59869910E+00  7.59869910E+00 -1.51973982E+01  7.59869910E+00
  7.59869910E+00 -1.51973982E+01  7.59869910E+00  7.59869910E+00 -1.51973982E+01
  7.59869910E+00  7.59869910E+00 -1.51973982E+01  7.59869910E+00  7.59869910E+00
 -1.51973982E+01  7.59869910E+00  7.59869910E+00 -1.51973982E+01  7.59869910E+00
  7.59869910E+00 -1.51973982E+01  7.59869910E+00  7.59869910E+00 -1.51973982E+01
  7.59869910E+00  7.59869910E+00 -1.51973982E+01  7.59869910E+00  7.59869910E+00
 -1.51973982E+01  7.59869910E+00  7.59869910E+00 -1.51973982E+01  7.59869910E+00
  7.59869910E+00 -1.51973982E+01  7.59869910E+00  7.59869910E+00 -1.51973982E+01
  7.59869910E+00  7.59869910E+00 -1.51973982E+01  7.59869910E+00  7.59869910E+00
 -1.51973982E+01  7.59869910E+00  7.59869910E+00 -1.51973982E+01  7.59869910E+00
  7.59869910E+00 -1.51973982E+01  7.59869910E+00  7.59869910E+00 -1.51973982E+01
  7.59869910E+00  7.59869910E+00 -1.51973982E+01  7.59869910E+00  7.59869910E+00
 -1.51973982E+01  7.59869910E+00  7.59869910E+00 -1.51973982E+01  7.59869910E+00
  7.59869910E+00 -1.51973982E+01  7.59869910E+00  7.59869910E+00 -1.51973982E+01
  7.59869910E+00  7.59869910E+00 -1.51973982E+01  7.59869910E+00  7.59869910E+00
 -1.51973982E+01  7.59869910E+00  7.59869910E+00 -1.51973982E+01  7.59869910E+00
  7.59869910E+00 -1.51973982E+01  7.59869910E+00  7.59869910E+00 -1.51973982E+01
  7.59869910E+00  7.59869910E+00 -1.51973982E+01  7.59869910E+00  7.59869910E+00
 -1.51973982E+01  7.59869910E+00  7.59869910E+00 -1.51973982E+01  7.59869910E+00
  7.59869910E+00 -1.51973982E+01  7.59869910E+00  7.59869910E+00 -1.51973982E+01
  7.59869910E+00  7.59869910E+00 -1.51973982E+01  7.59869910E+00  7.59869910E+00
 -1.51973982E+01  7.59869910E+00  7.59869910E+00 -1.51973982E+01  7.59869910E+00
  7.59869910E+00 -1.51973982E+01  7.59869910E+00  7.59869910E+00 -1.51973982E+01
  7.59869910E+00  7.59869910E+00 -1.51973982E+01  7.59869910E+00  7.59869910E+00
 -1.51973982E+01  7.59869910E+00  7.59869910E+00 -1.51973982E+01  7.59869910E+00
  7.59869910E+00 -1.51973982E+01  7.59869910E+00  7.59869910E+00 -1.51973982E+01
  7.59869910E+00  7.59869910E+00 -1.51973982E+01  7.59869910E+00  7.59869910E+00
 -1.51973982E+01  7.59869910E+00  7.59869910E+00 -1.51973982E+01  7.59869910E+00
  7.59869910E+00 -1.51973982E+01  7.59869910E+00  7.59869910E+00 -1.51973982E+01
  7.59869910E+00  7.59869910E+00 -1.51973982E+01  7.59869910E+00  7.59869910E+00
 -1.51973982E+01  7.59869910E+00  7.59869910E+00 -1.51973982E+01  7.59869910E+00
  7.59869910E+00 -1.51973982E+01  7.59869910E+00  7.59869910E+00 -1.51973982E+01
  7.59869910E+00  7.59869910E+00 -1.51973982E+01  7.59869910E+00  7.59869910E+00
 -1.51973982E+01  7.59869910E+00  7.59869910E+00 -1.51973982E+01  7.59869910E+00
  7.59869910E+00 -1.51973982E+01  7.59869910E+00  7.59869910E+00 -1.51973982E+01
  7.59869910E+00  7.59869910E+00 -1.51973982E+01  7.59869910E+00  7.59869910E+00
 -1.51973982E+01  7.59869910E+00  7.59869910E+00 -1.51973982E+01  7.59869910E+00
  7.59869910E+00 -1.51973982E+01  7.59869910E+00  7.59869910E+00 -1.51973982E+01
  7.59869910E+00  7.59869910E+00 -1.51973982E+01  7.59869910E+00  7.59869910E+00
 -1.51973982E+01  7.59869910E+00  7.59869910E+00 -1.51973982E+01  7.59869910E+00
  7.59869910E+00 -1.51973982E+01  7.59869910E+00  7.59869910E+00 -1.51973982E+01
  7.59869910E+00  7.59869910E+00 -1.51973982E+01  7.59869910E+00  7.59869910E+00
 -1.51973982E+01  7.59869910E+00  7.59869910E+00 -1.51973982E+01  7.59869910E+00
  7.59869910E+00 -1.51973982E+01  7.59869910E+00  7.59869910E+00 -1.51973982E+01
  7.59869910E+00  7.59869910E+00 -1.51973982E+01  7.59869910E+00  7.59869910E+00
 -1.51973982E+01  7.59869910E+00  7.59869910E+00 -1.51973982E+01  7.59869910E+00
  7.59869910E+00 -1.51973982E+01  7.59869910E+00  7.59869910E+00 -1.51973982E+01
  7.59869910E+00  7.59869910E+00 -1.51973982E+01  7.59869910E+00  7.59869910E+00
 -1.51973982E+01  7.59869910E+00  7.59869910E+00 -1.51973982E+01  7.59869910E+00
  7.59869910E+00 -1.51973982E+01  7.59869910E+00  7.59869910E+00 -1.51973982E+01
  7.59869910E+00  7.59869910E+00 -1.51973982E+01  7.59869910E+00  7.59869910E+00
 -1.51973982E+01  7.59869910E+00  7.59869910E+00 -1.51973982E+01  7.59869910E+00
  7.59869910E+00 -1.51973982E+01  7.59869910E+00  7.59869910E+00 -1.51973982E+01
  7.59869910E+00  7.59869910E+00 -1.51973982E+01  7.59869910E+00  7.59869910E+00
 -1.51973982E+01  7.59869910E+00  7.59869910E+00 -1.51973982E+01  7.59869910E+00
  7.59869910E+00 -1.51973982E+01  7.59869910E+00  7.59869910E+00 -1.51973982E+01
  7.59869910E+00  7.59869910E+00 -1.51973982E+01  7.59869910E+00  7.59869910E+00
 -1.51973982E+01  7.59869910E+00  7.59869910E+00 -1.51973982E+01  7.59869910E+00
  7.59869910E+00 -1.51973982E+01  7.59869910E+00  7.59869910E+00 -1.51973982E+01
  7.59869910E+00  7.59869910E+00 -1.51973982E+01  7.59869910E+00  7.59869910E+00
 -1.51973982E+01  7.59869910E+00  7.59869910E+00 -1.51973982E+01  7.59869910E+00
  7.59869910E+00 -1.51973982E+01  7.59869910E+00  7.59869910E+00 -1.51973982E+01
  7.59869910E+00  7.59869910E+00 -1.51973982E+01  7.59869910E+00  7.59869910E+00
 -1.51973982E+01  7.59869910E+00  7.59869910E+00 -1.51973982E+01  7.59869910E+00
  7.59869910E+00 -1.51973982E+01  7.59869910E+00  7.59869910E+00 -1.51973982E+01
  7.59869910E+00  7.59869910E+00 -1.51973982E+01  7.59869910E+00  7.59869910E+00
 -1.51973982E+01  7.59869910E+00  7.59869910E+00 -1.51973982E+01  7.59869910E+00
  7.59869910E+00 -1.51973982E+01  7.59869910E+00  7.59869910E+00 -1.51973982E+01
  7.59869910E+00  7.59869910E+00 -1.51973982E+01  7.59869910E+00  7.59869910E+00
 -1.51973982E+01  7.59869910E+00  7.59869910E+00 -1.51973982E+01  7.59869910E+00
  7.59869910E+00 -1.51973982E+01  7.59869910E+00  7.59869910E+00 -1.51973982E+01
  7.59869910E+00  7.59869910E+00 -1.51973982E+01  7.59869910E+00  7.59869910E+00
 -1.51973982E+01  7.59869910E+00  7.59869910E+00 -1.51973982E+01  7.59869910E+00
  7.59869910E+00 -1.51973982E+01  7.59869910E+00  7.59869910E+00 -1.51973982E+01
  7.59869910E+00  7.59869910E+00 -1.51973982E+01  7.59869910E+00  7.59869910E+00
 -1.51973982E+01  7.59869910E+00  7.59869910E+00 -1.51973982E+01  7.59869910E+00
  7.59869910E+00 -1.51973982E+01  7.59869910E+00  7.59869910E+00 -1.51973982E+01
  7.59869910E+00  7.59869910E+00 -1.51973982E+01  7.59869910E+00  7.59869910E+00
 -1.51973982E+01  7.59869910E+00  7.59869910E+00 -1.51973982E+01  7.59869910E+00
  7.59869910E+00 -1.51973982E+01  7.59869910E+00  7.59869910E+00 -1.51973982E+01
  7.59869910E+00  7.59869910E+00 -1.51973982E+01  7.59869910E+00  7.59869910E+00
 -1.51973982E+01  7.59869910E+00  7.59869910E+00 -1.51973982E+01  7.59869910E+00
  7.59869910E+00 -1.51973982E+01  7.59869910E+00  7.59869910E+00 -1.51973982E+01
  7.59869910E+00  7.59869910E+00 -1.51973982E+01  7.59869910E+00  7.59869910E+00
 -1.51973982E+01  7.59869910E+00  7.59869910E+00 -1.51973982E+01  7.59869910E+00
  7.59869910E+00 -1.51973982E+01  7.59869910E+00  7.59869910E+00 -1.51973982E+01
  7.59869910E+00  7.59869910E+00 -1.51973982E+01  7.59869910E+00  7.59869910E+00
 -1.51973982E+01  7.59869910E+00  7.59869910E+00 -1.51973982E+01  7.59869910E+00
  7.59869910E+00 -1.51973982E+01  7.59869910E+00  7.59869910E+00 -1.51973982E+01
  7.59869910E+00  7.59869910E+00 -1.51973982E+01  7.59869910E+00  7.59869910E+00
 -1.51973982E+01  7.59869910E+00  7.59869910E+00 -1.51973982E+01  7.59869910E+00
  7.59869910E+00 -1.51973982E+01  7.59869910E+00  7.59869910E+00 -1.51973982E+01
  7.59869910E+00  7.59869910E+00 -1.51973982E+01  7.59869910E+00  7.59869910E+00
 -1.51973982E+01  7.59869910E+00  7.59869910E+00 -1.51973982E+01  7.59869910E+00
  7.59869910E+00 -1.51973982E+01  7.59869910E+00  7.59869910E+00 -1.51973982E+01
  7.59869910E+00  7.59869910E+00 -1.51973982E+01  7.59869910E+00  7.59869910E+00
 -1.51973982E+01  7.59869910E+00  7.59869910E+00 -1.51973982E+01  7.59869910E+00
  7.59869910E+00 -1.51973982E+01  7.59869910E+00  7.59869910E+00 -1.51973982E+01
  7.59869910E+00  7.59869910E+00 -1.51973982E+01  7.59869910E+00  7.59869910E+00
 -1.51973982E+01  7.59869910E+00  7.59869910E+00 -1.51973982E+01  7.59869910E+00
  7.59869910E+00 -1.51973982E+01  7.59869910E+00  7.59869910E+00 -1.51973982E+01
  7.59869910E+00  7.59869910E+00 -1.51973982E+01  7.59869910E+00  7.59869910E+00
 -1.51973982E+01  7.59869910E+00  7.59869910E+00 -1.51973982E+01  7.59869910E+00
  7.59869910E+00 -1.51973982E+01  7.59869910E+00  7.59869910E+00 -1.51973982E+01
  7.59869910E+00  7.59869910E+00 -1.51973982E+01  7.59869910E+00  7.59869910E+00
 -1.51973982E+01  7.59869910E+00  7.59869910E+00 -1.51973982E+01  7.59869910E+00
  7.59869910E+00 -1.51973982E+01  7.59869910E+00  7.59869910E+00 -1.51973982E+01
  7.59869910E+00  7.59869910E+00 -1.51973982E+01  7.59869910E+00  7.59869910E+00
 -1.51973982E+01  7.59869910E+00  7.59869910E+00 -1.51973982E+01  7.59869910E+00
  7.59869910E+00 -1.51973982E+01  7.59869910E+00  7.59869910E+00 -1.51973982E+01
  7.59869910E+00  7.59869910E+00 -1.51973982E+01  7.59869910E+00  7.59869910E+00
 -1.51973982E+01  7.59869910E+00  7.59869910E+00 -1.51973982E+01  7.59869910E+00
  7.59869910E+00 -1.51973982E+01  7.59869910E+00  7.59869910E+00 -1.51973982E+01
  7.59869910E+00  7.59869910E+00 -1.51973982E+01  7.59869910E+00  7.59869910E+00
 -1.51973982E+01  7.59869910E+00  7.59869910E+00 -1.51973982E+01  7.59869910E+00
  7.59869910E+00 -1.51973982E+01  7.59869910E+00  7.59869910E+00 -1.51973982E+01
  7.59869910E+00  7.59869910E+00 -1.51973982E+01  7.59869910E+00  7.59869910E+00
 -1.51973982E+01  7.59869910E+00  7.59869910E+00 -1.51973982E+01  7.59869910E+00
  7.59869910E+00 -1.51973982E+01  7.59869910E+00  7.59869910E+00 -1.51973982E+01
  7.59869910E+00  7.59869910E+00 -1.51973982E+01  7.59869910E+00  7.59869910E+00
 -1.51973982E+01  7.59869910E+00  7.59869910E+00 -1.51973982E+01  7.59869910E+00
  7.59869910E+00 -1.51973982E+01  7.59869910E+00  7.59869910E+00 -1.51973982E+01
  7.59869910E+00  7.59869910E+00 -1.51973982E+01  7.59869910E+00  7.59869910E+00
 -1.51973982E+01  7.59869910E+00  7.59869910E+00 -1.51973982E+01  7.59869910E+00
  7.59869910E+00 -1.51973982E+01  7.59869910E+00  7.59869910E+00 -1.51973982E+01
  7.59869910E+00  7.59869910E+00 -1.51973982E+01  7.59869910E+00  7.59869910E+00
 -1.51973982E+01  7.59869910E+00  7.59869910E+00 -1.51973982E+01  7.59869910E+00
  7.59869910E+00 -1.51973982E+01  7.59869910E+00  7.59869910E+00 -1.51973982E+01
  7.59869910E+00  7.59869910E+00 -1.51973982E+01  7.59869910E+00  7.59869910E+00
 -1.51973982E+01  7.59869910E+00  7.59869910E+00 -1.51973982E+01  7.59869910E+00
  7.59869910E+00 -1.51973982E+01  7.59869910E+00  7.59869910E+00 -1.51973982E+01
  7.59869910E+00  7.59869910E+00 -1.51973982E+01  7.59869910E+00  7.59869910E+00
 -1.51973982E+01  7.59869910E+00  7.59869910E+00 -1.51973982E+01  7.59869910E+00
  7.59869910E+00 -1.51973982E+01  7.59869910E+00  7.59869910E+00 -1.51973982E+01
  7.59869910E+00  7.59869910E+00 -1.51973982E+01  7.59869910E+00  7.59869910E+00
 -1.51973982E+01  7.59869910E+00  7.59869910E+00 -1.51973982E+01  7.59869910E+00
  7.59869910E+00 -1.51973982E+01  7.59869910E+00  7.59869910E+00 -1.51973982E+01
  7.59869910E+00  7.59869910E+00 -1.51973982E+01  7.59869910E+00  7.59869910E+00
 -1.51973982E+01  7.59869910E+00  7.59869910E+00 -1.51973982E+01  7.59869910E+00
  7.59869910E+00 -1.51973982E+01  7.59869910E+00  7.59869910E+00 -1.51973982E+01
  7.59869910E+00  7.59869910E+00 -1.51973982E+01  7.59869910E+00  7.59869910E+00
 -1.51973982E+01  7.59869910E+00  7.59869910E+00 -1.51973982E+01  7.59869910E+00
  7.59869910E+00 -1.51973982E+01  7.59869910E+00  7.59869910E+00 -1.51973982E+01
  7.59869910E+00  7.59869910E+00 -1.51973982E+01  7.59869910E+00  7.59869910E+00
 -1.51973982E+01  7.59869910E+00  7.59869910E+00 -1.51973982E+01  7.59869910E+00
  7.59869910E+00 -1.51973982E+01  7.59869910E+00  7.59869910E+00 -1.51973982E+01
  7.59869910E+00  7.59869910E+00 -1.51973982E+01  7.59869910E+00  7.59869910E+00
 -1.51973982E+01  7.59869910E+00  7.59869910E+00 -1.51973982E+01  7.59869910E+00
  7.59869910E+00 -1.51973982E+01  7.59869910E+00  7.59869910E+00 -1.51973982E+01
  7.59869910E+00  7.59869910E+00 -1.51973982E+01  7.59869910E+00  7.59869910E+00
 -1.51973982E+01  7.59869910E+00  7.59869910E+00 -1.51973982E+01  7.59869910E+00
  7.59869910E+00 -1.51973982E+01  7.59869910E+00  7.59869910E+00 -1.51973982E+01
  7.59869910E+00  7.59869910E+00 -1.51973982E+01  7.59869910E+00  7.59869910E+00
 -1.51973982E+01  7.59869910E+00  7.59869910E+00 -1.51973982E+01  7.59869910E+00
  7.59869910E+00 -1.51973982E+01  7.59869910E+00  7.59869910E+00 -1.51973982E+01
  7.59869910E+00  7.59869910E+00 -1.51973982E+01  7.59869910E+00  7.59869910E+00
 -1.51973982E+01  7.59869910E+00  7.59869910E+00 -1.51973982E+01  7.59869910E+00
  7.59869910E+00 -1.51973982E+01  7.59869910E+00  7.59869910E+00 -1.51973982E+01
  7.59869910E+00  7.59869910E+00 -1.51973982E+01  7.59869910E+00  7.59869910E+00
 -1.51973982E+01  7.59869910E+00  7.59869910E+00 -1.51973982E+01  7.59869910E+00
  7.59869910E+00 -1.51973982E+01  7.59869910E+00  7.59869910E+00 -1.51973982E+01
  7.59869910E+00  7.59869910E+00 -1.51973982E+01  7.59869910E+00  7.59869910E+00
 -1.51973982E+01  7.59869910E+00  7.59869910E+00 -1.51973982E+01  7.59869910E+00
  7.59869910E+00 -1.51973982E+01  7.59869910E+00  7.59869910E+00 -1.51973982E+01
  7.59869910E+00  7.59869910E+00 -1.51973982E+01  7.59869910E+00  7.59869910E+00
 -1.51973982E+01  7.59869910E+00  7.59869910E+00 -1.51973982E+01  7.59869910E+00
  7.59869910E+00 -1.51973982E+01  7.59869910E+00  7.59869910E+00 -1.51973982E+01
  7.59869910E+00  7.59869910E+00 -1.51973982E+01  7.59869910E+00  7.59869910E+00
 -1.51973982E+01  7.59869910E+00  7.59869910E+00 -1.51973982E+01  7.59869910E+00
  7.59869910E+00 -1.51973982E+01  7.59869910E+00  7.59869910E+00 -1.51973982E+01
  7.59869910E+00  7.59869910E+00 -1.51973982E+01  7.59869910E+00  7.59869910E+00
 -1.51973982E+01  7.59869910E+00  7.59869910E+00 -1.51973982E+01  7.59869910E+00
  7.59869910E+00 -1.51973982E+01  7.59869910E+00  7.59869910E+00 -1.51973982E+01
  7.59869910E+00  7.59869910E+00 -1.51973982E+01  7.59869910E+00  7.59869910E+00
 -1.51973982E+01  7.59869910E+00  7.59869910E+00 -1.51973982E+01  7.59869910E+00
  7.59869910E+00 -1.51973982E+01  7.59869910E+00  7.59869910E+00 -1.51973982E+01
  7.59869910E+00  7.59869910E+00 -1.51973982E+01  7.59869910E+00  7.59869910E+00
 -1.51973982E+01  7.59869910E+00  7.59869910E+00 -1.51973982E+01  7.59869910E+00
  7.59869910E+00 -1.51973982E+01  7.59869910E+00  7.59869910E+00 -1.51973982E+01
  7.59869910E+00  7.59869910E+00 -1.51973982E+01  7.59869910E+00  7.59869910E+00
 -1.51973982E+01  7.59869910E+00  7.59869910E+00 -1.51973982E+01  7.59869910E+00
  7.59869910E+00 -1.51973982E+01  7.59869910E+00  7.59869910E+00 -1.51973982E+01
  7.59869910E+00  7.59869910E+00 -1.51973982E+01  7.59869910E+00  7.59869910E+00
 -1.51973982E+01  7.59869910E+00  7.59869910E+00 -1.51973982E+01  7.59869910E+00
  7.59869910E+00 -1.51973982E+01  7.59869910E+00  7.59869910E+00 -1.51973982E+01
  7.59869910E+00  7.59869910E+00 -1.51973982E+01  7.59869910E+00  7.59869910E+00
 -1.51973982E+01  7.59869910E+00  7.59869910E+00 -1.51973982E+01  7.59869910E+00
  7.59869910E+00 -1.51973982E+01  7.59869910E+00  7.59869910E+00 -1.51973982E+01
  7.59869910E+00  7.59869910E+00 -1.51973982E+01  7.59869910E+00  7.59869910E+00
 -1.51973982E+01  7.59869910E+00  7.59869910E+00 -1.51973982E+01  7.59869910E+00
  7.59869910E+00 -1.51973982E+01  7.59869910E+00  7.59869910E+00 -1.51973982E+01
  7.59869910E+00  7.59869910E+00 -1.51973982E+01  7.59869910E+00  7.59869910E+00
 -1.51973982E+01  7.59869910E+00  7.59869910E+00 -1.51973982E+01  7.59869910E+00
  7.59869910E+00 -1.51973982E+01  7.59869910E+00  7.59869910E+00 -1.51973982E+01
  7.59869910E+00  7.59869910E+00 -1.51973982E+01  7.59869910E+00  7.59869910E+00
 -1.51973982E+01  7.59869910E+00  7.59869910E+00 -1.51973982E+01  7.59869910E+00
  7.59869910E+00 -1.51973982E+01  7.59869910E+00  7.59869910E+00 -1.51973982E+01
  7.59869910E+00  7.59869910E+00 -1.51973982E+01  7.59869910E+00  7.59869910E+00
 -1.51973982E+01  7.59869910E+00  7.59869910E+00 -1.51973982E+01  7.59869910E+00
  7.59869910E+00 -1.51973982E+01  7.59869910E+00  7.59869910E+00 -1.51973982E+01
  7.59869910E+00  7.59869910E+00 -1.51973982E+01  7.59869910E+00  7.59869910E+00
 -1.51973982E+01  7.59869910E+00  7.59869910E+00 -1.51973982E+01  7.59869910E+00
  7.59869910E+00 -1.51973982E+01  7.59869910E+00  7.59869910E+00 -1.51973982E+01
  7.59869910E+00  7.59869910E+00 -1.51973982E+01  7.59869910E+00  7.59869910E+00
 -1.51973982E+01  7.59869910E+00  7.59869910E+00 -1.51973982E+01  7.59869910E+00
  7.59869910E+00 -1.51973982E+01  7.59869910E+00  7.59869910E+00 -1.51973982E+01
  7.59869910E+00  7.59869910E+00 -1.51973982E+01  7.59869910E+00  7.59869910E+00
 -1.51973982E+01  7.59869910E+00  7.59869910E+00 -1.51973982E+01  7.59869910E+00
  7.59869910E+00 -1.51973982E+01  7.59869910E+00  7.59869910E+00 -1.51973982E+01
  7.59869910E+00  7.59869910E+00 -1.51973982E+01  7.59869910E+00  7.59869910E+00
 -1.51973982E+01  7.59869910E+00  7.59869910E+00 -1.51973982E+01  7.59869910E+00
  7.59869910E+00 -1.51973982E+01  7.59869910E+00  7.59869910E+00 -1.51973982E+01
  7.59869910E+00  7.59869910E+00 -1.51973982E+01  7.59869910E+00  7.59869910E+00
 -1.51973982E+01  7.59869910E+00  7.59869910E+00 -1.51973982E+01  7.59869910E+00
  7.59869910E+00 -1.51973982E+01  7.59869910E+00  7.59869910E+00 -1.51973982E+01
  7.59869910E+00  7.59869910E+00 -1.51973982E+01  7.59869910E+00  7.59869910E+00
 -1.51973982E+01  7.59869910E+00  7.59869910E+00 -1.51973982E+01  7.59869910E+00
  7.59869910E+00 -1.51973982E+01  7.59869910E+00  7.59869910E+00 -1.51973982E+01
  7.59869910E+00  7.59869910E+00 -1.51973982E+01  7.59869910E+00  7.59869910E+00
 -1.51973982E+01  7.59869910E+00  7.59869910E+00 -1.51973982E+01  7.59869910E+00
  7.59869910E+00 -1.51973982E+01  7.59869910E+00  7.59869910E+00 -1.51973982E+01
  7.59869910E+00  7.59869910E+00 -1.51973982E+01  7.59869910E+00  7.59869910E+00
 -1.51973982E+01  7.59869910E+00  7.59869910E+00 -1.51973982E+01  7.59869910E+00
  7.59869910E+00 -1.51973982E+01  7.59869910E+00  7.59869910E+00 -1.51973982E+01
  7.59869910E+00  7.59869910E+00 -1.51973982E+01  7.59869910E+00  7.59869910E+00
 -1.51973982E+01  7.59869910E+00  7.59869910E+00 -1.51973982E+01  7.59869910E+00
  7.59869910E+00 -1.51973982E+01  7.59869910E+00  7.59869910E+00 -1.51973982E+01
  7.59869910E+00  7.59869910E+00 -1.51973982E+01  7.59869910E+00  7.59869910E+00
 -1.51973982E+01  7.59869910E+00  7.59869910E+00 -1.51973982E+01  7.59869910E+00
  7.59869910E+00 -1.51973982E+01  7.59869910E+00  7.59869910E+00 -1.51973982E+01
  7.59869910E+00  7.59869910E+00 -1.51973982E+01  7.59869910E+00  7.59869910E+00
 -1.51973982E+01  7.59869910E+00  7.59869910E+00 -1.51973982E+01  7.59869910E+00
  7.59869910E+00 -1.51973982E+01  7.59869910E+00  7.59869910E+00 -1.51973982E+01
  7.59869910E+00  7.59869910E+00 -1.51973982E+01  7.59869910E+00  7.59869910E+00
 -1.51973982E+01  7.59869910E+00  7.59869910E+00 -1.51973982E+01  7.59869910E+00
  7.59869910E+00 -1.51973982E+01  7.59869910E+00  7.59869910E+00 -1.51973982E+01
  7.59869910E+00  7.59869910E+00 -1.51973982E+01  7.59869910E+00  7.59869910E+00
 -1.51973982E+01  7.59869910E+00  7.59869910E+00 -1.51973982E+01  7.59869910E+00
  7.59869910E+00 -1.51973982E+01  7.59869910E+00  7.59869910E+00 -1.51973982E+01
  7.59869910E+00  7.59869910E+00 -1.51973982E+01  7.59869910E+00  7.59869910E+00
 -1.51973982E+01  7.59869910E+00  7.59869910E+00 -1.51973982E+01  7.59869910E+00
  7.59869910E+00 -1.51973982E+01  7.59869910E+00  7.59869910E+00 -1.51973982E+01
  7.59869910E+00  7.59869910E+00 -1.51973982E+01  7.59869910E+00  7.59869910E+00
 -1.51973982E+01  7.59869910E+00  7.59869910E+00 -1.51973982E+01  7.59869910E+00
  7.59869910E+00 -1.51973982E+01  7.59869910E+00  7.59869910E+00 -1.51973982E+01
  7.59869910E+00  7.59869910E+00 -1.51973982E+01  7.59869910E+00  7.59869910E+00
 -1.51973982E+01  7.59869910E+00  7.59869910E+00 -1.51973982E+01  7.59869910E+00
  7.59869910E+00 -1.51973982E+01  7.59869910E+00  7.59869910E+00 -1.51973982E+01
  7.59869910E+00  7.59869910E+00 -1.51973982E+01  7.59869910E+00  7.59869910E+00
 -1.51973982E+01  7.59869910E+00  7.59869910E+00 -1.51973982E+01  7.59869910E+00
  7.59869910E+00 -1.51973982E+01  7.59869910E+00  7.59869910E+00 -1.51973982E+01
  7.59869910E+00  7.59869910E+00 -1.51973982E+01  7.59869910E+00  7.59869910E+00
 -1.51973982E+01  7.59869910E+00  7.59869910E+00 -1.51973982E+01  7.59869910E+00
  7.59869910E+00 -1.51973982E+01  7.59869910E+00  7.59869910E+00 -1.51973982E+01
  7.59869910E+00  7.59869910E+00 -1.51973982E+01  7.59869910E+00  7.59869910E+00
 -1.51973982E+01  7.59869910E+00  7.59869910E+00 -1.51973982E+01  7.59869910E+00
  7.59869910E+00 -1.51973982E+01  7.59869910E+00  7.59869910E+00 -1.51973982E+01
  7.59869910E+00  7.59869910E+00 -1.51973982E+01  7.59869910E+00  7.59869910E+00
 -1.51973982E+01  7.59869910E+00  7.59869910E+00 -1.51973982E+01  7.59869910E+00
  7.59869910E+00 -1.51973982E+01  7.59869910E+00  7.59869910E+00 -1.51973982E+01
  7.59869910E+00  7.59869910E+00 -1.51973982E+01  7.59869910E+00  7.59869910E+00
 -1.51973982E+01  7.59869910E+00  7.59869910E+00 -1.51973982E+01  7.59869910E+00
  7.59869910E+00 -1.51973982E+01  7.59869910E+00  7.59869910E+00 -1.51973982E+01
  7.59869910E+00  7.59869910E+00 -1.51973982E+01  7.59869910E+00  7.59869910E+00
 -1.51973982E+01  7.59869910E+00  7.59869910E+00 -1.51973982E+01  7.59869910E+00
  7.59869910E+00 -1.51973982E+01  7.59869910E+00  7.59869910E+00 -1.51973982E+01
  7.59869910E+00  7.59869910E+00 -1.51973982E+01  7.59869910E+00  7.59869910E+00
 -1.51973982E+01  7.59869910E+00  7.59869910E+00 -1.51973982E+01  7.59869910E+00
  7.59869910E+00 -1.51973982E+01  7.59869910E+00  7.59869910E+00 -1.51973982E+01
  7.59869910E+00  7.59869910E+00 -1.51973982E+01  7.59869910E+00  7.59869910E+00
 -1.51973982E+01  7.59869910E+00  7.59869910E+00 -1.51973982E+01  7.59869910E+00
  7.59869910E+00 -1.51973982E+01  7.59869910E+00  7.59869910E+00 -1.51973982E+01
  7.59869910E+00  7.59869910E+00 -1.51973982E+01  7.59869910E+00  7.59869910E+00
 -1.51973982E+01  7.59869910E+00  7.59869910E+00 -1.51973982E+01  7.59869910E+00
  7.59869910E+00 -1.51973982E+01  7.59869910E+00  7.59869910E+00 -1.51973982E+01
  7.59869910E+00  7.59869910E+00 -1.51973982E+01  7.59869910E+00  7.59869910E+00
 -1.51973982E+01  7.59869910E+00  7.59869910E+00 -1.51973982E+01  7.59869910E+00
  7.59869910E+00 -1.51973982E+01  7.59869910E+00  7.59869910E+00 -1.51973982E+01
  7.59869910E+00  7.59869910E+00 -1.51973982E+01  7.59869910E+00  7.59869910E+00
 -1.51973982E+01  7.59869910E+00  7.59869910E+00 -1.51973982E+01  7.59869910E+00
  7.59869910E+00 -1.51973982E+01  7.59869910E+00  7.59869910E+00 -1.51973982E+01
  7.59869910E+00  7.59869910E+00 -1.51973982E+01  7.59869910E+00  7.59869910E+00
 -1.51973982E+01  7.59869910E+00  7.59869910E+00 -1.51973982E+01  7.59869910E+00
  7.59869910E+00 -1.51973982E+01  7.59869910E+00  7.59869910E+00 -1.51973982E+01
  7.59869910E+00  7.59869910E+00 -1.51973982E+01  7.59869910E+00  7.59869910E+00
 -1.51973982E+01  7.59869910E+00  7.59869910E+00 -1.51973982E+01  7.59869910E+00
  7.59869910E+00 -1.51973982E+01  7.59869910E+00  7.59869910E+00 -1.51973982E+01
  7.59869910E+00  7.59869910E+00 -1.51973982E+01  7.59869910E+00  7.59869910E+00
 -1.51973982E+01  7.59869910E+00  7.59869910E+00 -1.51973982E+01  7.59869910E+00
  7.59869910E+00 -1.51973982E+01  7.59869910E+00  7.59869910E+00 -1.51973982E+01
  7.59869910E+00  7.59869910E+00 -1.51973982E+01  7.59869910E+00  7.59869910E+00
 -1.51973982E+01  7.59869910E+00  7.59869910E+00 -1.51973982E+01  7.59869910E+00
  7.59869910E+00 -1.51973982E+01  7.59869910E+00  7.59869910E+00 -1.51973982E+01
  7.59869910E+00  7.59869910E+00 -1.51973982E+01  7.59869910E+00  7.59869910E+00
 -1.51973982E+01  7.59869910E+00  7.59869910E+00 -1.51973982E+01  7.59869910E+00
  7.59869910E+00 -1.51973982E+01  7.59869910E+00  7.59869910E+00 -1.51973982E+01
  7.59869910E+00  7.59869910E+00 -1.51973982E+01  7.59869910E+00  7.59869910E+00
 -1.51973982E+01  7.59869910E+00  7.59869910E+00 -1.51973982E+01  7.59869910E+00
  7.59869910E+00 -1.51973982E+01  7.59869910E+00  7.59869910E+00 -1.51973982E+01
  7.59869910E+00  7.59869910E+00 -1.51973982E+01  7.59869910E+00  7.59869910E+00
 -1.51973982E+01  7.59869910E+00  7.59869910E+00 -1.51973982E+01  7.59869910E+00
  7.59869910E+00 -1.51973982E+01  7.59869910E+00  7.59869910E+00 -1.51973982E+01
  7.59869910E+00  7.59869910E+00 -1.51973982E+01  7.59869910E+00  7.59869910E+00
 -1.51973982E+01  7.59869910E+00  7.59869910E+00 -1.51973982E+01  7.59869910E+00
  7.59869910E+00 -1.51973982E+01  7.59869910E+00  7.59869910E+00 -1.51973982E+01
  7.59869910E+00  7.59869910E+00 -1.51973982E+01  7.59869910E+00  7.59869910E+00
 -1.51973982E+01  7.59869910E+00  7.59869910E+00 -1.51973982E+01  7.59869910E+00
  7.59869910E+00 -1.51973982E+01  7.59869910E+00  7.59869910E+00 -1.51973982E+01
  7.59869910E+00  7.59869910E+00 -1.51973982E+01  7.59869910E+00  7.59869910E+00
 -1.51973982E+01  7.59869910E+00  7.59869910E+00 -1.51973982E+01  7.59869910E+00
  7.59869910E+00 -1.51973982E+01  7.59869910E+00  7.59869910E+00 -1.51973982E+01
  7.59869910E+00  7.59869910E+00 -1.51973982E+01  7.59869910E+00  7.59869910E+00
 -1.51973982E+01  7.59869910E+00  7.59869910E+00 -1.51973982E+01  7.59869910E+00
  7.59869910E+00 -1.51973982E+01  7.59869910E+00  7.59869910E+00 -1.51973982E+01
  7.59869910E+00  7.59869910E+00 -1.51973982E+01  7.59869910E+00  7.59869910E+00
 -1.51973982E+01  7.59869910E+00  7.59869910E+00 -1.51973982E+01  7.59869910E+00
  7.59869910E+00 -1.51973982E+01  7.59869910E+00  7.59869910E+00 -1.51973982E+01
  7.59869910E+00  7.59869910E+00 -1.51973982E+01  7.59869910E+00  7.59869910E+00
 -1.51973982E+01  7.59869910E+00  7.59869910E+00 -1.51973982E+01  7.59869910E+00
  7.59869910E+00 -1.51973982E+01  7.59869910E+00  7.59869910E+00 -1.51973982E+01
  7.59869910E+00  7.59869910E+00 -1.51973982E+01  7.59869910E+00  7.59869910E+00
 -1.51973982E+01  7.59869910E+00  7.59869910E+00 -1.51973982E+01  7.59869910E+00
  7.59869910E+00 -1.51973982E+01  7.59869910E+00  7.59869910E+00 -1.51973982E+01
  7.59869910E+00  7.59869910E+00 -1.51973982E+01  7.59869910E+00  7.59869910E+00
 -1.51973982E+01  7.59869910E+00  7.59869910E+00 -1.51973982E+01  7.59869910E+00
  7.59869910E+00 -1.51973982E+01  7.59869910E+00  7.59869910E+00 -1.51973982E+01
  7.59869910E+00  7.59869910E+00 -1.51973982E+01  7.59869910E+00  7.59869910E+00
 -1.51973982E+01  7.59869910E+00  7.59869910E+00 -1.51973982E+01  7.59869910E+00
  7.59869910E+00 -1.51973982E+01  7.59869910E+00  7.59869910E+00 -1.51973982E+01
  7.59869910E+00  7.59869910E+00 -1.51973982E+01  7.59869910E+00  7.59869910E+00
 -1.51973982E+01  7.59869910E+00  7.59869910E+00 -1.51973982E+01  7.59869910E+00
  7.59869910E+00 -1.51973982E+01  7.59869910E+00  7.59869910E+00 -1.51973982E+01
  7.59869910E+00  7.59869910E+00 -1.51973982E+01  7.59869910E+00  7.59869910E+00
 -1.51973982E+01  7.59869910E+00  7.59869910E+00 -1.51973982E+01  7.59869910E+00
  7.59869910E+00 -1.51973982E+01  7.59869910E+00  7.59869910E+00 -1.51973982E+01
  7.59869910E+00  7.59869910E+00 -1.51973982E+01  7.59869910E+00  7.59869910E+00
 -1.51973982E+01  7.59869910E+00  7.59869910E+00 -1.51973982E+01  7.59869910E+00
  7.59869910E+00 -1.51973982E+01  7.59869910E+00  7.59869910E+00 -1.51973982E+01
  7.59869910E+00  7.59869910E+00 -1.51973982E+01  7.59869910E+00  7.59869910E+00
 -1.51973982E+01  7.59869910E+00  7.59869910E+00 -1.51973982E+01  7.59869910E+00
  7.59869910E+00 -1.51973982E+01  7.59869910E+00  7.59869910E+00 -1.51973982E+01
  7.59869910E+00  7.59869910E+00 -1.51973982E+01  7.59869910E+00  7.59869910E+00
 -1.51973982E+01  7.59869910E+00  7.59869910E+00 -1.51973982E+01  7.59869910E+00
  7.59869910E+00 -1.51973982E+01  7.59869910E+00  7.59869910E+00 -1.51973982E+01
  7.59869910E+00  7.59869910E+00 -1.51973982E+01  7.59869910E+00  7.59869910E+00
 -1.51973982E+01  7.59869910E+00  7.59869910E+00 -1.51973982E+01  7.59869910E+00
  7.59869910E+00 -1.51973982E+01  7.59869910E+00  7.59869910E+00 -1.51973982E+01
  7.59869910E+00  7.59869910E+00 -1.51973982E+01  7.59869910E+00  7.59869910E+00
 -1.51973982E+01  7.59869910E+00  7.59869910E+00 -1.51973982E+01  7.59869910E+00
  7.59869910E+00 -1.51973982E+01  7.59869910E+00  7.59869910E+00 -1.51973982E+01
  7.59869910E+00  7.59869910E+00 -1.51973982E+01  7.59869910E+00  7.59869910E+00
 -1.51973982E+01  7.59869910E+00  7.59869910E+00 -1.51973982E+01  7.59869910E+00
  7.59869910E+00 -1.51973982E+01  7.59869910E+00  7.59869910E+00 -1.51973982E+01
  7.59869910E+00  7.59869910E+00 -1.51973982E+01  7.59869910E+00  7.59869910E+00
 -1.51973982E+01  7.59869910E+00  7.59869910E+00 -1.51973982E+01  7.59869910E+00
  7.59869910E+00 -1.51973982E+01  7.59869910E+00  7.59869910E+00 -1.51973982E+01
  7.59869910E+00  7.59869910E+00 -1.51973982E+01  7.59869910E+00  7.59869910E+00
 -1.51973982E+01  7.59869910E+00  7.59869910E+00 -1.51973982E+01  7.59869910E+00
  7.59869910E+00 -1.51973982E+01  7.59869910E+00  7.59869910E+00 -1.51973982E+01
  7.59869910E+00  7.59869910E+00 -1.51973982E+01  7.59869910E+00  7.59869910E+00
 -1.51973982E+01  7.59869910E+00  7.59869910E+00 -1.51973982E+01  7.59869910E+00
  7.59869910E+00 -1.51973982E+01  7.59869910E+00  7.59869910E+00 -1.51973982E+01
  7.59869910E+00  7.59869910E+00 -1.51973982E+01  7.59869910E+00  7.59869910E+00
 -1.51973982E+01  7.59869910E+00  7.59869910E+00 -1.51973982E+01  7.59869910E+00
  7.59869910E+00 -1.51973982E+01  7.59869910E+00  7.59869910E+00 -1.51973982E+01
  7.59869910E+00  7.59869910E+00 -1.51973982E+01  7.59869910E+00  7.59869910E+00
 -1.51973982E+01  7.59869910E+00  7.59869910E+00 -1.51973982E+01  7.59869910E+00
  7.59869910E+00 -1.51973982E+01  7.59869910E+00  7.59869910E+00 -1.51973982E+01
  7.59869910E+00  7.59869910E+00 -1.51973982E+01  7.59869910E+00  7.59869910E+00
 -1.51973982E+01  7.59869910E+00  7.59869910E+00 -1.51973982E+01  7.59869910E+00
  7.59869910E+00 -1.51973982E+01  7.59869910E+00  7.59869910E+00 -1.51973982E+01
  7.59869910E+00  7.59869910E+00 -1.51973982E+01  7.59869910E+00  7.59869910E+00
 -1.51973982E+01  7.59869910E+00  7.59869910E+00 -1.51973982E+01  7.59869910E+00
  7.59869910E+00 -1.51973982E+01  7.59869910E+00  7.59869910E+00 -1.51973982E+01
  7.59869910E+00  7.59869910E+00 -1.51973982E+01  7.59869910E+00  7.59869910E+00
 -1.51973982E+01  7.59869910E+00  7.59869910E+00 -1.51973982E+01  7.59869910E+00
  7.59869910E+00 -1.51973982E+01  7.59869910E+00  7.59869910E+00 -1.51973982E+01
  7.59869910E+00  7.59869910E+00 -1.51973982E+01  7.59869910E+00  7.59869910E+00
 -1.51973982E+01  7.59869910E+00  7.59869910E+00 -1.51973982E+01  7.59869910E+00
  7.59869910E+00 -1.51973982E+01  7.59869910E+00  7.59869910E+00 -1.51973982E+01
  7.59869910E+00  7.59869910E+00 -1.51973982E+01  7.59869910E+00  7.59869910E+00
 -1.51973982E+01  7.59869910E+00  7.59869910E+00 -1.51973982E+01  7.59869910E+00
  7.59869910E+00 -1.51973982E+01  7.59869910E+00  7.59869910E+00 -1.51973982E+01
  7.59869910E+00  7.59869910E+00 -1.51973982E+01  7.59869910E+00  7.59869910E+00
 -1.51973982E+01  7.59869910E+00  7.59869910E+00 -1.51973982E+01  7.59869910E+00
  7.59869910E+00 -1.51973982E+01  7.59869910E+00  7.59869910E+00 -1.51973982E+01
  7.59869910E+00  7.59869910E+00 -1.51973982E+01  7.59869910E+00  7.59869910E+00
 -1.51973982E+01  7.59869910E+00  7.59869910E+00 -1.51973982E+01  7.59869910E+00
  7.59869910E+00 -1.51973982E+01  7.59869910E+00  7.59869910E+00 -1.51973982E+01
  7.59869910E+00  7.59869910E+00 -1.51973982E+01  7.59869910E+00  7.59869910E+00
 -1.51973982E+01  7.59869910E+00  7.59869910E+00 -1.51973982E+01  7.59869910E+00
  7.59869910E+00 -1.51973982E+01  7.59869910E+00  7.59869910E+00 -1.51973982E+01
  7.59869910E+00  7.59869910E+00 -1.51973982E+01  7.59869910E+00  7.59869910E+00
 -1.51973982E+01  7.59869910E+00  7.59869910E+00 -1.51973982E+01  7.59869910E+00
  7.59869910E+00 -1.51973982E+01  7.59869910E+00  7.59869910E+00 -1.51973982E+01
  7.59869910E+00  7.59869910E+00 -1.51973982E+01  7.59869910E+00  7.59869910E+00
 -1.51973982E+01  7.59869910E+00  7.59869910E+00 -1.51973982E+01  7.59869910E+00
  7.59869910E+00 -1.51973982E+01  7.59869910E+00  7.59869910E+00 -1.51973982E+01
  7.59869910E+00  7.59869910E+00 -1.51973982E+01  7.59869910E+00  7.59869910E+00
 -1.51973982E+01  7.59869910E+00  7.59869910E+00 -1.51973982E+01  7.59869910E+00
  7.59869910E+00 -1.51973982E+01  7.59869910E+00  7.59869910E+00 -1.51973982E+01
  7.59869910E+00  7.59869910E+00 -1.51973982E+01  7.59869910E+00  7.59869910E+00
 -1.51973982E+01  7.59869910E+00  7.59869910E+00 -1.51973982E+01  7.59869910E+00
  7.59869910E+00 -1.51973982E+01  7.59869910E+00  7.59869910E+00 -1.51973982E+01
  7.59869910E+00  7.59869910E+00 -1.51973982E+01  7.59869910E+00  7.59869910E+00
 -1.51973982E+01  7.59869910E+00  7.59869910E+00 -1.51973982E+01  7.59869910E+00
  7.59869910E+00 -1.51973982E+01  7.59869910E+00  7.59869910E+00 -1.51973982E+01
  7.59869910E+00  7.59869910E+00 -1.51973982E+01  7.59869910E+00  7.59869910E+00
 -1.51973982E+01  7.59869910E+00  7.59869910E+00 -1.51973982E+01  7.59869910E+00
  7.59869910E+00 -1.51973982E+01  7.59869910E+00  7.59869910E+00 -1.51973982E+01
  7.59869910E+00  7.59869910E+00 -1.51973982E+01  7.59869910E+00  7.59869910E+00
 -1.51973982E+01  7.59869910E+00  7.59869910E+00 -1.51973982E+01  7.59869910E+00
  7.59869910E+00 -1.51973982E+01  7.59869910E+00  7.59869910E+00 -1.51973982E+01
  7.59869910E+00  7.59869910E+00 -1.51973982E+01  7.59869910E+00  7.59869910E+00
 -1.51973982E+01  7.59869910E+00  7.59869910E+00 -1.51973982E+01  7.59869910E+00
  7.59869910E+00 -1.51973982E+01  7.59869910E+00  7.59869910E+00 -1.51973982E+01
  7.59869910E+00  7.59869910E+00 -1.51973982E+01  7.59869910E+00  7.59869910E+00
 -1.51973982E+01  7.59869910E+00  7.59869910E+00 -1.51973982E+01  7.59869910E+00
  7.59869910E+00 -1.51973982E+01  7.59869910E+00  7.59869910E+00 -1.51973982E+01
  7.59869910E+00  7.59869910E+00 -1.51973982E+01  7.59869910E+00  7.59869910E+00
 -1.51973982E+01  7.59869910E+00  7.59869910E+00 -1.51973982E+01  7.59869910E+00
  7.59869910E+00 -1.51973982E+01  7.59869910E+00  7.59869910E+00 -1.51973982E+01
  7.59869910E+00  7.59869910E+00 -1.51973982E+01  7.59869910E+00  7.59869910E+00
 -1.51973982E+01  7.59869910E+00  7.59869910E+00 -1.51973982E+01  7.59869910E+00
  7.59869910E+00 -1.51973982E+01  7.59869910E+00  7.59869910E+00 -1.51973982E+01
  7.59869910E+00  7.59869910E+00 -1.51973982E+01  7.59869910E+00  7.59869910E+00
 -1.51973982E+01  7.59869910E+00  7.59869910E+00 -1.51973982E+01  7.59869910E+00
  7.59869910E+00 -1.51973982E+01  7.59869910E+00  7.59869910E+00 -1.51973982E+01
  7.59869910E+00  7.59869910E+00 -1.51973982E+01  7.59869910E+00  7.59869910E+00
 -1.51973982E+01  7.59869910E+00  7.59869910E+00 -1.51973982E+01  7.59869910E+00
  7.59869910E+00 -1.51973982E+01  7.59869910E+00  7.59869910E+00 -1.51973982E+01
  7.59869910E+00  7.59869910E+00 -1.51973982E+01  7.59869910E+00  7.59869910E+00
 -1.51973982E+01  7.59869910E+00  7.59869910E+00 -1.51973982E+01  7.59869910E+00
  7.59869910E+00 -1.51973982E+01  7.59869910E+00  7.59869910E+00 -1.51973982E+01
  7.59869910E+00  7.59869910E+00 -1.51973982E+01  7.59869910E+00  7.59869910E+00
 -1.51973982E+01  7.59869910E+00  7.59869910E+00 -1.51973982E+01  7.59869910E+00
  7.59869910E+00 -1.51973982E+01  7.59869910E+00  7.59869910E+00 -1.51973982E+01
  7.59869910E+00  7.59869910E+00 -1.51973982E+01  7.59869910E+00  7.59869910E+00
 -1.51973982E+01  7.59869910E+00  7.59869910E+00 -1.51973982E+01  7.59869910E+00
  7.59869910E+00 -1.51973982E+01  7.59869910E+00  7.59869910E+00 -1.51973982E+01
  7.59869910E+00  7.59869910E+00 -1.51973982E+01  7.59869910E+00  7.59869910E+00
 -1.51973982E+01  7.59869910E+00  7.59869910E+00 -1.51973982E+01  7.59869910E+00
  7.59869910E+00 -1.51973982E+01  7.59869910E+00  7.59869910E+00 -1.51973982E+01
  7.59869910E+00  7.59869910E+00 -1.51973982E+01  7.59869910E+00  7.59869910E+00
 -1.51973982E+01  7.59869910E+00  7.59869910E+00 -1.51973982E+01  7.59869910E+00
  7.59869910E+00 -1.51973982E+01  7.59869910E+00  7.59869910E+00 -1.51973982E+01
  7.59869910E+00  7.59869910E+00 -1.51973982E+01  7.59869910E+00  7.59869910E+00
 -1.51973982E+01  7.59869910E+00  7.59869910E+00 -1.51973982E+01  7.59869910E+00
  7.59869910E+00 -1.51973982E+01  7.59869910E+00  7.59869910E+00 -1.51973982E+01
  7.59869910E+00  7.59869910E+00 -1.51973982E+01  7.59869910E+00  7.59869910E+00
 -1.51973982E+01  7.59869910E+00  7.59869910E+00 -1.51973982E+01  7.59869910E+00
  7.59869910E+00 -1.51973982E+01  7.59869910E+00  7.59869910E+00 -1.51973982E+01
  7.59869910E+00  7.59869910E+00 -1.51973982E+01  7.59869910E+00  7.59869910E+00
 -1.51973982E+01  7.59869910E+00  7.59869910E+00 -1.51973982E+01  7.59869910E+00
  7.59869910E+00 -1.51973982E+01  7.59869910E+00  7.59869910E+00 -1.51973982E+01
  7.59869910E+00  7.59869910E+00 -1.51973982E+01  7.59869910E+00  7.59869910E+00
 -1.51973982E+01  7.59869910E+00  7.59869910E+00 -1.51973982E+01  7.59869910E+00
  7.59869910E+00 -1.51973982E+01  7.59869910E+00  7.59869910E+00 -1.51973982E+01
  7.59869910E+00  7.59869910E+00 -1.51973982E+01  7.59869910E+00  7.59869910E+00
 -1.51973982E+01  7.59869910E+00  7.59869910E+00 -1.51973982E+01  7.59869910E+00
  7.59869910E+00 -1.51973982E+01  7.59869910E+00  7.59869910E+00 -1.51973982E+01
  7.59869910E+00  7.59869910E+00 -1.51973982E+01  7.59869910E+00  7.59869910E+00
 -1.51973982E+01  7.59869910E+00  7.59869910E+00 -1.51973982E+01  7.59869910E+00
  7.59869910E+00 -1.51973982E+01  7.59869910E+00  7.59869910E+00 -1.51973982E+01
  7.59869910E+00  7.59869910E+00 -1.51973982E+01  7.59869910E+00  7.59869910E+00
 -1.51973982E+01  7.59869910E+00  7.59869910E+00 -1.51973982E+01  7.59869910E+00
  7.59869910E+00 -1.51973982E+01  7.59869910E+00  7.59869910E+00 -1.51973982E+01
  7.59869910E+00  7.59869910E+00 -1.51973982E+01  7.59869910E+00  7.59869910E+00
 -1.51973982E+01  7.59869910E+00  7.59869910E+00 -1.51973982E+01  7.59869910E+00
  7.59869910E+00 -1.51973982E+01  7.59869910E+00  7.59869910E+00 -1.51973982E+01
  7.59869910E+00  7.59869910E+00 -1.51973982E+01  7.59869910E+00  7.59869910E+00
 -1.51973982E+01  7.59869910E+00  7.59869910E+00 -1.51973982E+01  7.59869910E+00
  7.59869910E+00 -1.51973982E+01  7.59869910E+00  7.59869910E+00 -1.51973982E+01
  7.59869910E+00  7.59869910E+00 -1.51973982E+01  7.59869910E+00  7.59869910E+00
 -1.51973982E+01  7.59869910E+00  7.59869910E+00 -1.51973982E+01  7.59869910E+00
  7.59869910E+00 -1.51973982E+01  7.59869910E+00  7.59869910E+00 -1.51973982E+01
  7.59869910E+00  7.59869910E+00 -1.51973982E+01  7.59869910E+00  7.59869910E+00
 -1.51973982E+01  7.59869910E+00  7.59869910E+00 -1.51973982E+01  7.59869910E+00
  7.59869910E+00 -1.51973982E+01  7.59869910E+00  7.59869910E+00 -1.51973982E+01
  7.59869910E+00  7.59869910E+00 -1.51973982E+01  7.59869910E+00  7.59869910E+00
 -1.51973982E+01  7.59869910E+00  7.59869910E+00 -1.51973982E+01  7.59869910E+00
  7.59869910E+00 -1.51973982E+01  7.59869910E+00  7.59869910E+00 -1.51973982E+01
  7.59869910E+00  7.59869910E+00 -1.51973982E+01  7.59869910E+00  7.59869910E+00
 -1.51973982E+01  7.59869910E+00  7.59869910E+00 -1.51973982E+01  7.59869910E+00
  7.59869910E+00 -1.51973982E+01  7.59869910E+00  7.59869910E+00 -1.51973982E+01
  7.59869910E+00  7.59869910E+00 -1.51973982E+01  7.59869910E+00  7.59869910E+00
 -1.51973982E+01  7.59869910E+00  7.59869910E+00 -1.51973982E+01  7.59869910E+00
  7.59869910E+00 -1.51973982E+01  7.59869910E+00  7.59869910E+00 -1.51973982E+01
  7.59869910E+00  7.59869910E+00 -1.51973982E+01  7.59869910E+00  7.59869910E+00
 -1.51973982E+01  7.59869910E+00  7.59869910E+00 -1.51973982E+01  7.59869910E+00
  7.59869910E+00 -1.51973982E+01  7.59869910E+00  7.59869910E+00 -1.51973982E+01
  7.59869910E+00  7.59869910E+00 -1.51973982E+01  7.59869910E+00  7.59869910E+00
 -1.51973982E+01  7.59869910E+00  7.59869910E+00 -1.51973982E+01  7.59869910E+00
  7.59869910E+00 -1.51973982E+01  7.59869910E+00  7.59869910E+00 -1.51973982E+01
  7.59869910E+00  7.59869910E+00 -1.51973982E+01  7.59869910E+00  7.59869910E+00
 -1.51973982E+01  7.59869910E+00  7.59869910E+00 -1.51973982E+01  7.59869910E+00
  7.59869910E+00 -1.51973982E+01  7.59869910E+00  7.59869910E+00 -1.51973982E+01
  7.59869910E+00  7.59869910E+00 -1.51973982E+01  7.59869910E+00  7.59869910E+00
 -1.51973982E+01  7.59869910E+00  7.59869910E+00 -1.51973982E+01  7.59869910E+00
  7.59869910E+00 -1.51973982E+01  7.59869910E+00  7.59869910E+00 -1.51973982E+01
  7.59869910E+00  7.59869910E+00 -1.51973982E+01  7.59869910E+00  7.59869910E+00
 -1.51973982E+01  7.59869910E+00  7.59869910E+00 -1.51973982E+01  7.59869910E+00
  7.59869910E+00 -1.51973982E+01  7.59869910E+00  7.59869910E+00 -1.51973982E+01
  7.59869910E+00  7.59869910E+00 -1.51973982E+01  7.59869910E+00  7.59869910E+00
 -1.51973982E+01  7.59869910E+00  7.59869910E+00 -1.51973982E+01  7.59869910E+00
  7.59869910E+00 -1.51973982E+01  7.59869910E+00  7.59869910E+00 -1.51973982E+01
  7.59869910E+00  7.59869910E+00 -1.51973982E+01  7.59869910E+00  7.59869910E+00
 -1.51973982E+01  7.59869910E+00  7.59869910E+00 -1.51973982E+01  7.59869910E+00
  7.59869910E+00 -1.51973982E+01  7.59869910E+00  7.59869910E+00 -1.51973982E+01
  7.59869910E+00  7.59869910E+00 -1.51973982E+01  7.59869910E+00  7.59869910E+00
 -1.51973982E+01  7.59869910E+00  7.59869910E+00 -1.51973982E+01  7.59869910E+00
  7.59869910E+00 -1.51973982E+01  7.59869910E+00  7.59869910E+00 -1.51973982E+01
  7.59869910E+00  7.59869910E+00 -1.51973982E+01  7.59869910E+00  7.59869910E+00
 -1.51973982E+01  7.59869910E+00  7.59869910E+00 -1.51973982E+01  7.59869910E+00
  7.59869910E+00 -1.51973982E+01  7.59869910E+00  7.59869910E+00 -1.51973982E+01
  7.59869910E+00  7.59869910E+00 -1.51973982E+01  7.59869910E+00  7.59869910E+00
 -1.51973982E+01  7.59869910E+00  7.59869910E+00 -1.51973982E+01  7.59869910E+00
  7.59869910E+00 -1.51973982E+01  7.59869910E+00  7.59869910E+00 -1.51973982E+01
  7.59869910E+00  7.59869910E+00 -1.51973982E+01  7.59869910E+00  7.59869910E+00
 -1.51973982E+01  7.59869910E+00  7.59869910E+00 -1.51973982E+01  7.59869910E+00
  7.59869910E+00 -1.51973982E+01  7.59869910E+00  7.59869910E+00 -1.51973982E+01
  7.59869910E+00  7.59869910E+00 -1.51973982E+01  7.59869910E+00  7.59869910E+00
 -1.51973982E+01  7.59869910E+00  7.59869910E+00 -1.51973982E+01  7.59869910E+00
  7.59869910E+00 -1.51973982E+01  7.59869910E+00  7.59869910E+00 -1.51973982E+01
  7.59869910E+00  7.59869910E+00 -1.51973982E+01  7.59869910E+00  7.59869910E+00
 -1.51973982E+01  7.59869910E+00  7.59869910E+00 -1.51973982E+01  7.59869910E+00
  7.59869910E+00 -1.51973982E+01  7.59869910E+00  7.59869910E+00 -1.51973982E+01
  7.59869910E+00  7.59869910E+00 -1.51973982E+01  7.59869910E+00  7.59869910E+00
 -1.51973982E+01  7.59869910E+00  7.59869910E+00 -1.51973982E+01  7.59869910E+00
  7.59869910E+00 -1.51973982E+01  7.59869910E+00  7.59869910E+00 -1.51973982E+01
  7.59869910E+00  7.59869910E+00 -1.51973982E+01  7.59869910E+00  7.59869910E+00
 -1.51973982E+01  7.59869910E+00  7.59869910E+00 -1.51973982E+01  7.59869910E+00
  7.59869910E+00 -1.51973982E+01  7.59869910E+00  7.59869910E+00 -1.51973982E+01
  7.59869910E+00  7.59869910E+00 -1.51973982E+01  7.59869910E+00  7.59869910E+00
 -1.51973982E+01  7.59869910E+00  7.59869910E+00 -1.51973982E+01  7.59869910E+00
  7.59869910E+00 -1.51973982E+01  7.59869910E+00  7.59869910E+00 -1.51973982E+01
  7.59869910E+00  7.59869910E+00 -1.51973982E+01  7.59869910E+00  7.59869910E+00
 -1.51973982E+01  7.59869910E+00  7.59869910E+00 -1.51973982E+01  7.59869910E+00
  7.59869910E+00 -1.51973982E+01  7.59869910E+00  7.59869910E+00 -1.51973982E+01
  7.59869910E+00  7.59869910E+00 -1.51973982E+01  7.59869910E+00  7.59869910E+00
 -1.51973982E+01  7.59869910E+00  7.59869910E+00 -1.51973982E+01  7.59869910E+00
  7.59869910E+00 -1.51973982E+01  7.59869910E+00  7.59869910E+00 -1.51973982E+01
  7.59869910E+00  7.59869910E+00 -1.51973982E+01  7.59869910E+00  7.59869910E+00
 -1.51973982E+01  7.59869910E+00  7.59869910E+00 -1.51973982E+01  7.59869910E+00
  7.59869910E+00 -1.51973982E+01  7.59869910E+00  7.59869910E+00 -1.51973982E+01
  7.59869910E+00  7.59869910E+00 -1.51973982E+01  7.59869910E+00  7.59869910E+00
 -1.51973982E+01  7.59869910E+00  7.59869910E+00 -1.51973982E+01  7.59869910E+00
  7.59869910E+00 -1.51973982E+01  7.59869910E+00  7.59869910E+00 -1.51973982E+01
  7.59869910E+00  7.59869910E+00 -1.51973982E+01  7.59869910E+00  7.59869910E+00
 -1.51973982E+01  7.59869910E+00  7.59869910E+00 -1.51973982E+01  7.59869910E+00
  7.59869910E+00 -1.51973982E+01  7.59869910E+00  7.59869910E+00 -1.51973982E+01
  7.59869910E+00  7.59869910E+00 -1.51973982E+01  7.59869910E+00  7.59869910E+00
 -1.51973982E+01  7.59869910E+00  7.59869910E+00 -1.51973982E+01  7.59869910E+00
  7.59869910E+00 -1.51973982E+01  7.59869910E+00  7.59869910E+00 -1.51973982E+01
  7.59869910E+00  7.59869910E+00 -1.51973982E+01  7.59869910E+00  7.59869910E+00
 -1.51973982E+01  7.59869910E+00  7.59869910E+00 -1.51973982E+01  7.59869910E+00
  7.59869910E+00 -1.51973982E+01  7.59869910E+00  7.59869910E+00 -1.51973982E+01
  7.59869910E+00  7.59869910E+00 -1.51973982E+01  7.59869910E+00  7.59869910E+00
 -1.51973982E+01  7.59869910E+00  7.59869910E+00 -1.51973982E+01  7.59869910E+00
  7.59869910E+00 -1.51973982E+01  7.59869910E+00  7.59869910E+00 -1.51973982E+01
  7.59869910E+00  7.59869910E+00 -1.51973982E+01  7.59869910E+00  7.59869910E+00
 -1.51973982E+01  7.59869910E+00  7.59869910E+00 -1.51973982E+01  7.59869910E+00
  7.59869910E+00 -1.51973982E+01  7.59869910E+00  7.59869910E+00 -1.51973982E+01
  7.59869910E+00  7.59869910E+00 -1.51973982E+01  7.59869910E+00  7.59869910E+00
 -1.51973982E+01  7.59869910E+00  7.59869910E+00 -1.51973982E+01  7.59869910E+00
  7.59869910E+00 -1.51973982E+01  7.59869910E+00  7.59869910E+00 -1.51973982E+01
  7.59869910E+00  7.59869910E+00 -1.51973982E+01  7.59869910E+00  7.59869910E+00
 -1.51973982E+01  7.59869910E+00  7.59869910E+00 -1.51973982E+01  7.59869910E+00
  7.59869910E+00 -1.51973982E+01  7.59869910E+00  7.59869910E+00 -1.51973982E+01
  7.59869910E+00  7.59869910E+00 -1.51973982E+01  7.59869910E+00  7.59869910E+00
 -1.51973982E+01  7.59869910E+00  7.59869910E+00 -1.51973982E+01  7.59869910E+00
  7.59869910E+00 -1.51973982E+01  7.59869910E+00  7.59869910E+00 -1.51973982E+01
  7.59869910E+00  7.59869910E+00 -1.51973982E+01  7.59869910E+00  7.59869910E+00
 -1.51973982E+01  7.59869910E+00  7.59869910E+00 -1.51973982E+01  7.59869910E+00
  7.59869910E+00 -1.51973982E+01  7.59869910E+00  7.59869910E+00 -1.51973982E+01
  7.59869910E+00  7.59869910E+00 -1.51973982E+01  7.59869910E+00  7.59869910E+00
 -1.51973982E+01  7.59869910E+00  7.59869910E+00 -1.51973982E+01  7.59869910E+00
  7.59869910E+00 -1.51973982E+01  7.59869910E+00  7.59869910E+00 -1.51973982E+01
  7.59869910E+00  7.59869910E+00 -1.51973982E+01  7.59869910E+00  7.59869910E+00
 -1.51973982E+01  7.59869910E+00  7.59869910E+00 -1.51973982E+01  7.59869910E+00
  7.59869910E+00 -1.51973982E+01  7.59869910E+00  7.59869910E+00 -1.51973982E+01
  7.59869910E+00  7.59869910E+00 -1.51973982E+01  7.59869910E+00  7.59869910E+00
 -1.51973982E+01  7.59869910E+00  7.59869910E+00 -1.51973982E+01  7.59869910E+00
  7.59869910E+00 -1.51973982E+01  7.59869910E+00  7.59869910E+00 -1.51973982E+01
  7.59869910E+00  7.59869910E+00 -1.51973982E+01  7.59869910E+00  7.59869910E+00
 -1.51973982E+01  7.59869910E+00  7.59869910E+00 -1.51973982E+01  7.59869910E+00
  7.59869910E+00 -1.51973982E+01  7.59869910E+00  7.59869910E+00 -1.51973982E+01
  7.59869910E+00  7.59869910E+00 -1.51973982E+01  7.59869910E+00  7.59869910E+00
 -1.51973982E+01  7.59869910E+00  7.59869910E+00 -1.51973982E+01  7.59869910E+00
  7.59869910E+00 -1.51973982E+01  7.59869910E+00  7.59869910E+00 -1.51973982E+01
  7.59869910E+00  7.59869910E+00 -1.51973982E+01  7.59869910E+00  7.59869910E+00
 -1.51973982E+01  7.59869910E+00  7.59869910E+00 -1.51973982E+01  7.59869910E+00
  7.59869910E+00 -1.51973982E+01  7.59869910E+00  7.59869910E+00 -1.51973982E+01
  7.59869910E+00  7.59869910E+00 -1.51973982E+01  7.59869910E+00  7.59869910E+00
 -1.51973982E+01  7.59869910E+00  7.59869910E+00 -1.51973982E+01  7.59869910E+00
  7.59869910E+00 -1.51973982E+01  7.59869910E+00  7.59869910E+00 -1.51973982E+01
  7.59869910E+00  7.59869910E+00 -1.51973982E+01  7.59869910E+00  7.59869910E+00
 -1.51973982E+01  7.59869910E+00  7.59869910E+00 -1.51973982E+01  7.59869910E+00
  7.59869910E+00 -1.51973982E+01  7.59869910E+00  7.59869910E+00 -1.51973982E+01
  7.59869910E+00  7.59869910E+00 -1.51973982E+01  7.59869910E+00  7.59869910E+00
 -1.51973982E+01  7.59869910E+00  7.59869910E+00 -1.51973982E+01  7.59869910E+00
  7.59869910E+00 -1.51973982E+01  7.59869910E+00  7.59869910E+00 -1.51973982E+01
  7.59869910E+00  7.59869910E+00 -1.51973982E+01  7.59869910E+00  7.59869910E+00
 -1.51973982E+01  7.59869910E+00  7.59869910E+00 -1.51973982E+01  7.59869910E+00
  7.59869910E+00 -1.51973982E+01  7.59869910E+00  7.59869910E+00 -1.51973982E+01
  7.59869910E+00  7.59869910E+00 -1.51973982E+01  7.59869910E+00  7.59869910E+00
 -1.51973982E+01  7.59869910E+00  7.59869910E+00 -1.51973982E+01  7.59869910E+00
  7.59869910E+00 -1.51973982E+01  7.59869910E+00  7.59869910E+00 -1.51973982E+01
  7.59869910E+00  7.59869910E+00 -1.51973982E+01  7.59869910E+00  7.59869910E+00
 -1.51973982E+01  7.59869910E+00  7.59869910E+00 -1.51973982E+01  7.59869910E+00
  7.59869910E+00 -1.51973982E+01  7.59869910E+00  7.59869910E+00 -1.51973982E+01
  7.59869910E+00  7.59869910E+00 -1.51973982E+01  7.59869910E+00  7.59869910E+00
 -1.51973982E+01  7.59869910E+00  7.59869910E+00 -1.51973982E+01  7.59869910E+00
  7.59869910E+00 -1.51973982E+01  7.59869910E+00  7.59869910E+00 -1.51973982E+01
  7.59869910E+00  7.59869910E+00 -1.51973982E+01  7.59869910E+00  7.59869910E+00
 -1.51973982E+01  7.59869910E+00  7.59869910E+00 -1.51973982E+01  7.59869910E+00
  7.59869910E+00 -1.51973982E+01  7.59869910E+00  7.59869910E+00 -1.51973982E+01
  7.59869910E+00  7.59869910E+00 -1.51973982E+01  7.59869910E+00  7.59869910E+00
 -1.51973982E+01  7.59869910E+00  7.59869910E+00 -1.51973982E+01  7.59869910E+00
  7.59869910E+00 -1.51973982E+01  7.59869910E+00  7.59869910E+00 -1.51973982E+01
  7.59869910E+00  7.59869910E+00 -1.51973982E+01  7.59869910E+00  7.59869910E+00
 -1.51973982E+01  7.59869910E+00  7.59869910E+00 -1.51973982E+01  7.59869910E+00
  7.59869910E+00 -1.51973982E+01  7.59869910E+00  7.59869910E+00 -1.51973982E+01
  7.59869910E+00  7.59869910E+00 -1.51973982E+01  7.59869910E+00  7.59869910E+00
 -1.51973982E+01  7.59869910E+00  7.59869910E+00 -1.51973982E+01  7.59869910E+00
  7.59869910E+00 -1.51973982E+01  7.59869910E+00  7.59869910E+00 -1.51973982E+01
  7.59869910E+00  7.59869910E+00 -1.51973982E+01  7.59869910E+00  7.59869910E+00
 -1.51973982E+01  7.59869910E+00  7.59869910E+00 -1.51973982E+01  7.59869910E+00
  7.59869910E+00 -1.51973982E+01  7.59869910E+00  7.59869910E+00 -1.51973982E+01
  7.59869910E+00  7.59869910E+00 -1.51973982E+01  7.59869910E+00  7.59869910E+00
 -1.51973982E+01  7.59869910E+00  7.59869910E+00 -1.51973982E+01  7.59869910E+00
  7.59869910E+00 -1.51973982E+01  7.59869910E+00  7.59869910E+00 -1.51973982E+01
  7.59869910E+00  7.59869910E+00 -1.51973982E+01  7.59869910E+00  7.59869910E+00
 -1.51973982E+01  7.59869910E+00  7.59869910E+00 -1.51973982E+01  7.59869910E+00
  7.59869910E+00 -1.51973982E+01  7.59869910E+00  7.59869910E+00 -1.51973982E+01
  7.59869910E+00  7.59869910E+00 -1.51973982E+01  7.59869910E+00  7.59869910E+00
 -1.51973982E+01  7.59869910E+00  7.59869910E+00 -1.51973982E+01  7.59869910E+00
  7.59869910E+00 -1.51973982E+01  7.59869910E+00  7.59869910E+00 -1.51973982E+01
  7.59869910E+00  7.59869910E+00 -1.51973982E+01  7.59869910E+00  7.59869910E+00
 -1.51973982E+01  7.59869910E+00  7.59869910E+00 -1.51973982E+01  7.59869910E+00
  7.59869910E+00 -1.51973982E+01  7.59869910E+00  7.59869910E+00 -1.51973982E+01
  7.59869910E+00  7.59869910E+00 -1.51973982E+01  7.59869910E+00  7.59869910E+00
 -1.51973982E+01  7.59869910E+00  7.59869910E+00 -1.51973982E+01  7.59869910E+00
  7.59869910E+00 -1.51973982E+01  7.59869910E+00  7.59869910E+00 -1.51973982E+01
  7.59869910E+00  7.59869910E+00 -1.51973982E+01  7.59869910E+00  7.59869910E+00
 -1.51973982E+01  7.59869910E+00  7.59869910E+00 -1.51973982E+01  7.59869910E+00
  7.59869910E+00 -1.51973982E+01  7.59869910E+00  7.59869910E+00 -1.51973982E+01
  7.59869910E+00  7.59869910E+00 -1.51973982E+01  7.59869910E+00  7.59869910E+00
 -1.51973982E+01  7.59869910E+00  7.59869910E+00 -1.51973982E+01  7.59869910E+00
  7.59869910E+00 -1.51973982E+01  7.59869910E+00  7.59869910E+00 -1.51973982E+01
  7.59869910E+00  7.59869910E+00 -1.51973982E+01  7.59869910E+00  7.59869910E+00
 -1.51973982E+01  7.59869910E+00  7.59869910E+00 -1.51973982E+01  7.59869910E+00
  7.59869910E+00 -1.51973982E+01  7.59869910E+00  7.59869910E+00 -1.51973982E+01
  7.59869910E+00  7.59869910E+00 -1.51973982E+01  7.59869910E+00  7.59869910E+00
 -1.51973982E+01  7.59869910E+00  7.59869910E+00 -1.51973982E+01  7.59869910E+00
  7.59869910E+00 -1.51973982E+01  7.59869910E+00  7.59869910E+00 -1.51973982E+01
  7.59869910E+00  7.59869910E+00 -1.51973982E+01  7.59869910E+00  7.59869910E+00
 -1.51973982E+01  7.59869910E+00  7.59869910E+00 -1.51973982E+01  7.59869910E+00
  7.59869910E+00 -1.51973982E+01  7.59869910E+00  7.59869910E+00 -1.51973982E+01
  7.59869910E+00  7.59869910E+00 -1.51973982E+01  7.59869910E+00  7.59869910E+00
 -1.51973982E+01  7.59869910E+00  7.59869910E+00 -1.51973982E+01  7.59869910E+00
  7.59869910E+00 -1.51973982E+01  7.59869910E+00  7.59869910E+00 -1.51973982E+01
  7.59869910E+00  7.59869910E+00 -1.51973982E+01  7.59869910E+00  7.59869910E+00
 -1.51973982E+01  7.59869910E+00  7.59869910E+00 -1.51973982E+01  7.59869910E+00
  7.59869910E+00 -1.51973982E+01  7.59869910E+00  7.59869910E+00 -1.51973982E+01
  7.59869910E+00  7.59869910E+00 -1.51973982E+01  7.59869910E+00  7.59869910E+00
 -1.51973982E+01  7.59869910E+00  7.59869910E+00 -1.51973982E+01  7.59869910E+00
  7.59869910E+00 -1.51973982E+01  7.59869910E+00  7.59869910E+00 -1.51973982E+01
  7.59869910E+00  7.59869910E+00 -1.51973982E+01  7.59869910E+00  7.59869910E+00
 -1.51973982E+01  7.59869910E+00  7.59869910E+00 -1.51973982E+01  7.59869910E+00
  7.59869910E+00 -1.51973982E+01  7.59869910E+00  7.59869910E+00 -1.51973982E+01
  7.59869910E+00  7.59869910E+00 -1.51973982E+01  7.59869910E+00  7.59869910E+00
 -1.51973982E+01  7.59869910E+00  7.59869910E+00 -1.51973982E+01  7.59869910E+00
  7.59869910E+00 -1.51973982E+01  7.59869910E+00  7.59869910E+00 -1.51973982E+01
  7.59869910E+00  7.59869910E+00 -1.51973982E+01  7.59869910E+00  7.59869910E+00
 -1.51973982E+01  7.59869910E+00  7.59869910E+00 -1.51973982E+01  7.59869910E+00
  7.59869910E+00 -1.51973982E+01  7.59869910E+00  7.59869910E+00 -1.51973982E+01
  7.59869910E+00  7.59869910E+00 -1.51973982E+01  7.59869910E+00  7.59869910E+00
 -1.51973982E+01  7.59869910E+00  7.59869910E+00 -1.51973982E+01  7.59869910E+00
  7.59869910E+00 -1.51973982E+01  7.59869910E+00  7.59869910E+00 -1.51973982E+01
  7.59869910E+00  7.59869910E+00 -1.51973982E+01  7.59869910E+00  7.59869910E+00
 -1.51973982E+01  7.59869910E+00  7.59869910E+00 -1.51973982E+01  7.59869910E+00
  7.59869910E+00 -1.51973982E+01  7.59869910E+00  7.59869910E+00 -1.51973982E+01
  7.59869910E+00  7.59869910E+00 -1.51973982E+01  7.59869910E+00  7.59869910E+00
 -1.51973982E+01  7.59869910E+00  7.59869910E+00 -1.51973982E+01  7.59869910E+00
  7.59869910E+00 -1.51973982E+01  7.59869910E+00  7.59869910E+00 -1.51973982E+01
  7.59869910E+00  7.59869910E+00 -1.51973982E+01  7.59869910E+00  7.59869910E+00
 -1.51973982E+01  7.59869910E+00  7.59869910E+00 -1.51973982E+01  7.59869910E+00
  7.59869910E+00 -1.51973982E+01  7.59869910E+00  7.59869910E+00 -1.51973982E+01
  7.59869910E+00  7.59869910E+00 -1.51973982E+01  7.59869910E+00  7.59869910E+00
 -1.51973982E+01  7.59869910E+00  7.59869910E+00 -1.51973982E+01  7.59869910E+00
  7.59869910E+00 -1.51973982E+01  7.59869910E+00  7.59869910E+00 -1.51973982E+01
  7.59869910E+00  7.59869910E+00 -1.51973982E+01  7.59869910E+00  7.59869910E+00
 -1.51973982E+01  7.59869910E+00  7.59869910E+00 -1.51973982E+01  7.59869910E+00
  7.59869910E+00 -1.51973982E+01  7.59869910E+00  7.59869910E+00 -1.51973982E+01
  7.59869910E+00  7.59869910E+00 -1.51973982E+01  7.59869910E+00  7.59869910E+00
 -1.51973982E+01  7.59869910E+00  7.59869910E+00 -1.51973982E+01  7.59869910E+00
  7.59869910E+00 -1.51973982E+01  7.59869910E+00  7.59869910E+00 -1.51973982E+01
  7.59869910E+00  7.59869910E+00 -1.51973982E+01  7.59869910E+00  7.59869910E+00
 -1.51973982E+01  7.59869910E+00  7.59869910E+00 -1.51973982E+01  7.59869910E+00
  7.59869910E+00 -1.51973982E+01  7.59869910E+00  7.59869910E+00 -1.51973982E+01
  7.59869910E+00  7.59869910E+00 -1.51973982E+01  7.59869910E+00  7.59869910E+00
 -1.51973982E+01  7.59869910E+00  7.59869910E+00 -1.51973982E+01  7.59869910E+00
  7.59869910E+00 -1.51973982E+01  7.59869910E+00  7.59869910E+00 -1.51973982E+01
  7.59869910E+00  7.59869910E+00 -1.51973982E+01  7.59869910E+00  7.59869910E+00
 -1.51973982E+01  7.59869910E+00  7.59869910E+00 -1.51973982E+01  7.59869910E+00
  7.59869910E+00 -1.51973982E+01  7.59869910E+00  7.59869910E+00 -1.51973982E+01
  7.59869910E+00  7.59869910E+00 -1.51973982E+01  7.59869910E+00  7.59869910E+00
 -1.51973982E+01  7.59869910E+00  7.59869910E+00 -1.51973982E+01  7.59869910E+00
  7.59869910E+00 -1.51973982E+01  7.59869910E+00  7.59869910E+00 -1.51973982E+01
  7.59869910E+00  7.59869910E+00 -1.51973982E+01  7.59869910E+00  7.59869910E+00
 -1.51973982E+01  7.59869910E+00  7.59869910E+00 -1.51973982E+01  7.59869910E+00
  7.59869910E+00 -1.51973982E+01  7.59869910E+00  7.59869910E+00 -1.51973982E+01
  7.59869910E+00  7.59869910E+00 -1.51973982E+01  7.59869910E+00  7.59869910E+00
 -1.51973982E+01  7.59869910E+00  7.59869910E+00 -1.51973982E+01  7.59869910E+00
  7.59869910E+00 -1.51973982E+01  7.59869910E+00  7.59869910E+00 -1.51973982E+01
  7.59869910E+00  7.59869910E+00 -1.51973982E+01  7.59869910E+00  7.59869910E+00
 -1.51973982E+01  7.59869910E+00  7.59869910E+00 -1.51973982E+01  7.59869910E+00
  7.59869910E+00 -1.51973982E+01  7.59869910E+00  7.59869910E+00 -1.51973982E+01
  7.59869910E+00  7.59869910E+00 -1.51973982E+01  7.59869910E+00  7.59869910E+00
 -1.51973982E+01  7.59869910E+00  7.59869910E+00 -1.51973982E+01  7.59869910E+00
  7.59869910E+00 -1.51973982E+01  7.59869910E+00  7.59869910E+00 -1.51973982E+01
  7.59869910E+00  7.59869910E+00 -1.51973982E+01  7.59869910E+00  7.59869910E+00
 -1.51973982E+01  7.59869910E+00  7.59869910E+00 -1.51973982E+01  7.59869910E+00
  7.59869910E+00 -1.51973982E+01  7.59869910E+00  7.59869910E+00 -1.51973982E+01
  7.59869910E+00  7.59869910E+00 -1.51973982E+01  7.59869910E+00  7.59869910E+00
 -1.51973982E+01  7.59869910E+00  7.59869910E+00 -1.51973982E+01  7.59869910E+00
  7.59869910E+00 -1.51973982E+01  7.59869910E+00  7.59869910E+00 -1.51973982E+01
  7.59869910E+00  7.59869910E+00 -1.51973982E+01  7.59869910E+00  7.59869910E+00
 -1.51973982E+01  7.59869910E+00  7.59869910E+00 -1.51973982E+01  7.59869910E+00
  7.59869910E+00 -1.51973982E+01  7.59869910E+00  7.59869910E+00 -1.51973982E+01
  7.59869910E+00  7.59869910E+00 -1.51973982E+01  7.59869910E+00  7.59869910E+00
 -1.51973982E+01  7.59869910E+00  7.59869910E+00 -1.51973982E+01  7.59869910E+00
  7.59869910E+00 -1.51973982E+01  7.59869910E+00  7.59869910E+00 -1.51973982E+01
  7.59869910E+00  7.59869910E+00 -1.51973982E+01  7.59869910E+00  7.59869910E+00
 -1.51973982E+01  7.59869910E+00  7.59869910E+00 -1.51973982E+01  7.59869910E+00
  7.59869910E+00 -1.51973982E+01  7.59869910E+00  7.59869910E+00 -1.51973982E+01
  7.59869910E+00  7.59869910E+00 -1.51973982E+01  7.59869910E+00  7.59869910E+00
 -1.51973982E+01  7.59869910E+00  7.59869910E+00 -1.51973982E+01  7.59869910E+00
  7.59869910E+00 -1.51973982E+01  7.59869910E+00  7.59869910E+00 -1.51973982E+01
  7.59869910E+00  7.59869910E+00 -1.51973982E+01  7.59869910E+00  7.59869910E+00
 -1.51973982E+01  7.59869910E+00  7.59869910E+00 -1.51973982E+01  7.59869910E+00
  7.59869910E+00 -1.51973982E+01  7.59869910E+00  7.59869910E+00 -1.51973982E+01
  7.59869910E+00  7.59869910E+00 -1.51973982E+01  7.59869910E+00  7.59869910E+00
 -1.51973982E+01  7.59869910E+00  7.59869910E+00 -1.51973982E+01  7.59869910E+00
  7.59869910E+00 -1.51973982E+01  7.59869910E+00  7.59869910E+00 -1.51973982E+01
  7.59869910E+00  7.59869910E+00 -1.51973982E+01  7.59869910E+00  7.59869910E+00
 -1.51973982E+01  7.59869910E+00  7.59869910E+00 -1.51973982E+01  7.59869910E+00
  7.59869910E+00 -1.51973982E+01  7.59869910E+00  7.59869910E+00 -1.51973982E+01
  7.59869910E+00  7.59869910E+00 -1.51973982E+01  7.59869910E+00  7.59869910E+00
 -1.51973982E+01  7.59869910E+00  7.59869910E+00 -1.51973982E+01  7.59869910E+00
  7.59869910E+00 -1.51973982E+01  7.59869910E+00  7.59869910E+00 -1.51973982E+01
  7.59869910E+00  7.59869910E+00 -1.51973982E+01  7.59869910E+00  7.59869910E+00
 -1.51973982E+01  7.59869910E+00  7.59869910E+00 -1.51973982E+01  7.59869910E+00
  7.59869910E+00 -1.51973982E+01  7.59869910E+00  7.59869910E+00 -1.51973982E+01
  7.59869910E+00  7.59869910E+00 -1.51973982E+01  7.59869910E+00  7.59869910E+00
 -1.51973982E+01  7.59869910E+00  7.59869910E+00 -1.51973982E+01  7.59869910E+00
  7.59869910E+00 -1.51973982E+01  7.59869910E+00  7.59869910E+00 -1.51973982E+01
  7.59869910E+00  7.59869910E+00 -1.51973982E+01  7.59869910E+00  7.59869910E+00
 -1.51973982E+01  7.59869910E+00  7.59869910E+00 -1.51973982E+01  7.59869910E+00
  7.59869910E+00 -1.51973982E+01  7.59869910E+00  7.59869910E+00 -1.51973982E+01
  7.59869910E+00  7.59869910E+00 -1.51973982E+01  7.59869910E+00  7.59869910E+00
 -1.51973982E+01  7.59869910E+00  7.59869910E+00 -1.51973982E+01  7.59869910E+00
  7.59869910E+00 -1.51973982E+01  7.59869910E+00  7.59869910E+00 -1.51973982E+01
  7.59869910E+00  7.59869910E+00 -1.51973982E+01  7.59869910E+00  7.59869910E+00
 -1.51973982E+01  7.59869910E+00  7.59869910E+00 -1.51973982E+01  7.59869910E+00
  7.59869910E+00 -1.51973982E+01  7.59869910E+00  7.59869910E+00 -1.51973982E+01
  7.59869910E+00  7.59869910E+00 -1.51973982E+01  7.59869910E+00  7.59869910E+00
 -1.51973982E+01  7.59869910E+00  7.59869910E+00 -1.51973982E+01  7.59869910E+00
  7.59869910E+00 -1.51973982E+01  7.59869910E+00  7.59869910E+00 -1.51973982E+01
  7.59869910E+00  7.59869910E+00 -1.51973982E+01  7.59869910E+00  7.59869910E+00
 -1.51973982E+01  7.59869910E+00  7.59869910E+00 -1.51973982E+01  7.59869910E+00
  7.59869910E+00 -1.51973982E+01  7.59869910E+00  7.59869910E+00 -1.51973982E+01
  7.59869910E+00  7.59869910E+00 -1.51973982E+01  7.59869910E+00  7.59869910E+00
 -1.51973982E+01  7.59869910E+00  7.59869910E+00 -1.51973982E+01  7.59869910E+00
  7.59869910E+00 -1.51973982E+01  7.59869910E+00  7.59869910E+00 -1.51973982E+01
  7.59869910E+00  7.59869910E+00 -1.51973982E+01  7.59869910E+00  7.59869910E+00
 -1.51973982E+01  7.59869910E+00  7.59869910E+00 -1.51973982E+01  7.59869910E+00
  7.59869910E+00 -1.51973982E+01  7.59869910E+00  7.59869910E+00 -1.51973982E+01
  7.59869910E+00  7.59869910E+00 -1.51973982E+01  7.59869910E+00  7.59869910E+00
 -1.51973982E+01  7.59869910E+00  7.59869910E+00 -1.51973982E+01  7.59869910E+00
  7.59869910E+00 -1.51973982E+01  7.59869910E+00  7.59869910E+00 -1.51973982E+01
  7.59869910E+00  7.59869910E+00 -1.51973982E+01  7.59869910E+00  7.59869910E+00
 -1.51973982E+01  7.59869910E+00  7.59869910E+00 -1.51973982E+01  7.59869910E+00
  7.59869910E+00 -1.51973982E+01  7.59869910E+00  7.59869910E+00 -1.51973982E+01
  7.59869910E+00  7.59869910E+00 -1.51973982E+01  7.59869910E+00  7.59869910E+00
 -1.51973982E+01  7.59869910E+00  7.59869910E+00 -1.51973982E+01  7.59869910E+00
  7.59869910E+00 -1.51973982E+01  7.59869910E+00  7.59869910E+00 -1.51973982E+01
  7.59869910E+00  7.59869910E+00 -1.51973982E+01  7.59869910E+00  7.59869910E+00
 -1.51973982E+01  7.59869910E+00  7.59869910E+00 -1.51973982E+01  7.59869910E+00
  7.59869910E+00 -1.51973982E+01  7.59869910E+00  7.59869910E+00 -1.51973982E+01
  7.59869910E+00  7.59869910E+00 -1.51973982E+01  7.59869910E+00  7.59869910E+00
 -1.51973982E+01  7.59869910E+00  7.59869910E+00 -1.51973982E+01  7.59869910E+00
  7.59869910E+00 -1.51973982E+01  7.59869910E+00  7.59869910E+00 -1.51973982E+01
  7.59869910E+00  7.59869910E+00 -1.51973982E+01  7.59869910E+00  7.59869910E+00
 -1.51973982E+01  7.59869910E+00  7.59869910E+00 -1.51973982E+01  7.59869910E+00
  7.59869910E+00 -1.51973982E+01  7.59869910E+00  7.59869910E+00 -1.51973982E+01
  7.59869910E+00  7.59869910E+00 -1.51973982E+01  7.59869910E+00  7.59869910E+00
 -1.51973982E+01  7.59869910E+00  7.59869910E+00 -1.51973982E+01  7.59869910E+00
  7.59869910E+00 -1.51973982E+01  7.59869910E+00  7.59869910E+00 -1.51973982E+01
  7.59869910E+00  7.59869910E+00 -1.51973982E+01  7.59869910E+00  7.59869910E+00
 -1.51973982E+01  7.59869910E+00  7.59869910E+00 -1.51973982E+01  7.59869910E+00
  7.59869910E+00 -1.51973982E+01  7.59869910E+00  7.59869910E+00 -1.51973982E+01
  7.59869910E+00  7.59869910E+00 -1.51973982E+01  7.59869910E+00  7.59869910E+00
 -1.51973982E+01  7.59869910E+00  7.59869910E+00 -1.51973982E+01  7.59869910E+00
  7.59869910E+00 -1.51973982E+01  7.59869910E+00  7.59869910E+00 -1.51973982E+01
  7.59869910E+00  7.59869910E+00 -1.51973982E+01  7.59869910E+00  7.59869910E+00
 -1.51973982E+01  7.59869910E+00  7.59869910E+00 -1.51973982E+01  7.59869910E+00
  7.59869910E+00 -1.51973982E+01  7.59869910E+00  7.59869910E+00 -1.51973982E+01
  7.59869910E+00  7.59869910E+00 -1.51973982E+01  7.59869910E+00  7.59869910E+00
 -1.51973982E+01  7.59869910E+00  7.59869910E+00 -1.51973982E+01  7.59869910E+00
  7.59869910E+00 -1.51973982E+01  7.59869910E+00  7.59869910E+00 -1.51973982E+01
  7.59869910E+00  7.59869910E+00 -1.51973982E+01  7.59869910E+00  7.59869910E+00
 -1.51973982E+01  7.59869910E+00  7.59869910E+00 -1.51973982E+01  7.59869910E+00
  7.59869910E+00 -1.51973982E+01  7.59869910E+00  7.59869910E+00 -1.51973982E+01
  7.59869910E+00  7.59869910E+00 -1.51973982E+01  7.59869910E+00  7.59869910E+00
 -1.51973982E+01  7.59869910E+00  7.59869910E+00 -1.51973982E+01  7.59869910E+00
  7.59869910E+00 -1.51973982E+01  7.59869910E+00  7.59869910E+00 -1.51973982E+01
  7.59869910E+00  7.59869910E+00 -1.51973982E+01  7.59869910E+00  7.59869910E+00
 -1.51973982E+01  7.59869910E+00  7.59869910E+00 -1.51973982E+01  7.59869910E+00
  7.59869910E+00 -1.51973982E+01  7.59869910E+00  7.59869910E+00 -1.51973982E+01
  7.59869910E+00  7.59869910E+00 -1.51973982E+01  7.59869910E+00  7.59869910E+00
 -1.51973982E+01  7.59869910E+00  7.59869910E+00 -1.51973982E+01  7.59869910E+00
  7.59869910E+00 -1.51973982E+01  7.59869910E+00  7.59869910E+00 -1.51973982E+01
  7.59869910E+00  7.59869910E+00 -1.51973982E+01  7.59869910E+00  7.59869910E+00
 -1.51973982E+01  7.59869910E+00  7.59869910E+00 -1.51973982E+01  7.59869910E+00
  7.59869910E+00 -1.51973982E+01  7.59869910E+00  7.59869910E+00 -1.51973982E+01
  7.59869910E+00  7.59869910E+00 -1.51973982E+01  7.59869910E+00  7.59869910E+00
 -1.51973982E+01  7.59869910E+00  7.59869910E+00 -1.51973982E+01  7.59869910E+00
  7.59869910E+00 -1.51973982E+01  7.59869910E+00  7.59869910E+00 -1.51973982E+01
  7.59869910E+00  7.59869910E+00 -1.51973982E+01  7.59869910E+00  7.59869910E+00
 -1.51973982E+01  7.59869910E+00  7.59869910E+00 -1.51973982E+01  7.59869910E+00
  7.59869910E+00 -1.51973982E+01  7.59869910E+00  7.59869910E+00 -1.51973982E+01
  7.59869910E+00  7.59869910E+00 -1.51973982E+01  7.59869910E+00  7.59869910E+00
 -1.51973982E+01  7.59869910E+00  7.59869910E+00 -1.51973982E+01  7.59869910E+00
  7.59869910E+00 -1.51973982E+01  7.59869910E+00  7.59869910E+00 -1.51973982E+01
  7.59869910E+00  7.59869910E+00 -1.51973982E+01  7.59869910E+00  7.59869910E+00
 -1.51973982E+01  7.59869910E+00  7.59869910E+00 -1.51973982E+01  7.59869910E+00
  7.59869910E+00 -1.51973982E+01  7.59869910E+00  7.59869910E+00 -1.51973982E+01
  7.59869910E+00  7.59869910E+00 -1.51973982E+01  7.59869910E+00  7.59869910E+00
 -1.51973982E+01  7.59869910E+00  7.59869910E+00 -1.51973982E+01  7.59869910E+00
  7.59869910E+00 -1.51973982E+01  7.59869910E+00  7.59869910E+00 -1.51973982E+01
  7.59869910E+00  7.59869910E+00 -1.51973982E+01  7.59869910E+00  7.59869910E+00
 -1.51973982E+01  7.59869910E+00  7.59869910E+00 -1.51973982E+01  7.59869910E+00
  7.59869910E+00 -1.51973982E+01  7.59869910E+00  7.59869910E+00 -1.51973982E+01
  7.59869910E+00  7.59869910E+00 -1.51973982E+01  7.59869910E+00  7.59869910E+00
 -1.51973982E+01  7.59869910E+00  7.59869910E+00 -1.51973982E+01  7.59869910E+00
  7.59869910E+00 -1.51973982E+01  7.59869910E+00  7.59869910E+00 -1.51973982E+01
  7.59869910E+00  7.59869910E+00 -1.51973982E+01  7.59869910E+00  7.59869910E+00
 -1.51973982E+01  7.59869910E+00  7.59869910E+00 -1.51973982E+01  7.59869910E+00
  7.59869910E+00 -1.51973982E+01  7.59869910E+00  7.59869910E+00 -1.51973982E+01
  7.59869910E+00  7.59869910E+00 -1.51973982E+01  7.59869910E+00  7.59869910E+00
 -1.51973982E+01  7.59869910E+00  7.59869910E+00 -1.51973982E+01  7.59869910E+00
  7.59869910E+00 -1.51973982E+01  7.59869910E+00  7.59869910E+00 -1.51973982E+01
  7.59869910E+00  7.59869910E+00 -1.51973982E+01  7.59869910E+00  7.59869910E+00
 -1.51973982E+01  7.59869910E+00  7.59869910E+00 -1.51973982E+01  7.59869910E+00
  7.59869910E+00 -1.51973982E+01  7.59869910E+00  7.59869910E+00 -1.51973982E+01
  7.59869910E+00  7.59869910E+00 -1.51973982E+01  7.59869910E+00  7.59869910E+00
 -1.51973982E+01  7.59869910E+00  7.59869910E+00 -1.51973982E+01  7.59869910E+00
  7.59869910E+00 -1.51973982E+01  7.59869910E+00  7.59869910E+00 -1.51973982E+01
  7.59869910E+00  7.59869910E+00 -1.51973982E+01  7.59869910E+00  7.59869910E+00
 -1.51973982E+01  7.59869910E+00  7.59869910E+00 -1.51973982E+01  7.59869910E+00
  7.59869910E+00 -1.51973982E+01  7.59869910E+00  7.59869910E+00 -1.51973982E+01
  7.59869910E+00  7.59869910E+00 -1.51973982E+01  7.59869910E+00  7.59869910E+00
 -1.51973982E+01  7.59869910E+00  7.59869910E+00 -1.51973982E+01  7.59869910E+00
  7.59869910E+00 -1.51973982E+01  7.59869910E+00  7.59869910E+00 -1.51973982E+01
  7.59869910E+00  7.59869910E+00 -1.51973982E+01  7.59869910E+00  7.59869910E+00
 -1.51973982E+01  7.59869910E+00  7.59869910E+00 -1.51973982E+01  7.59869910E+00
  7.59869910E+00 -1.51973982E+01  7.59869910E+00  7.59869910E+00 -1.51973982E+01
  7.59869910E+00  7.59869910E+00 -1.51973982E+01  7.59869910E+00  7.59869910E+00
 -1.51973982E+01  7.59869910E+00  7.59869910E+00 -1.51973982E+01  7.59869910E+00
  7.59869910E+00 -1.51973982E+01  7.59869910E+00  7.59869910E+00 -1.51973982E+01
  7.59869910E+00  7.59869910E+00 -1.51973982E+01  7.59869910E+00  7.59869910E+00
 -1.51973982E+01  7.59869910E+00  7.59869910E+00 -1.51973982E+01  7.59869910E+00
  7.59869910E+00 -1.51973982E+01  7.59869910E+00  7.59869910E+00 -1.51973982E+01
  7.59869910E+00  7.59869910E+00 -1.51973982E+01  7.59869910E+00  7.59869910E+00
 -1.51973982E+01  7.59869910E+00  7.59869910E+00 -1.51973982E+01  7.59869910E+00
  7.59869910E+00 -1.51973982E+01  7.59869910E+00  7.59869910E+00 -1.51973982E+01
  7.59869910E+00  7.59869910E+00 -1.51973982E+01  7.59869910E+00  7.59869910E+00
 -1.51973982E+01  7.59869910E+00  7.59869910E+00 -1.51973982E+01  7.59869910E+00
  7.59869910E+00 -1.51973982E+01  7.59869910E+00  7.59869910E+00 -1.51973982E+01
  7.59869910E+00  7.59869910E+00 -1.51973982E+01  7.59869910E+00  7.59869910E+00
 -1.51973982E+01  7.59869910E+00  7.59869910E+00 -1.51973982E+01  7.59869910E+00
  7.59869910E+00 -1.51973982E+01  7.59869910E+00  7.59869910E+00 -1.51973982E+01
  7.59869910E+00  7.59869910E+00 -1.51973982E+01  7.59869910E+00  7.59869910E+00
 -1.51973982E+01  7.59869910E+00  7.59869910E+00 -1.51973982E+01  7.59869910E+00
  7.59869910E+00 -1.51973982E+01  7.59869910E+00  7.59869910E+00 -1.51973982E+01
  7.59869910E+00  7.59869910E+00 -1.51973982E+01  7.59869910E+00  7.59869910E+00
 -1.51973982E+01  7.59869910E+00  7.59869910E+00 -1.51973982E+01  7.59869910E+00
  7.59869910E+00 -1.51973982E+01  7.59869910E+00  7.59869910E+00 -1.51973982E+01
  7.59869910E+00  7.59869910E+00 -1.51973982E+01  7.59869910E+00  7.59869910E+00
 -1.51973982E+01  7.59869910E+00  7.59869910E+00 -1.51973982E+01  7.59869910E+00
  7.59869910E+00 -1.51973982E+01  7.59869910E+00  7.59869910E+00 -1.51973982E+01
  7.59869910E+00  7.59869910E+00 -1.51973982E+01  7.59869910E+00  7.59869910E+00
 -1.51973982E+01  7.59869910E+00  7.59869910E+00 -1.51973982E+01  7.59869910E+00
  7.59869910E+00 -1.51973982E+01  7.59869910E+00  7.59869910E+00 -1.51973982E+01
  7.59869910E+00  7.59869910E+00 -1.51973982E+01  7.59869910E+00  7.59869910E+00
 -1.51973982E+01  7.59869910E+00  7.59869910E+00 -1.51973982E+01  7.59869910E+00
  7.59869910E+00 -1.51973982E+01  7.59869910E+00  7.59869910E+00 -1.51973982E+01
  7.59869910E+00  7.59869910E+00 -1.51973982E+01  7.59869910E+00  7.59869910E+00
 -1.51973982E+01  7.59869910E+00  7.59869910E+00 -1.51973982E+01  7.59869910E+00
  7.59869910E+00 -1.51973982E+01  7.59869910E+00  7.59869910E+00 -1.51973982E+01
  7.59869910E+00  7.59869910E+00 -1.51973982E+01  7.59869910E+00  7.59869910E+00
 -1.51973982E+01  7.59869910E+00  7.59869910E+00 -1.51973982E+01  7.59869910E+00
  7.59869910E+00 -1.51973982E+01  7.59869910E+00  7.59869910E+00 -1.51973982E+01
  7.59869910E+00  7.59869910E+00 -1.51973982E+01  7.59869910E+00  7.59869910E+00
 -1.51973982E+01  7.59869910E+00  7.59869910E+00 -1.51973982E+01  7.59869910E+00
  7.59869910E+00 -1.51973982E+01  7.59869910E+00  7.59869910E+00 -1.51973982E+01
  7.59869910E+00  7.59869910E+00 -1.51973982E+01  7.59869910E+00  7.59869910E+00
 -1.51973982E+01  7.59869910E+00  7.59869910E+00 -1.51973982E+01  7.59869910E+00
  7.59869910E+00 -1.51973982E+01  7.59869910E+00  7.59869910E+00 -1.51973982E+01
  7.59869910E+00  7.59869910E+00 -1.51973982E+01  7.59869910E+00  7.59869910E+00
 -1.51973982E+01  7.59869910E+00  7.59869910E+00 -1.51973982E+01  7.59869910E+00
  7.59869910E+00 -1.51973982E+01  7.59869910E+00  7.59869910E+00 -1.51973982E+01
  7.59869910E+00  7.59869910E+00 -1.51973982E+01  7.59869910E+00  7.59869910E+00
 -1.51973982E+01  7.59869910E+00  7.59869910E+00 -1.51973982E+01  7.59869910E+00
  7.59869910E+00 -1.51973982E+01  7.59869910E+00  7.59869910E+00 -1.51973982E+01
  7.59869910E+00  7.59869910E+00 -1.51973982E+01  7.59869910E+00  7.59869910E+00
 -1.51973982E+01  7.59869910E+00  7.59869910E+00 -1.51973982E+01  7.59869910E+00
  7.59869910E+00 -1.51973982E+01  7.59869910E+00  7.59869910E+00 -1.51973982E+01
  7.59869910E+00  7.59869910E+00 -1.51973982E+01  7.59869910E+00  7.59869910E+00
 -1.51973982E+01  7.59869910E+00  7.59869910E+00 -1.51973982E+01  7.59869910E+00
  7.59869910E+00 -1.51973982E+01  7.59869910E+00  7.59869910E+00 -1.51973982E+01
  7.59869910E+00  7.59869910E+00 -1.51973982E+01  7.59869910E+00  7.59869910E+00
 -1.51973982E+01  7.59869910E+00  7.59869910E+00 -1.51973982E+01  7.59869910E+00
  7.59869910E+00 -1.51973982E+01  7.59869910E+00  7.59869910E+00 -1.51973982E+01
  7.59869910E+00  7.59869910E+00 -1.51973982E+01  7.59869910E+00  7.59869910E+00
 -1.51973982E+01  7.59869910E+00  7.59869910E+00 -1.51973982E+01  7.59869910E+00
  7.59869910E+00 -1.51973982E+01  7.59869910E+00  7.59869910E+00 -1.51973982E+01
  7.59869910E+00  7.59869910E+00 -1.51973982E+01  7.59869910E+00  7.59869910E+00
 -1.51973982E+01  7.59869910E+00  7.59869910E+00 -1.51973982E+01  7.59869910E+00
  7.59869910E+00 -1.51973982E+01  7.59869910E+00  7.59869910E+00 -1.51973982E+01
  7.59869910E+00  7.59869910E+00 -1.51973982E+01  7.59869910E+00  7.59869910E+00
 -1.51973982E+01  7.59869910E+00  7.59869910E+00 -1.51973982E+01  7.59869910E+00
  7.59869910E+00 -1.51973982E+01  7.59869910E+00  7.59869910E+00 -1.51973982E+01
  7.59869910E+00  7.59869910E+00 -1.51973982E+01  7.59869910E+00  7.59869910E+00
 -1.51973982E+01  7.59869910E+00  7.59869910E+00 -1.51973982E+01  7.59869910E+00
  7.59869910E+00 -1.51973982E+01  7.59869910E+00  7.59869910E+00 -1.51973982E+01
  7.59869910E+00  7.59869910E+00 -1.51973982E+01  7.59869910E+00  7.59869910E+00
 -1.51973982E+01  7.59869910E+00  7.59869910E+00 -1.51973982E+01  7.59869910E+00
  7.59869910E+00 -1.51973982E+01  7.59869910E+00  7.59869910E+00 -1.51973982E+01
  7.59869910E+00  7.59869910E+00 -1.51973982E+01  7.59869910E+00  7.59869910E+00
 -1.51973982E+01  7.59869910E+00  7.59869910E+00 -1.51973982E+01  7.59869910E+00
  7.59869910E+00 -1.51973982E+01  7.59869910E+00  7.59869910E+00 -1.51973982E+01
  7.59869910E+00  7.59869910E+00 -1.51973982E+01  7.59869910E+00  7.59869910E+00
 -1.51973982E+01  7.59869910E+00  7.59869910E+00 -1.51973982E+01  7.59869910E+00
  7.59869910E+00 -1.51973982E+01  7.59869910E+00  7.59869910E+00 -1.51973982E+01
  7.59869910E+00  7.59869910E+00 -1.51973982E+01  7.59869910E+00  7.59869910E+00
 -1.51973982E+01  7.59869910E+00  7.59869910E+00 -1.51973982E+01  7.59869910E+00
  7.59869910E+00 -1.51973982E+01  7.59869910E+00  7.59869910E+00 -1.51973982E+01
  7.59869910E+00  7.59869910E+00 -1.51973982E+01  7.59869910E+00  7.59869910E+00
 -1.51973982E+01  7.59869910E+00  7.59869910E+00 -1.51973982E+01  7.59869910E+00
  7.59869910E+00 -1.51973982E+01  7.59869910E+00  7.59869910E+00 -1.51973982E+01
  7.59869910E+00  7.59869910E+00 -1.51973982E+01  7.59869910E+00  7.59869910E+00
 -1.51973982E+01  7.59869910E+00  7.59869910E+00 -1.51973982E+01  7.59869910E+00
  7.59869910E+00 -1.51973982E+01  7.59869910E+00  7.59869910E+00 -1.51973982E+01
  7.59869910E+00  7.59869910E+00 -1.51973982E+01  7.59869910E+00  7.59869910E+00
 -1.51973982E+01  7.59869910E+00  7.59869910E+00 -1.51973982E+01  7.59869910E+00
  7.59869910E+00 -1.51973982E+01  7.59869910E+00  7.59869910E+00 -1.51973982E+01
  7.59869910E+00  7.59869910E+00 -1.51973982E+01  7.59869910E+00  7.59869910E+00
 -1.51973982E+01  7.59869910E+00  7.59869910E+00 -1.51973982E+01  7.59869910E+00
  7.59869910E+00 -1.51973982E+01  7.59869910E+00  7.59869910E+00 -1.51973982E+01
  7.59869910E+00  7.59869910E+00 -1.51973982E+01  7.59869910E+00  7.59869910E+00
 -1.51973982E+01  7.59869910E+00  7.59869910E+00 -1.51973982E+01  7.59869910E+00
  7.59869910E+00 -1.51973982E+01  7.59869910E+00  7.59869910E+00 -1.51973982E+01
  7.59869910E+00  7.59869910E+00 -1.51973982E+01  7.59869910E+00  7.59869910E+00
 -1.51973982E+01  7.59869910E+00  7.59869910E+00 -1.51973982E+01  7.59869910E+00
  7.59869910E+00 -1.51973982E+01  7.59869910E+00  7.59869910E+00 -1.51973982E+01
  7.59869910E+00  7.59869910E+00 -1.51973982E+01  7.59869910E+00  7.59869910E+00
 -1.51973982E+01  7.59869910E+00  7.59869910E+00 -1.51973982E+01  7.59869910E+00
  7.59869910E+00 -1.51973982E+01  7.59869910E+00  7.59869910E+00 -1.51973982E+01
  7.59869910E+00  7.59869910E+00 -1.51973982E+01  7.59869910E+00  7.59869910E+00
 -1.51973982E+01  7.59869910E+00  7.59869910E+00 -1.51973982E+01  7.59869910E+00
  7.59869910E+00 -1.51973982E+01  7.59869910E+00  7.59869910E+00 -1.51973982E+01
  7.59869910E+00  7.59869910E+00 -1.51973982E+01  7.59869910E+00  7.59869910E+00
 -1.51973982E+01  7.59869910E+00  7.59869910E+00 -1.51973982E+01  7.59869910E+00
  7.59869910E+00 -1.51973982E+01  7.59869910E+00  7.59869910E+00 -1.51973982E+01
  7.59869910E+00  7.59869910E+00 -1.51973982E+01  7.59869910E+00  7.59869910E+00
 -1.51973982E+01  7.59869910E+00  7.59869910E+00 -1.51973982E+01  7.59869910E+00
  7.59869910E+00 -1.51973982E+01  7.59869910E+00  7.59869910E+00 -1.51973982E+01
  7.59869910E+00  7.59869910E+00 -1.51973982E+01  7.59869910E+00  7.59869910E+00
 -1.51973982E+01  7.59869910E+00  7.59869910E+00 -1.51973982E+01  7.59869910E+00
  7.59869910E+00 -1.51973982E+01  7.59869910E+00  7.59869910E+00 -1.51973982E+01
  7.59869910E+00  7.59869910E+00 -1.51973982E+01  7.59869910E+00  7.59869910E+00
 -1.51973982E+01  7.59869910E+00  7.59869910E+00 -1.51973982E+01  7.59869910E+00
  7.59869910E+00 -1.51973982E+01  7.59869910E+00  7.59869910E+00 -1.51973982E+01
  7.59869910E+00  7.59869910E+00 -1.51973982E+01  7.59869910E+00  7.59869910E+00
 -1.51973982E+01  7.59869910E+00  7.59869910E+00 -1.51973982E+01  7.59869910E+00
  7.59869910E+00 -1.51973982E+01  7.59869910E+00  7.59869910E+00 -1.51973982E+01
  7.59869910E+00  7.59869910E+00 -1.51973982E+01  7.59869910E+00  7.59869910E+00
 -1.51973982E+01  7.59869910E+00  7.59869910E+00 -1.51973982E+01  7.59869910E+00
  7.59869910E+00 -1.51973982E+01  7.59869910E+00  7.59869910E+00 -1.51973982E+01
  7.59869910E+00  7.59869910E+00 -1.51973982E+01  7.59869910E+00  7.59869910E+00
 -1.51973982E+01  7.59869910E+00  7.59869910E+00 -1.51973982E+01  7.59869910E+00
  7.59869910E+00 -1.51973982E+01  7.59869910E+00  7.59869910E+00 -1.51973982E+01
  7.59869910E+00  7.59869910E+00 -1.51973982E+01  7.59869910E+00  7.59869910E+00
 -1.51973982E+01  7.59869910E+00  7.59869910E+00 -1.51973982E+01  7.59869910E+00
  7.59869910E+00 -1.51973982E+01  7.59869910E+00  7.59869910E+00 -1.51973982E+01
  7.59869910E+00  7.59869910E+00 -1.51973982E+01  7.59869910E+00  7.59869910E+00
 -1.51973982E+01  7.59869910E+00  7.59869910E+00 -1.51973982E+01  7.59869910E+00
  7.59869910E+00 -1.51973982E+01  7.59869910E+00  7.59869910E+00 -1.51973982E+01
  7.59869910E+00  7.59869910E+00 -1.51973982E+01  7.59869910E+00  7.59869910E+00
 -1.51973982E+01  7.59869910E+00  7.59869910E+00 -1.51973982E+01  7.59869910E+00
  7.59869910E+00 -1.51973982E+01  7.59869910E+00  7.59869910E+00 -1.51973982E+01
  7.59869910E+00  7.59869910E+00 -1.51973982E+01  7.59869910E+00  7.59869910E+00
 -1.51973982E+01  7.59869910E+00  7.59869910E+00 -1.51973982E+01  7.59869910E+00
  7.59869910E+00 -1.51973982E+01  7.59869910E+00  7.59869910E+00 -1.51973982E+01
  7.59869910E+00  7.59869910E+00 -1.51973982E+01  7.59869910E+00  7.59869910E+00
 -1.51973982E+01  7.59869910E+00  7.59869910E+00 -1.51973982E+01  7.59869910E+00
  7.59869910E+00 -1.51973982E+01  7.59869910E+00  7.59869910E+00 -1.51973982E+01
  7.59869910E+00  7.59869910E+00 -1.51973982E+01  7.59869910E+00  7.59869910E+00
 -1.51973982E+01  7.59869910E+00  7.59869910E+00 -1.51973982E+01  7.59869910E+00
  7.59869910E+00 -1.51973982E+01  7.59869910E+00  7.59869910E+00 -1.51973982E+01
  7.59869910E+00  7.59869910E+00 -1.51973982E+01  7.59869910E+00  7.59869910E+00
 -1.51973982E+01  7.59869910E+00  7.59869910E+00 -1.51973982E+01  7.59869910E+00
  7.59869910E+00 -1.51973982E+01  7.59869910E+00  7.59869910E+00 -1.51973982E+01
  7.59869910E+00  7.59869910E+00 -1.51973982E+01  7.59869910E+00  7.59869910E+00
 -1.51973982E+01  7.59869910E+00  7.59869910E+00 -1.51973982E+01  7.59869910E+00
  7.59869910E+00 -1.51973982E+01  7.59869910E+00  7.59869910E+00 -1.51973982E+01
  7.59869910E+00  7.59869910E+00 -1.51973982E+01  7.59869910E+00  7.59869910E+00
 -1.51973982E+01  7.59869910E+00  7.59869910E+00 -1.51973982E+01  7.59869910E+00
  7.59869910E+00 -1.51973982E+01  7.59869910E+00  7.59869910E+00 -1.51973982E+01
  7.59869910E+00  7.59869910E+00 -1.51973982E+01  7.59869910E+00  7.59869910E+00
 -1.51973982E+01  7.59869910E+00  7.59869910E+00 -1.51973982E+01  7.59869910E+00
  7.59869910E+00 -1.51973982E+01  7.59869910E+00  7.59869910E+00 -1.51973982E+01
  7.59869910E+00  7.59869910E+00 -1.51973982E+01  7.59869910E+00  7.59869910E+00
 -1.51973982E+01  7.59869910E+00  7.59869910E+00 -1.51973982E+01  7.59869910E+00
  7.59869910E+00 -1.51973982E+01  7.59869910E+00  7.59869910E+00 -1.51973982E+01
  7.59869910E+00  7.59869910E+00 -1.51973982E+01  7.59869910E+00  7.59869910E+00
 -1.51973982E+01  7.59869910E+00  7.59869910E+00 -1.51973982E+01  7.59869910E+00
  7.59869910E+00 -1.51973982E+01  7.59869910E+00  7.59869910E+00 -1.51973982E+01
  7.59869910E+00  7.59869910E+00 -1.51973982E+01  7.59869910E+00  7.59869910E+00
 -1.51973982E+01  7.59869910E+00  7.59869910E+00 -1.51973982E+01  7.59869910E+00
  7.59869910E+00 -1.51973982E+01  7.59869910E+00  7.59869910E+00 -1.51973982E+01
  7.59869910E+00  7.59869910E+00 -1.51973982E+01  7.59869910E+00  7.59869910E+00
 -1.51973982E+01  7.59869910E+00  7.59869910E+00 -1.51973982E+01  7.59869910E+00
  7.59869910E+00 -1.51973982E+01  7.59869910E+00  7.59869910E+00 -1.51973982E+01
  7.59869910E+00  7.59869910E+00 -1.51973982E+01  7.59869910E+00  7.59869910E+00
 -1.51973982E+01  7.59869910E+00  7.59869910E+00 -1.51973982E+01  7.59869910E+00
  7.59869910E+00 -1.51973982E+01  7.59869910E+00  7.59869910E+00 -1.51973982E+01
  7.59869910E+00  7.59869910E+00 -1.51973982E+01  7.59869910E+00  7.59869910E+00
 -1.51973982E+01  7.59869910E+00  7.59869910E+00 -1.51973982E+01  7.59869910E+00
  7.59869910E+00 -1.51973982E+01  7.59869910E+00  7.59869910E+00 -1.51973982E+01
  7.59869910E+00  7.59869910E+00 -1.51973982E+01  7.59869910E+00  7.59869910E+00
 -1.51973982E+01  7.59869910E+00  7.59869910E+00 -1.51973982E+01  7.59869910E+00
  7.59869910E+00 -1.51973982E+01  7.59869910E+00  7.59869910E+00 -1.51973982E+01
  7.59869910E+00  7.59869910E+00 -1.51973982E+01  7.59869910E+00  7.59869910E+00
 -1.51973982E+01  7.59869910E+00  7.59869910E+00 -1.51973982E+01  7.59869910E+00
  7.59869910E+00 -1.51973982E+01  7.59869910E+00  7.59869910E+00 -1.51973982E+01
  7.59869910E+00  7.59869910E+00 -1.51973982E+01  7.59869910E+00  7.59869910E+00
 -1.51973982E+01  7.59869910E+00  7.59869910E+00 -1.51973982E+01  7.59869910E+00
  7.59869910E+00 -1.51973982E+01  7.59869910E+00  7.59869910E+00 -1.51973982E+01
  7.59869910E+00  7.59869910E+00 -1.51973982E+01  7.59869910E+00  7.59869910E+00
 -1.51973982E+01  7.59869910E+00  7.59869910E+00 -1.51973982E+01  7.59869910E+00
  7.59869910E+00 -1.51973982E+01  7.59869910E+00  7.59869910E+00 -1.51973982E+01
  7.59869910E+00  7.59869910E+00 -1.51973982E+01  7.59869910E+00  7.59869910E+00
 -1.51973982E+01  7.59869910E+00  7.59869910E+00 -1.51973982E+01  7.59869910E+00
  7.59869910E+00 -1.51973982E+01  7.59869910E+00  7.59869910E+00 -1.51973982E+01
  7.59869910E+00  7.59869910E+00 -1.51973982E+01  7.59869910E+00  7.59869910E+00
 -1.51973982E+01  7.59869910E+00  7.59869910E+00 -1.51973982E+01  7.59869910E+00
  7.59869910E+00 -1.51973982E+01  7.59869910E+00  7.59869910E+00 -1.51973982E+01
  7.59869910E+00  7.59869910E+00 -1.51973982E+01  7.59869910E+00  7.59869910E+00
 -1.51973982E+01  7.59869910E+00  7.59869910E+00 -1.51973982E+01  7.59869910E+00
  7.59869910E+00 -1.51973982E+01  7.59869910E+00  7.59869910E+00 -1.51973982E+01
  7.59869910E+00  7.59869910E+00 -1.51973982E+01  7.59869910E+00  7.59869910E+00
 -1.51973982E+01  7.59869910E+00  7.59869910E+00 -1.51973982E+01  7.59869910E+00
  7.59869910E+00 -1.51973982E+01  7.59869910E+00  7.59869910E+00 -1.51973982E+01
  7.59869910E+00  7.59869910E+00 -1.51973982E+01  7.59869910E+00  7.59869910E+00
 -1.51973982E+01  7.59869910E+00  7.59869910E+00 -1.51973982E+01  7.59869910E+00
  7.59869910E+00 -1.51973982E+01  7.59869910E+00  7.59869910E+00 -1.51973982E+01
  7.59869910E+00  7.59869910E+00 -1.51973982E+01  7.59869910E+00  7.59869910E+00
 -1.51973982E+01  7.59869910E+00  7.59869910E+00 -1.51973982E+01  7.59869910E+00
  7.59869910E+00 -1.51973982E+01  7.59869910E+00  7.59869910E+00 -1.51973982E+01
  7.59869910E+00  7.59869910E+00 -1.51973982E+01  7.59869910E+00  7.59869910E+00
 -1.51973982E+01  7.59869910E+00  7.59869910E+00 -1.51973982E+01  7.59869910E+00
  7.59869910E+00 -1.51973982E+01  7.59869910E+00  7.59869910E+00 -1.51973982E+01
  7.59869910E+00  7.59869910E+00 -1.51973982E+01  7.59869910E+00  7.59869910E+00
 -1.51973982E+01  7.59869910E+00  7.59869910E+00 -1.51973982E+01  7.59869910E+00
  7.59869910E+00 -1.51973982E+01  7.59869910E+00  7.59869910E+00 -1.51973982E+01
  7.59869910E+00  7.59869910E+00 -1.51973982E+01  7.59869910E+00  7.59869910E+00
 -1.51973982E+01  7.59869910E+00  7.59869910E+00 -1.51973982E+01  7.59869910E+00
  7.59869910E+00 -1.51973982E+01  7.59869910E+00  7.59869910E+00 -1.51973982E+01
  7.59869910E+00  7.59869910E+00 -1.51973982E+01  7.59869910E+00  7.59869910E+00
 -1.51973982E+01  7.59869910E+00  7.59869910E+00 -1.51973982E+01  7.59869910E+00
  7.59869910E+00 -1.51973982E+01  7.59869910E+00  7.59869910E+00 -1.51973982E+01
  7.59869910E+00  7.59869910E+00 -1.51973982E+01  7.59869910E+00  7.59869910E+00
 -1.51973982E+01  7.59869910E+00  7.59869910E+00 -1.51973982E+01  7.59869910E+00
  7.59869910E+00 -1.51973982E+01  7.59869910E+00  7.59869910E+00 -1.51973982E+01
  7.59869910E+00  7.59869910E+00 -1.51973982E+01  7.59869910E+00  7.59869910E+00
 -1.51973982E+01  7.59869910E+00  7.59869910E+00 -1.51973982E+01  7.59869910E+00
  7.59869910E+00 -1.51973982E+01  7.59869910E+00  7.59869910E+00 -1.51973982E+01
  7.59869910E+00  7.59869910E+00 -1.51973982E+01  7.59869910E+00  7.59869910E+00
 -1.51973982E+01  7.59869910E+00  7.59869910E+00 -1.51973982E+01  7.59869910E+00
  7.59869910E+00 -1.51973982E+01  7.59869910E+00  7.59869910E+00 -1.51973982E+01
  7.59869910E+00  7.59869910E+00 -1.51973982E+01  7.59869910E+00  7.59869910E+00
 -1.51973982E+01  7.59869910E+00  7.59869910E+00 -1.51973982E+01  7.59869910E+00
  7.59869910E+00 -1.51973982E+01  7.59869910E+00  7.59869910E+00 -1.51973982E+01
  7.59869910E+00  7.59869910E+00 -1.51973982E+01  7.59869910E+00  7.59869910E+00
 -1.51973982E+01  7.59869910E+00  7.59869910E+00 -1.51973982E+01  7.59869910E+00
  7.59869910E+00 -1.51973982E+01  7.59869910E+00  7.59869910E+00 -1.51973982E+01
  7.59869910E+00  7.59869910E+00 -1.51973982E+01  7.59869910E+00  7.59869910E+00
 -1.51973982E+01  7.59869910E+00  7.59869910E+00 -1.51973982E+01  7.59869910E+00
  7.59869910E+00 -1.51973982E+01  7.59869910E+00  7.59869910E+00 -1.51973982E+01
  7.59869910E+00  7.59869910E+00 -1.51973982E+01  7.59869910E+00  7.59869910E+00
 -1.51973982E+01  7.59869910E+00  7.59869910E+00 -1.51973982E+01  7.59869910E+00
  7.59869910E+00 -1.51973982E+01  7.59869910E+00  7.59869910E+00 -1.51973982E+01
  7.59869910E+00  7.59869910E+00 -1.51973982E+01  7.59869910E+00  7.59869910E+00
 -1.51973982E+01  7.59869910E+00  7.59869910E+00 -1.51973982E+01  7.59869910E+00
  7.59869910E+00 -1.51973982E+01  7.59869910E+00  7.59869910E+00 -1.51973982E+01
  7.59869910E+00  7.59869910E+00 -1.51973982E+01  7.59869910E+00  7.59869910E+00
 -1.51973982E+01  7.59869910E+00  7.59869910E+00 -1.51973982E+01  7.59869910E+00
  7.59869910E+00 -1.51973982E+01  7.59869910E+00  7.59869910E+00 -1.51973982E+01
  7.59869910E+00  7.59869910E+00 -1.51973982E+01  7.59869910E+00  7.59869910E+00
 -1.51973982E+01  7.59869910E+00  7.59869910E+00 -1.51973982E+01  7.59869910E+00
  7.59869910E+00 -1.51973982E+01  7.59869910E+00  7.59869910E+00 -1.51973982E+01
  7.59869910E+00  7.59869910E+00 -1.51973982E+01  7.59869910E+00  7.59869910E+00
 -1.51973982E+01  7.59869910E+00  7.59869910E+00 -1.51973982E+01  7.59869910E+00
  7.59869910E+00 -1.51973982E+01  7.59869910E+00  7.59869910E+00 -1.51973982E+01
  7.59869910E+00  7.59869910E+00 -1.51973982E+01  7.59869910E+00  7.59869910E+00
 -1.51973982E+01  7.59869910E+00  7.59869910E+00 -1.51973982E+01  7.59869910E+00
  7.59869910E+00 -1.51973982E+01  7.59869910E+00  7.59869910E+00 -1.51973982E+01
  7.59869910E+00  7.59869910E+00 -1.51973982E+01  7.59869910E+00  7.59869910E+00
 -1.51973982E+01  7.59869910E+00  7.59869910E+00 -1.51973982E+01  7.59869910E+00
  7.59869910E+00 -1.51973982E+01  7.59869910E+00  7.59869910E+00 -1.51973982E+01
  7.59869910E+00  7.59869910E+00 -1.51973982E+01  7.59869910E+00  7.59869910E+00
 -1.51973982E+01  7.59869910E+00  7.59869910E+00 -1.51973982E+01  7.59869910E+00
  7.59869910E+00 -1.51973982E+01  7.59869910E+00  7.59869910E+00 -1.51973982E+01
  7.59869910E+00  7.59869910E+00 -1.51973982E+01  7.59869910E+00  7.59869910E+00
 -1.51973982E+01  7.59869910E+00  7.59869910E+00 -1.51973982E+01  7.59869910E+00
  7.59869910E+00 -1.51973982E+01  7.59869910E+00  7.59869910E+00 -1.51973982E+01
  7.59869910E+00  7.59869910E+00 -1.51973982E+01  7.59869910E+00  7.59869910E+00
 -1.51973982E+01  7.59869910E+00  7.59869910E+00 -1.51973982E+01  7.59869910E+00
  7.59869910E+00 -1.51973982E+01  7.59869910E+00  7.59869910E+00 -1.51973982E+01
  7.59869910E+00  7.59869910E+00 -1.51973982E+01  7.59869910E+00  7.59869910E+00
 -1.51973982E+01  7.59869910E+00  7.59869910E+00 -1.51973982E+01  7.59869910E+00
  7.59869910E+00 -1.51973982E+01  7.59869910E+00  7.59869910E+00 -1.51973982E+01
  7.59869910E+00  7.59869910E+00 -1.51973982E+01  7.59869910E+00  7.59869910E+00
 -1.51973982E+01  7.59869910E+00  7.59869910E+00 -1.51973982E+01  7.59869910E+00
  7.59869910E+00 -1.51973982E+01  7.59869910E+00  7.59869910E+00 -1.51973982E+01
  7.59869910E+00  7.59869910E+00 -1.51973982E+01  7.59869910E+00  7.59869910E+00
 -1.51973982E+01  7.59869910E+00  7.59869910E+00 -1.51973982E+01  7.59869910E+00
  7.59869910E+00 -1.51973982E+01  7.59869910E+00  7.59869910E+00 -1.51973982E+01
  7.59869910E+00  7.59869910E+00 -1.51973982E+01  7.59869910E+00  7.59869910E+00
 -1.51973982E+01  7.59869910E+00  7.59869910E+00 -1.51973982E+01  7.59869910E+00
  7.59869910E+00 -1.51973982E+01  7.59869910E+00  7.59869910E+00 -1.51973982E+01
  7.59869910E+00  7.59869910E+00 -1.51973982E+01  7.59869910E+00  7.59869910E+00
 -1.51973982E+01  7.59869910E+00  7.59869910E+00 -1.51973982E+01  7.59869910E+00
  7.59869910E+00 -1.51973982E+01  7.59869910E+00  7.59869910E+00 -1.51973982E+01
  7.59869910E+00  7.59869910E+00 -1.51973982E+01  7.59869910E+00  7.59869910E+00
 -1.51973982E+01  7.59869910E+00  7.59869910E+00 -1.51973982E+01  7.59869910E+00
  7.59869910E+00 -1.51973982E+01  7.59869910E+00  7.59869910E+00 -1.51973982E+01
  7.59869910E+00  7.59869910E+00 -1.51973982E+01  7.59869910E+00  7.59869910E+00
 -1.51973982E+01  7.59869910E+00  7.59869910E+00 -1.51973982E+01  7.59869910E+00
  7.59869910E+00 -1.51973982E+01  7.59869910E+00  7.59869910E+00 -1.51973982E+01
  7.59869910E+00  7.59869910E+00 -1.51973982E+01  7.59869910E+00  7.59869910E+00
 -1.51973982E+01  7.59869910E+00  7.59869910E+00 -1.51973982E+01  7.59869910E+00
  7.59869910E+00 -1.51973982E+01  7.59869910E+00  7.59869910E+00 -1.51973982E+01
  7.59869910E+00  7.59869910E+00 -1.51973982E+01  7.59869910E+00  7.59869910E+00
 -1.51973982E+01  7.59869910E+00  7.59869910E+00 -1.51973982E+01  7.59869910E+00
  7.59869910E+00 -1.51973982E+01  7.59869910E+00  7.59869910E+00 -1.51973982E+01
  7.59869910E+00  7.59869910E+00 -1.51973982E+01  7.59869910E+00  7.59869910E+00
 -1.51973982E+01  7.59869910E+00  7.59869910E+00 -1.51973982E+01  7.59869910E+00
  7.59869910E+00 -1.51973982E+01  7.59869910E+00  7.59869910E+00 -1.51973982E+01
  7.59869910E+00  7.59869910E+00 -1.51973982E+01  7.59869910E+00  7.59869910E+00
 -1.51973982E+01  7.59869910E+00  7.59869910E+00 -1.51973982E+01  7.59869910E+00
  7.59869910E+00 -1.51973982E+01  7.59869910E+00  7.59869910E+00 -1.51973982E+01
  7.59869910E+00  7.59869910E+00 -1.51973982E+01  7.59869910E+00  7.59869910E+00
 -1.51973982E+01  7.59869910E+00  7.59869910E+00 -1.51973982E+01  7.59869910E+00
  7.59869910E+00 -1.51973982E+01  7.59869910E+00  7.59869910E+00 -1.51973982E+01
  7.59869910E+00  7.59869910E+00 -1.51973982E+01  7.59869910E+00  7.59869910E+00
 -1.51973982E+01  7.59869910E+00  7.59869910E+00 -1.51973982E+01  7.59869910E+00
  7.59869910E+00 -1.51973982E+01  7.59869910E+00  7.59869910E+00 -1.51973982E+01
  7.59869910E+00  7.59869910E+00 -1.51973982E+01  7.59869910E+00  7.59869910E+00
 -1.51973982E+01  7.59869910E+00  7.59869910E+00 -1.51973982E+01  7.59869910E+00
  7.59869910E+00 -1.51973982E+01  7.59869910E+00  7.59869910E+00 -1.51973982E+01
  7.59869910E+00  7.59869910E+00 -1.51973982E+01  7.59869910E+00  7.59869910E+00
 -1.51973982E+01  7.59869910E+00  7.59869910E+00 -1.51973982E+01  7.59869910E+00
  7.59869910E+00 -1.51973982E+01  7.59869910E+00  7.59869910E+00 -1.51973982E+01
  7.59869910E+00  7.59869910E+00 -1.51973982E+01  7.59869910E+00  7.59869910E+00
 -1.51973982E+01  7.59869910E+00  7.59869910E+00 -1.51973982E+01  7.59869910E+00
  7.59869910E+00 -1.51973982E+01  7.59869910E+00  7.59869910E+00 -1.51973982E+01
  7.59869910E+00  7.59869910E+00 -1.51973982E+01  7.59869910E+00  7.59869910E+00
 -1.51973982E+01  7.59869910E+00  7.59869910E+00 -1.51973982E+01  7.59869910E+00
  7.59869910E+00 -1.51973982E+01  7.59869910E+00  7.59869910E+00 -1.51973982E+01
  7.59869910E+00  7.59869910E+00 -1.51973982E+01  7.59869910E+00  7.59869910E+00
 -1.51973982E+01  7.59869910E+00  7.59869910E+00 -1.51973982E+01  7.59869910E+00
  7.59869910E+00 -1.51973982E+01  7.59869910E+00  7.59869910E+00 -1.51973982E+01
  7.59869910E+00  7.59869910E+00 -1.51973982E+01  7.59869910E+00  7.59869910E+00
 -1.51973982E+01  7.59869910E+00  7.59869910E+00 -1.51973982E+01  7.59869910E+00
  7.59869910E+00 -1.51973982E+01  7.59869910E+00  7.59869910E+00 -1.51973982E+01
  7.59869910E+00  7.59869910E+00 -1.51973982E+01  7.59869910E+00  7.59869910E+00
 -1.51973982E+01  7.59869910E+00  7.59869910E+00 -1.51973982E+01  7.59869910E+00
  7.59869910E+00 -1.51973982E+01  7.59869910E+00  7.59869910E+00 -1.51973982E+01
  7.59869910E+00  7.59869910E+00 -1.51973982E+01  7.59869910E+00  7.59869910E+00
 -1.51973982E+01  7.59869910E+00  7.59869910E+00 -1.51973982E+01  7.59869910E+00
  7.59869910E+00 -1.51973982E+01  7.59869910E+00  7.59869910E+00 -1.51973982E+01
  7.59869910E+00  7.59869910E+00 -1.51973982E+01  7.59869910E+00  7.59869910E+00
 -1.51973982E+01  7.59869910E+00  7.59869910E+00 -1.51973982E+01  7.59869910E+00
  7.59869910E+00 -1.51973982E+01  7.59869910E+00  7.59869910E+00 -1.51973982E+01
  7.59869910E+00  7.59869910E+00 -1.51973982E+01  7.59869910E+00  7.59869910E+00
 -1.51973982E+01  7.59869910E+00  7.59869910E+00 -1.51973982E+01  7.59869910E+00
  7.59869910E+00 -1.51973982E+01  7.59869910E+00  7.59869910E+00 -1.51973982E+01
  7.59869910E+00  7.59869910E+00 -1.51973982E+01  7.59869910E+00  7.59869910E+00
 -1.51973982E+01  7.59869910E+00  7.59869910E+00 -1.51973982E+01  7.59869910E+00
  7.59869910E+00 -1.51973982E+01  7.59869910E+00  7.59869910E+00 -1.51973982E+01
  7.59869910E+00  7.59869910E+00 -1.51973982E+01  7.59869910E+00  7.59869910E+00
 -1.51973982E+01  7.59869910E+00  7.59869910E+00 -1.51973982E+01  7.59869910E+00
  7.59869910E+00 -1.51973982E+01  7.59869910E+00  7.59869910E+00 -1.51973982E+01
  7.59869910E+00  7.59869910E+00 -1.51973982E+01  7.59869910E+00  7.59869910E+00
 -1.51973982E+01  7.59869910E+00  7.59869910E+00 -1.51973982E+01  7.59869910E+00
  7.59869910E+00 -1.51973982E+01  7.59869910E+00  7.59869910E+00 -1.51973982E+01
  7.59869910E+00  7.59869910E+00 -1.51973982E+01  7.59869910E+00  7.59869910E+00
 -1.51973982E+01  7.59869910E+00  7.59869910E+00 -1.51973982E+01  7.59869910E+00
  7.59869910E+00 -1.51973982E+01  7.59869910E+00  7.59869910E+00 -1.51973982E+01
  7.59869910E+00  7.59869910E+00 -1.51973982E+01  7.59869910E+00  7.59869910E+00
 -1.51973982E+01  7.59869910E+00  7.59869910E+00 -1.51973982E+01  7.59869910E+00
  7.59869910E+00 -1.51973982E+01  7.59869910E+00  7.59869910E+00 -1.51973982E+01
  7.59869910E+00  7.59869910E+00 -1.51973982E+01  7.59869910E+00  7.59869910E+00
 -1.51973982E+01  7.59869910E+00  7.59869910E+00 -1.51973982E+01  7.59869910E+00
  7.59869910E+00 -1.51973982E+01  7.59869910E+00  7.59869910E+00 -1.51973982E+01
  7.59869910E+00  7.59869910E+00 -1.51973982E+01  7.59869910E+00  7.59869910E+00
 -1.51973982E+01  7.59869910E+00  7.59869910E+00 -1.51973982E+01  7.59869910E+00
  7.59869910E+00 -1.51973982E+01  7.59869910E+00  7.59869910E+00 -1.51973982E+01
  7.59869910E+00  7.59869910E+00 -1.51973982E+01  7.59869910E+00  7.59869910E+00
 -1.51973982E+01  7.59869910E+00  7.59869910E+00 -1.51973982E+01  7.59869910E+00
  7.59869910E+00 -1.51973982E+01  7.59869910E+00  7.59869910E+00 -1.51973982E+01
  7.59869910E+00  7.59869910E+00 -1.51973982E+01  7.59869910E+00  7.59869910E+00
 -1.51973982E+01  7.59869910E+00  7.59869910E+00 -1.51973982E+01  7.59869910E+00
  7.59869910E+00 -1.51973982E+01  7.59869910E+00  7.59869910E+00 -1.51973982E+01
  7.59869910E+00  7.59869910E+00 -1.51973982E+01  7.59869910E+00  7.59869910E+00
 -1.51973982E+01  7.59869910E+00  7.59869910E+00 -1.51973982E+01  7.59869910E+00
  7.59869910E+00 -1.51973982E+01  7.59869910E+00  7.59869910E+00 -1.51973982E+01
  7.59869910E+00  7.59869910E+00 -1.51973982E+01  7.59869910E+00  7.59869910E+00
 -1.51973982E+01  7.59869910E+00  7.59869910E+00 -1.51973982E+01  7.59869910E+00
  7.59869910E+00 -1.51973982E+01  7.59869910E+00  7.59869910E+00 -1.51973982E+01
  7.59869910E+00  7.59869910E+00 -1.51973982E+01  7.59869910E+00  7.59869910E+00
 -1.51973982E+01  7.59869910E+00  7.59869910E+00 -1.51973982E+01  7.59869910E+00
  7.59869910E+00 -1.51973982E+01  7.59869910E+00  7.59869910E+00 -1.51973982E+01
  7.59869910E+00  7.59869910E+00 -1.51973982E+01  7.59869910E+00  7.59869910E+00
 -1.51973982E+01  7.59869910E+00  7.59869910E+00 -1.51973982E+01  7.59869910E+00
  7.59869910E+00 -1.51973982E+01  7.59869910E+00  7.59869910E+00 -1.51973982E+01
  7.59869910E+00  7.59869910E+00 -1.51973982E+01  7.59869910E+00  7.59869910E+00
 -1.51973982E+01  7.59869910E+00  7.59869910E+00 -1.51973982E+01  7.59869910E+00
  7.59869910E+00 -1.51973982E+01  7.59869910E+00  7.59869910E+00 -1.51973982E+01
  7.59869910E+00  7.59869910E+00 -1.51973982E+01  7.59869910E+00  7.59869910E+00
 -1.51973982E+01  7.59869910E+00  7.59869910E+00 -1.51973982E+01  7.59869910E+00
  7.59869910E+00 -1.51973982E+01  7.59869910E+00  7.59869910E+00 -1.51973982E+01
  7.59869910E+00  7.59869910E+00 -1.51973982E+01  7.59869910E+00  7.59869910E+00
 -1.51973982E+01  7.59869910E+00  7.59869910E+00 -1.51973982E+01  7.59869910E+00
  7.59869910E+00 -1.51973982E+01  7.59869910E+00  7.59869910E+00 -1.51973982E+01
  7.59869910E+00  7.59869910E+00 -1.51973982E+01  7.59869910E+00  7.59869910E+00
 -1.51973982E+01  7.59869910E+00  7.59869910E+00 -1.51973982E+01  7.59869910E+00
  7.59869910E+00 -1.51973982E+01  7.59869910E+00  7.59869910E+00 -1.51973982E+01
  7.59869910E+00  7.59869910E+00 -1.51973982E+01  7.59869910E+00  7.59869910E+00
 -1.51973982E+01  7.59869910E+00  7.59869910E+00 -1.51973982E+01  7.59869910E+00
  7.59869910E+00 -1.51973982E+01  7.59869910E+00  7.59869910E+00 -1.51973982E+01
  7.59869910E+00  7.59869910E+00 -1.51973982E+01  7.59869910E+00  7.59869910E+00
 -1.51973982E+01  7.59869910E+00  7.59869910E+00 -1.51973982E+01  7.59869910E+00
  7.59869910E+00 -1.51973982E+01  7.59869910E+00  7.59869910E+00 -1.51973982E+01
  7.59869910E+00  7.59869910E+00 -1.51973982E+01  7.59869910E+00  7.59869910E+00
 -1.51973982E+01  7.59869910E+00  7.59869910E+00 -1.51973982E+01  7.59869910E+00
  7.59869910E+00 -1.51973982E+01  7.59869910E+00  7.59869910E+00 -1.51973982E+01
  7.59869910E+00  7.59869910E+00 -1.51973982E+01  7.59869910E+00  7.59869910E+00
 -1.51973982E+01  7.59869910E+00  7.59869910E+00 -1.51973982E+01  7.59869910E+00
  7.59869910E+00 -1.51973982E+01  7.59869910E+00  7.59869910E+00 -1.51973982E+01
  7.59869910E+00  7.59869910E+00 -1.51973982E+01  7.59869910E+00  7.59869910E+00
 -1.51973982E+01  7.59869910E+00  7.59869910E+00 -1.51973982E+01  7.59869910E+00
  7.59869910E+00 -1.51973982E+01  7.59869910E+00  7.59869910E+00 -1.51973982E+01
  7.59869910E+00  7.59869910E+00 -1.51973982E+01  7.59869910E+00  7.59869910E+00
 -1.51973982E+01  7.59869910E+00  7.59869910E+00 -1.51973982E+01  7.59869910E+00
  7.59869910E+00 -1.51973982E+01  7.59869910E+00  7.59869910E+00 -1.51973982E+01
  7.59869910E+00  7.59869910E+00 -1.51973982E+01  7.59869910E+00  7.59869910E+00
 -1.51973982E+01  7.59869910E+00  7.59869910E+00 -1.51973982E+01  7.59869910E+00
  7.59869910E+00 -1.51973982E+01  7.59869910E+00  7.59869910E+00 -1.51973982E+01
  7.59869910E+00  7.59869910E+00 -1.51973982E+01  7.59869910E+00  7.59869910E+00
 -1.51973982E+01  7.59869910E+00  7.59869910E+00 -1.51973982E+01  7.59869910E+00
  7.59869910E+00 -1.51973982E+01  7.59869910E+00  7.59869910E+00 -1.51973982E+01
  7.59869910E+00  7.59869910E+00 -1.51973982E+01  7.59869910E+00  7.59869910E+00
 -1.51973982E+01  7.59869910E+00  7.59869910E+00 -1.51973982E+01  7.59869910E+00
  7.59869910E+00 -1.51973982E+01  7.59869910E+00  7.59869910E+00 -1.51973982E+01
  7.59869910E+00  7.59869910E+00 -1.51973982E+01  7.59869910E+00  7.59869910E+00
 -1.51973982E+01  7.59869910E+00  7.59869910E+00 -1.51973982E+01  7.59869910E+00
  7.59869910E+00 -1.51973982E+01  7.59869910E+00  7.59869910E+00 -1.51973982E+01
  7.59869910E+00  7.59869910E+00 -1.51973982E+01  7.59869910E+00  7.59869910E+00
 -1.51973982E+01  7.59869910E+00  7.59869910E+00 -1.51973982E+01  7.59869910E+00
  7.59869910E+00 -1.51973982E+01  7.59869910E+00  7.59869910E+00 -1.51973982E+01
  7.59869910E+00  7.59869910E+00 -1.51973982E+01  7.59869910E+00  7.59869910E+00
 -1.51973982E+01  7.59869910E+00  7.59869910E+00 -1.51973982E+01  7.59869910E+00
  7.59869910E+00 -1.51973982E+01  7.59869910E+00  7.59869910E+00 -1.51973982E+01
  7.59869910E+00  7.59869910E+00 -1.51973982E+01  7.59869910E+00  7.59869910E+00
 -1.51973982E+01  7.59869910E+00  7.59869910E+00 -1.51973982E+01  7.59869910E+00
  7.59869910E+00 -1.51973982E+01  7.59869910E+00  7.59869910E+00 -1.51973982E+01
  7.59869910E+00  7.59869910E+00 -1.51973982E+01  7.59869910E+00  7.59869910E+00
 -1.51973982E+01  7.59869910E+00  7.59869910E+00 -1.51973982E+01  7.59869910E+00
  7.59869910E+00 -1.51973982E+01  7.59869910E+00  7.59869910E+00 -1.51973982E+01
  7.59869910E+00  7.59869910E+00 -1.51973982E+01  7.59869910E+00  7.59869910E+00
 -1.51973982E+01  7.59869910E+00  7.59869910E+00 -1.51973982E+01  7.59869910E+00
  7.59869910E+00 -1.51973982E+01  7.59869910E+00  7.59869910E+00 -1.51973982E+01
  7.59869910E+00  7.59869910E+00 -1.51973982E+01  7.59869910E+00  7.59869910E+00
 -1.51973982E+01  7.59869910E+00  7.59869910E+00 -1.51973982E+01  7.59869910E+00
  7.59869910E+00 -1.51973982E+01  7.59869910E+00  7.59869910E+00 -1.51973982E+01
  7.59869910E+00  7.59869910E+00 -1.51973982E+01  7.59869910E+00  7.59869910E+00
 -1.51973982E+01  7.59869910E+00  7.59869910E+00 -1.51973982E+01  7.59869910E+00
  7.59869910E+00 -1.51973982E+01  7.59869910E+00  7.59869910E+00 -1.51973982E+01
  7.59869910E+00  7.59869910E+00 -1.51973982E+01  7.59869910E+00  7.59869910E+00
 -1.51973982E+01  7.59869910E+00  7.59869910E+00 -1.51973982E+01  7.59869910E+00
  7.59869910E+00 -1.51973982E+01  7.59869910E+00  7.59869910E+00 -1.51973982E+01
  7.59869910E+00  7.59869910E+00 -1.51973982E+01  7.59869910E+00  7.59869910E+00
 -1.51973982E+01  7.59869910E+00  7.59869910E+00 -1.51973982E+01  7.59869910E+00
  7.59869910E+00 -1.51973982E+01  7.59869910E+00  7.59869910E+00 -1.51973982E+01
  7.59869910E+00  7.59869910E+00 -1.51973982E+01  7.59869910E+00  7.59869910E+00
 -1.51973982E+01  7.59869910E+00  7.59869910E+00 -1.51973982E+01  7.59869910E+00
  7.59869910E+00 -1.51973982E+01  7.59869910E+00  7.59869910E+00 -1.51973982E+01
  7.59869910E+00  7.59869910E+00 -1.51973982E+01  7.59869910E+00  7.59869910E+00
 -1.51973982E+01  7.59869910E+00  7.59869910E+00 -1.51973982E+01  7.59869910E+00
  7.59869910E+00 -1.51973982E+01  7.59869910E+00  7.59869910E+00 -1.51973982E+01
  7.59869910E+00  7.59869910E+00 -1.51973982E+01  7.59869910E+00  7.59869910E+00
 -1.51973982E+01  7.59869910E+00  7.59869910E+00 -1.51973982E+01  7.59869910E+00
  7.59869910E+00 -1.51973982E+01  7.59869910E+00  7.59869910E+00 -1.51973982E+01
  7.59869910E+00  7.59869910E+00 -1.51973982E+01  7.59869910E+00  7.59869910E+00
 -1.51973982E+01  7.59869910E+00  7.59869910E+00 -1.51973982E+01  7.59869910E+00
  7.59869910E+00 -1.51973982E+01  7.59869910E+00  7.59869910E+00 -1.51973982E+01
  7.59869910E+00  7.59869910E+00 -1.51973982E+01  7.59869910E+00  7.59869910E+00
 -1.51973982E+01  7.59869910E+00  7.59869910E+00 -1.51973982E+01  7.59869910E+00
  7.59869910E+00 -1.51973982E+01  7.59869910E+00  7.59869910E+00 -1.51973982E+01
  7.59869910E+00  7.59869910E+00 -1.51973982E+01  7.59869910E+00  7.59869910E+00
 -1.51973982E+01  7.59869910E+00  7.59869910E+00 -1.51973982E+01  7.59869910E+00
  7.59869910E+00 -1.51973982E+01  7.59869910E+00  7.59869910E+00 -1.51973982E+01
  7.59869910E+00  7.59869910E+00 -1.51973982E+01  7.59869910E+00  7.59869910E+00
 -1.51973982E+01  7.59869910E+00  7.59869910E+00 -1.51973982E+01  7.59869910E+00
  7.59869910E+00 -1.51973982E+01  7.59869910E+00  7.59869910E+00 -1.51973982E+01
  7.59869910E+00  7.59869910E+00 -1.51973982E+01  7.59869910E+00  7.59869910E+00
 -1.51973982E+01  7.59869910E+00  7.59869910E+00 -1.51973982E+01  7.59869910E+00
  7.59869910E+00 -1.51973982E+01  7.59869910E+00  7.59869910E+00 -1.51973982E+01
  7.59869910E+00  7.59869910E+00 -1.51973982E+01  7.59869910E+00  7.59869910E+00
 -1.51973982E+01  7.59869910E+00  7.59869910E+00 -1.51973982E+01  7.59869910E+00
  7.59869910E+00 -1.51973982E+01  7.59869910E+00  7.59869910E+00 -1.51973982E+01
  7.59869910E+00  7.59869910E+00 -1.51973982E+01  7.59869910E+00  7.59869910E+00
 -1.51973982E+01  7.59869910E+00  7.59869910E+00 -1.51973982E+01  7.59869910E+00
  7.59869910E+00 -1.51973982E+01  7.59869910E+00  7.59869910E+00 -1.51973982E+01
  7.59869910E+00  7.59869910E+00 -1.51973982E+01  7.59869910E+00  7.59869910E+00
 -1.51973982E+01  7.59869910E+00  7.59869910E+00 -1.51973982E+01  7.59869910E+00
  7.59869910E+00 -1.51973982E+01  7.59869910E+00  7.59869910E+00 -1.51973982E+01
  7.59869910E+00  7.59869910E+00 -1.51973982E+01  7.59869910E+00  7.59869910E+00
 -1.51973982E+01  7.59869910E+00  7.59869910E+00 -1.51973982E+01  7.59869910E+00
  7.59869910E+00 -1.51973982E+01  7.59869910E+00  7.59869910E+00 -1.51973982E+01
  7.59869910E+00  7.59869910E+00 -1.51973982E+01  7.59869910E+00  7.59869910E+00
 -1.51973982E+01  7.59869910E+00  7.59869910E+00 -1.51973982E+01  7.59869910E+00
  7.59869910E+00 -1.51973982E+01  7.59869910E+00  7.59869910E+00 -1.51973982E+01
  7.59869910E+00  7.59869910E+00 -1.51973982E+01  7.59869910E+00  7.59869910E+00
 -1.51973982E+01  7.59869910E+00  7.59869910E+00 -1.51973982E+01  7.59869910E+00
  7.59869910E+00 -1.51973982E+01  7.59869910E+00  7.59869910E+00 -1.51973982E+01
  7.59869910E+00  7.59869910E+00 -1.51973982E+01  7.59869910E+00  7.59869910E+00
 -1.51973982E+01  7.59869910E+00  7.59869910E+00 -1.51973982E+01  7.59869910E+00
  7.59869910E+00 -1.51973982E+01  7.59869910E+00  7.59869910E+00 -1.51973982E+01
  7.59869910E+00  7.59869910E+00 -1.51973982E+01  7.59869910E+00  7.59869910E+00
 -1.51973982E+01  7.59869910E+00  7.59869910E+00 -1.51973982E+01  7.59869910E+00
  7.59869910E+00 -1.51973982E+01  7.59869910E+00  7.59869910E+00 -1.51973982E+01
  7.59869910E+00  7.59869910E+00 -1.51973982E+01  7.59869910E+00  7.59869910E+00
 -1.51973982E+01  7.59869910E+00  7.59869910E+00 -1.51973982E+01  7.59869910E+00
  7.59869910E+00 -1.51973982E+01  7.59869910E+00  7.59869910E+00 -1.51973982E+01
  7.59869910E+00  7.59869910E+00 -1.51973982E+01  7.59869910E+00  7.59869910E+00
 -1.51973982E+01  7.59869910E+00  7.59869910E+00 -1.51973982E+01  7.59869910E+00
  7.59869910E+00 -1.51973982E+01  7.59869910E+00  7.59869910E+00 -1.51973982E+01
  7.59869910E+00  7.59869910E+00 -1.51973982E+01  7.59869910E+00  7.59869910E+00
 -1.51973982E+01  7.59869910E+00  7.59869910E+00 -1.51973982E+01  7.59869910E+00
  7.59869910E+00 -1.51973982E+01  7.59869910E+00  7.59869910E+00 -1.51973982E+01
  7.59869910E+00  7.59869910E+00 -1.51973982E+01  7.59869910E+00  7.59869910E+00
 -1.51973982E+01  7.59869910E+00  7.59869910E+00 -1.51973982E+01  7.59869910E+00
  7.59869910E+00 -1.51973982E+01  7.59869910E+00  7.59869910E+00 -1.51973982E+01
  7.59869910E+00  7.59869910E+00 -1.51973982E+01  7.59869910E+00  7.59869910E+00
 -1.51973982E+01  7.59869910E+00  7.59869910E+00 -1.51973982E+01  7.59869910E+00
  7.59869910E+00 -1.51973982E+01  7.59869910E+00  7.59869910E+00 -1.51973982E+01
  7.59869910E+00  7.59869910E+00 -1.51973982E+01  7.59869910E+00  7.59869910E+00
 -1.51973982E+01  7.59869910E+00  7.59869910E+00 -1.51973982E+01  7.59869910E+00
  7.59869910E+00 -1.51973982E+01  7.59869910E+00  7.59869910E+00 -1.51973982E+01
  7.59869910E+00  7.59869910E+00 -1.51973982E+01  7.59869910E+00  7.59869910E+00
 -1.51973982E+01  7.59869910E+00  7.59869910E+00 -1.51973982E+01  7.59869910E+00
  7.59869910E+00 -1.51973982E+01  7.59869910E+00  7.59869910E+00 -1.51973982E+01
  7.59869910E+00  7.59869910E+00 -1.51973982E+01  7.59869910E+00  7.59869910E+00
 -1.51973982E+01  7.59869910E+00  7.59869910E+00 -1.51973982E+01  7.59869910E+00
  7.59869910E+00 -1.51973982E+01  7.59869910E+00  7.59869910E+00 -1.51973982E+01
  7.59869910E+00  7.59869910E+00 -1.51973982E+01  7.59869910E+00  7.59869910E+00
 -1.51973982E+01  7.59869910E+00  7.59869910E+00 -1.51973982E+01  7.59869910E+00
  7.59869910E+00 -1.51973982E+01  7.59869910E+00  7.59869910E+00 -1.51973982E+01
  7.59869910E+00  7.59869910E+00 -1.51973982E+01  7.59869910E+00  7.59869910E+00
 -1.51973982E+01  7.59869910E+00  7.59869910E+00 -1.51973982E+01  7.59869910E+00
  7.59869910E+00 -1.51973982E+01  7.59869910E+00  7.59869910E+00 -1.51973982E+01
  7.59869910E+00  7.59869910E+00 -1.51973982E+01  7.59869910E+00  7.59869910E+00
 -1.51973982E+01  7.59869910E+00  7.59869910E+00 -1.51973982E+01  7.59869910E+00
  7.59869910E+00 -1.51973982E+01  7.59869910E+00  7.59869910E+00 -1.51973982E+01
  7.59869910E+00  7.59869910E+00 -1.51973982E+01  7.59869910E+00  7.59869910E+00
 -1.51973982E+01  7.59869910E+00  7.59869910E+00 -1.51973982E+01  7.59869910E+00
  7.59869910E+00 -1.51973982E+01  7.59869910E+00  7.59869910E+00 -1.51973982E+01
  7.59869910E+00  7.59869910E+00 -1.51973982E+01  7.59869910E+00  7.59869910E+00
 -1.51973982E+01  7.59869910E+00  7.59869910E+00 -1.51973982E+01  7.59869910E+00
  7.59869910E+00 -1.51973982E+01  7.59869910E+00  7.59869910E+00 -1.51973982E+01
  7.59869910E+00  7.59869910E+00 -1.51973982E+01  7.59869910E+00  7.59869910E+00
 -1.51973982E+01  7.59869910E+00  7.59869910E+00 -1.51973982E+01  7.59869910E+00
  7.59869910E+00 -1.51973982E+01  7.59869910E+00  7.59869910E+00 -1.51973982E+01
  7.59869910E+00  7.59869910E+00 -1.51973982E+01  7.59869910E+00  7.59869910E+00
 -1.51973982E+01  7.59869910E+00  7.59869910E+00 -1.51973982E+01  7.59869910E+00
  7.59869910E+00 -1.51973982E+01  7.59869910E+00  7.59869910E+00 -1.51973982E+01
  7.59869910E+00  7.59869910E+00 -1.51973982E+01  7.59869910E+00  7.59869910E+00
 -1.51973982E+01  7.59869910E+00  7.59869910E+00 -1.51973982E+01  7.59869910E+00
  7.59869910E+00 -1.51973982E+01  7.59869910E+00  7.59869910E+00 -1.51973982E+01
  7.59869910E+00  7.59869910E+00 -1.51973982E+01  7.59869910E+00  7.59869910E+00
 -1.51973982E+01  7.59869910E+00  7.59869910E+00 -1.51973982E+01  7.59869910E+00
  7.59869910E+00 -1.51973982E+01  7.59869910E+00  7.59869910E+00 -1.51973982E+01
  7.59869910E+00  7.59869910E+00 -1.51973982E+01  7.59869910E+00  7.59869910E+00
 -1.51973982E+01  7.59869910E+00  7.59869910E+00 -1.51973982E+01  7.59869910E+00
  7.59869910E+00 -1.51973982E+01  7.59869910E+00  7.59869910E+00 -1.51973982E+01
  7.59869910E+00  7.59869910E+00 -1.51973982E+01  7.59869910E+00  7.59869910E+00
 -1.51973982E+01  7.59869910E+00  7.59869910E+00 -1.51973982E+01  7.59869910E+00
  7.59869910E+00 -1.51973982E+01  7.59869910E+00  7.59869910E+00 -1.51973982E+01
  7.59869910E+00  7.59869910E+00 -1.51973982E+01  7.59869910E+00  7.59869910E+00
 -1.51973982E+01  7.59869910E+00  7.59869910E+00 -1.51973982E+01  7.59869910E+00
  7.59869910E+00 -1.51973982E+01  7.59869910E+00  7.59869910E+00 -1.51973982E+01
  7.59869910E+00  7.59869910E+00 -1.51973982E+01  7.59869910E+00  7.59869910E+00
 -1.51973982E+01  7.59869910E+00  7.59869910E+00 -1.51973982E+01  7.59869910E+00
  7.59869910E+00 -1.51973982E+01  7.59869910E+00  7.59869910E+00 -1.51973982E+01
  7.59869910E+00  7.59869910E+00 -1.51973982E+01  7.59869910E+00  7.59869910E+00
 -1.51973982E+01  7.59869910E+00  7.59869910E+00 -1.51973982E+01  7.59869910E+00
  7.59869910E+00 -1.51973982E+01  7.59869910E+00  7.59869910E+00 -1.51973982E+01
  7.59869910E+00  7.59869910E+00 -1.51973982E+01  7.59869910E+00  7.59869910E+00
 -1.51973982E+01  7.59869910E+00  7.59869910E+00 -1.51973982E+01  7.59869910E+00
  7.59869910E+00 -1.51973982E+01  7.59869910E+00  7.59869910E+00 -1.51973982E+01
  7.59869910E+00  7.59869910E+00 -1.51973982E+01  7.59869910E+00  7.59869910E+00
 -1.51973982E+01  7.59869910E+00  7.59869910E+00 -1.51973982E+01  7.59869910E+00
  7.59869910E+00 -1.51973982E+01  7.59869910E+00  7.59869910E+00 -1.51973982E+01
  7.59869910E+00  7.59869910E+00 -1.51973982E+01  7.59869910E+00  7.59869910E+00
 -1.51973982E+01  7.59869910E+00  7.59869910E+00 -1.51973982E+01  7.59869910E+00
  7.59869910E+00 -1.51973982E+01  7.59869910E+00  7.59869910E+00 -1.51973982E+01
  7.59869910E+00  7.59869910E+00 -1.51973982E+01  7.59869910E+00  7.59869910E+00
 -1.51973982E+01  7.59869910E+00  7.59869910E+00 -1.51973982E+01  7.59869910E+00
  7.59869910E+00 -1.51973982E+01  7.59869910E+00  7.59869910E+00 -1.51973982E+01
  7.59869910E+00  7.59869910E+00 -1.51973982E+01  7.59869910E+00  7.59869910E+00
 -1.51973982E+01  7.59869910E+00  7.59869910E+00 -1.51973982E+01  7.59869910E+00
  7.59869910E+00 -1.51973982E+01  7.59869910E+00  7.59869910E+00 -1.51973982E+01
  7.59869910E+00  7.59869910E+00 -1.51973982E+01  7.59869910E+00  7.59869910E+00
 -1.51973982E+01  7.59869910E+00  7.59869910E+00 -1.51973982E+01  7.59869910E+00
  7.59869910E+00 -1.51973982E+01  7.59869910E+00  7.59869910E+00 -1.51973982E+01
  7.59869910E+00  7.59869910E+00 -1.51973982E+01  7.59869910E+00  7.59869910E+00
 -1.51973982E+01  7.59869910E+00  7.59869910E+00 -1.51973982E+01  7.59869910E+00
  7.59869910E+00 -1.51973982E+01  7.59869910E+00  7.59869910E+00 -1.51973982E+01
  7.59869910E+00  7.59869910E+00 -1.51973982E+01  7.59869910E+00  7.59869910E+00
 -1.51973982E+01  7.59869910E+00  7.59869910E+00 -1.51973982E+01  7.59869910E+00
  7.59869910E+00 -1.51973982E+01  7.59869910E+00  7.59869910E+00 -1.51973982E+01
  7.59869910E+00  7.59869910E+00 -1.51973982E+01  7.59869910E+00  7.59869910E+00
 -1.51973982E+01  7.59869910E+00  7.59869910E+00 -1.51973982E+01  7.59869910E+00
  7.59869910E+00 -1.51973982E+01  7.59869910E+00  7.59869910E+00 -1.51973982E+01
  7.59869910E+00  7.59869910E+00 -1.51973982E+01  7.59869910E+00  7.59869910E+00
 -1.51973982E+01  7.59869910E+00  7.59869910E+00 -1.51973982E+01  7.59869910E+00
  7.59869910E+00 -1.51973982E+01  7.59869910E+00  7.59869910E+00 -1.51973982E+01
  7.59869910E+00  7.59869910E+00 -1.51973982E+01  7.59869910E+00  7.59869910E+00
 -1.51973982E+01  7.59869910E+00  7.59869910E+00 -1.51973982E+01  7.59869910E+00
  7.59869910E+00 -1.51973982E+01  7.59869910E+00  7.59869910E+00 -1.51973982E+01
  7.59869910E+00  7.59869910E+00 -1.51973982E+01  7.59869910E+00  7.59869910E+00
 -1.51973982E+01  7.59869910E+00  7.59869910E+00 -1.51973982E+01  7.59869910E+00
  7.59869910E+00 -1.51973982E+01  7.59869910E+00  7.59869910E+00 -1.51973982E+01
  7.59869910E+00  7.59869910E+00 -1.51973982E+01  7.59869910E+00  7.59869910E+00
 -1.51973982E+01  7.59869910E+00  7.59869910E+00 -1.51973982E+01  7.59869910E+00
  7.59869910E+00 -1.51973982E+01  7.59869910E+00  7.59869910E+00 -1.51973982E+01
  7.59869910E+00  7.59869910E+00 -1.51973982E+01  7.59869910E+00  7.59869910E+00
 -1.51973982E+01  7.59869910E+00  7.59869910E+00 -1.51973982E+01  7.59869910E+00
  7.59869910E+00 -1.51973982E+01  7.59869910E+00  7.59869910E+00 -1.51973982E+01
  7.59869910E+00  7.59869910E+00 -1.51973982E+01  7.59869910E+00  7.59869910E+00
 -1.51973982E+01  7.59869910E+00  7.59869910E+00 -1.51973982E+01  7.59869910E+00
  7.59869910E+00 -1.51973982E+01  7.59869910E+00  7.59869910E+00 -1.51973982E+01
  7.59869910E+00  7.59869910E+00 -1.51973982E+01  7.59869910E+00  7.59869910E+00
 -1.51973982E+01  7.59869910E+00  7.59869910E+00 -1.51973982E+01  7.59869910E+00
  7.59869910E+00 -1.51973982E+01  7.59869910E+00  7.59869910E+00 -1.51973982E+01
  7.59869910E+00  7.59869910E+00 -1.51973982E+01  7.59869910E+00  7.59869910E+00
 -1.51973982E+01  7.59869910E+00  7.59869910E+00 -1.51973982E+01  7.59869910E+00
  7.59869910E+00 -1.51973982E+01  7.59869910E+00  7.59869910E+00 -1.51973982E+01
  7.59869910E+00  7.59869910E+00 -1.51973982E+01  7.59869910E+00  7.59869910E+00
 -1.51973982E+01  7.59869910E+00  7.59869910E+00 -1.51973982E+01  7.59869910E+00
  7.59869910E+00 -1.51973982E+01  7.59869910E+00  7.59869910E+00 -1.51973982E+01
  7.59869910E+00  7.59869910E+00 -1.51973982E+01  7.59869910E+00  7.59869910E+00
 -1.51973982E+01  7.59869910E+00  7.59869910E+00 -1.51973982E+01  7.59869910E+00
  7.59869910E+00 -1.51973982E+01  7.59869910E+00  7.59869910E+00 -1.51973982E+01
  7.59869910E+00  7.59869910E+00 -1.51973982E+01  7.59869910E+00  7.59869910E+00
 -1.51973982E+01  7.59869910E+00  7.59869910E+00 -1.51973982E+01  7.59869910E+00
  7.59869910E+00 -1.51973982E+01  7.59869910E+00  7.59869910E+00 -1.51973982E+01
  7.59869910E+00  7.59869910E+00 -1.51973982E+01  7.59869910E+00  7.59869910E+00
 -1.51973982E+01  7.59869910E+00  7.59869910E+00 -1.51973982E+01  7.59869910E+00
  7.59869910E+00 -1.51973982E+01  7.59869910E+00  7.59869910E+00 -1.51973982E+01
  7.59869910E+00  7.59869910E+00 -1.51973982E+01  7.59869910E+00  7.59869910E+00
 -1.51973982E+01  7.59869910E+00  7.59869910E+00 -1.51973982E+01  7.59869910E+00
  7.59869910E+00 -1.51973982E+01  7.59869910E+00  7.59869910E+00 -1.51973982E+01
  7.59869910E+00  7.59869910E+00 -1.51973982E+01  7.59869910E+00  7.59869910E+00
 -1.51973982E+01  7.59869910E+00  7.59869910E+00 -1.51973982E+01  7.59869910E+00
  7.59869910E+00 -1.51973982E+01  7.59869910E+00  7.59869910E+00 -1.51973982E+01
  7.59869910E+00  7.59869910E+00 -1.51973982E+01  7.59869910E+00  7.59869910E+00
 -1.51973982E+01  7.59869910E+00  7.59869910E+00 -1.51973982E+01  7.59869910E+00
  7.59869910E+00 -1.51973982E+01  7.59869910E+00  7.59869910E+00 -1.51973982E+01
  7.59869910E+00  7.59869910E+00 -1.51973982E+01  7.59869910E+00  7.59869910E+00
 -1.51973982E+01  7.59869910E+00  7.59869910E+00 -1.51973982E+01  7.59869910E+00
  7.59869910E+00 -1.51973982E+01  7.59869910E+00  7.59869910E+00 -1.51973982E+01
  7.59869910E+00  7.59869910E+00 -1.51973982E+01  7.59869910E+00  7.59869910E+00
 -1.51973982E+01  7.59869910E+00  7.59869910E+00 -1.51973982E+01  7.59869910E+00
  7.59869910E+00 -1.51973982E+01  7.59869910E+00  7.59869910E+00 -1.51973982E+01
  7.59869910E+00  7.59869910E+00 -1.51973982E+01  7.59869910E+00  7.59869910E+00
 -1.51973982E+01  7.59869910E+00  7.59869910E+00 -1.51973982E+01  7.59869910E+00
  7.59869910E+00 -1.51973982E+01  7.59869910E+00  7.59869910E+00 -1.51973982E+01
  7.59869910E+00  7.59869910E+00 -1.51973982E+01  7.59869910E+00  7.59869910E+00
 -1.51973982E+01  7.59869910E+00  7.59869910E+00 -1.51973982E+01  7.59869910E+00
  7.59869910E+00 -1.51973982E+01  7.59869910E+00  7.59869910E+00 -1.51973982E+01
  7.59869910E+00  7.59869910E+00 -1.51973982E+01  7.59869910E+00  7.59869910E+00
 -1.51973982E+01  7.59869910E+00  7.59869910E+00 -1.51973982E+01  7.59869910E+00
  7.59869910E+00 -1.51973982E+01  7.59869910E+00  7.59869910E+00 -1.51973982E+01
  7.59869910E+00  7.59869910E+00 -1.51973982E+01  7.59869910E+00  7.59869910E+00
 -1.51973982E+01  7.59869910E+00  7.59869910E+00 -1.51973982E+01  7.59869910E+00
  7.59869910E+00 -1.51973982E+01  7.59869910E+00  7.59869910E+00 -1.51973982E+01
  7.59869910E+00  7.59869910E+00 -1.51973982E+01  7.59869910E+00  7.59869910E+00
 -1.51973982E+01  7.59869910E+00  7.59869910E+00 -1.51973982E+01  7.59869910E+00
  7.59869910E+00 -1.51973982E+01  7.59869910E+00  7.59869910E+00 -1.51973982E+01
  7.59869910E+00  7.59869910E+00 -1.51973982E+01  7.59869910E+00  7.59869910E+00
 -1.51973982E+01  7.59869910E+00  7.59869910E+00 -1.51973982E+01  7.59869910E+00
  7.59869910E+00 -1.51973982E+01  7.59869910E+00  7.59869910E+00 -1.51973982E+01
  7.59869910E+00  7.59869910E+00 -1.51973982E+01  7.59869910E+00  7.59869910E+00
 -1.51973982E+01  7.59869910E+00  7.59869910E+00 -1.51973982E+01  7.59869910E+00
  7.59869910E+00 -1.51973982E+01  7.59869910E+00  7.59869910E+00 -1.51973982E+01
  7.59869910E+00  7.59869910E+00 -1.51973982E+01  7.59869910E+00  7.59869910E+00
 -1.51973982E+01  7.59869910E+00  7.59869910E+00 -1.51973982E+01  7.59869910E+00
  7.59869910E+00 -1.51973982E+01  7.59869910E+00  7.59869910E+00 -1.51973982E+01
  7.59869910E+00  7.59869910E+00 -1.51973982E+01  7.59869910E+00  7.59869910E+00
 -1.51973982E+01  7.59869910E+00  7.59869910E+00 -1.51973982E+01  7.59869910E+00
  7.59869910E+00 -1.51973982E+01  7.59869910E+00  7.59869910E+00 -1.51973982E+01
  7.59869910E+00  7.59869910E+00 -1.51973982E+01  7.59869910E+00  7.59869910E+00
 -1.51973982E+01  7.59869910E+00  7.59869910E+00 -1.51973982E+01  7.59869910E+00
  7.59869910E+00 -1.51973982E+01  7.59869910E+00  7.59869910E+00 -1.51973982E+01
  7.59869910E+00  7.59869910E+00 -1.51973982E+01  7.59869910E+00  7.59869910E+00
 -1.51973982E+01  7.59869910E+00  7.59869910E+00 -1.51973982E+01  7.59869910E+00
  7.59869910E+00 -1.51973982E+01  7.59869910E+00  7.59869910E+00 -1.51973982E+01
  7.59869910E+00  7.59869910E+00 -1.51973982E+01  7.59869910E+00  7.59869910E+00
 -1.51973982E+01  7.59869910E+00  7.59869910E+00 -1.51973982E+01  7.59869910E+00
  7.59869910E+00 -1.51973982E+01  7.59869910E+00  7.59869910E+00 -1.51973982E+01
  7.59869910E+00  7.59869910E+00 -1.51973982E+01  7.59869910E+00  7.59869910E+00
 -1.51973982E+01  7.59869910E+00  7.59869910E+00 -1.51973982E+01  7.59869910E+00
  7.59869910E+00 -1.51973982E+01  7.59869910E+00  7.59869910E+00 -1.51973982E+01
  7.59869910E+00  7.59869910E+00 -1.51973982E+01  7.59869910E+00  7.59869910E+00
 -1.51973982E+01  7.59869910E+00  7.59869910E+00 -1.51973982E+01  7.59869910E+00
  7.59869910E+00 -1.51973982E+01  7.59869910E+00  7.59869910E+00 -1.51973982E+01
  7.59869910E+00  7.59869910E+00 -1.51973982E+01  7.59869910E+00  7.59869910E+00
 -1.51973982E+01  7.59869910E+00  7.59869910E+00 -1.51973982E+01  7.59869910E+00
  7.59869910E+00 -1.51973982E+01  7.59869910E+00  7.59869910E+00 -1.51973982E+01
  7.59869910E+00  7.59869910E+00 -1.51973982E+01  7.59869910E+00  7.59869910E+00
 -1.51973982E+01  7.59869910E+00  7.59869910E+00 -1.51973982E+01  7.59869910E+00
  7.59869910E+00 -1.51973982E+01  7.59869910E+00  7.59869910E+00 -1.51973982E+01
  7.59869910E+00  7.59869910E+00 -1.51973982E+01  7.59869910E+00  7.59869910E+00
 -1.51973982E+01  7.59869910E+00  7.59869910E+00 -1.51973982E+01  7.59869910E+00
  7.59869910E+00 -1.51973982E+01  7.59869910E+00  7.59869910E+00 -1.51973982E+01
  7.59869910E+00  7.59869910E+00 -1.51973982E+01  7.59869910E+00  7.59869910E+00
 -1.51973982E+01  7.59869910E+00  7.59869910E+00 -1.51973982E+01  7.59869910E+00
  7.59869910E+00 -1.51973982E+01  7.59869910E+00  7.59869910E+00 -1.51973982E+01
  7.59869910E+00  7.59869910E+00 -1.51973982E+01  7.59869910E+00  7.59869910E+00
 -1.51973982E+01  7.59869910E+00  7.59869910E+00 -1.51973982E+01  7.59869910E+00
  7.59869910E+00 -1.51973982E+01  7.59869910E+00  7.59869910E+00 -1.51973982E+01
  7.59869910E+00  7.59869910E+00 -1.51973982E+01  7.59869910E+00  7.59869910E+00
 -1.51973982E+01  7.59869910E+00  7.59869910E+00 -1.51973982E+01  7.59869910E+00
  7.59869910E+00 -1.51973982E+01  7.59869910E+00  7.59869910E+00 -1.51973982E+01
  7.59869910E+00  7.59869910E+00 -1.51973982E+01  7.59869910E+00  7.59869910E+00
 -1.51973982E+01  7.59869910E+00  7.59869910E+00 -1.51973982E+01  7.59869910E+00
  7.59869910E+00 -1.51973982E+01  7.59869910E+00  7.59869910E+00 -1.51973982E+01
  7.59869910E+00  7.59869910E+00 -1.51973982E+01  7.59869910E+00  7.59869910E+00
 -1.51973982E+01  7.59869910E+00  7.59869910E+00 -1.51973982E+01  7.59869910E+00
  7.59869910E+00 -1.51973982E+01  7.59869910E+00  7.59869910E+00 -1.51973982E+01
  7.59869910E+00  7.59869910E+00 -1.51973982E+01  7.59869910E+00  7.59869910E+00
 -1.51973982E+01  7.59869910E+00  7.59869910E+00 -1.51973982E+01  7.59869910E+00
  7.59869910E+00 -1.51973982E+01  7.59869910E+00  7.59869910E+00 -1.51973982E+01
  7.59869910E+00  7.59869910E+00 -1.51973982E+01  7.59869910E+00  7.59869910E+00
 -1.51973982E+01  7.59869910E+00  7.59869910E+00 -1.51973982E+01  7.59869910E+00
  7.59869910E+00 -1.51973982E+01  7.59869910E+00  7.59869910E+00 -1.51973982E+01
  7.59869910E+00  7.59869910E+00 -1.51973982E+01  7.59869910E+00  7.59869910E+00
 -1.51973982E+01  7.59869910E+00  7.59869910E+00 -1.51973982E+01  7.59869910E+00
  7.59869910E+00 -1.51973982E+01  7.59869910E+00  7.59869910E+00 -1.51973982E+01
  7.59869910E+00  7.59869910E+00 -1.51973982E+01  7.59869910E+00  7.59869910E+00
 -1.51973982E+01  7.59869910E+00  7.59869910E+00 -1.51973982E+01  7.59869910E+00
  7.59869910E+00 -1.51973982E+01  7.59869910E+00  7.59869910E+00 -1.51973982E+01
  7.59869910E+00  7.59869910E+00 -1.51973982E+01  7.59869910E+00  7.59869910E+00
 -1.51973982E+01  7.59869910E+00  7.59869910E+00 -1.51973982E+01  7.59869910E+00
  7.59869910E+00 -1.51973982E+01  7.59869910E+00  7.59869910E+00 -1.51973982E+01
  7.59869910E+00  7.59869910E+00 -1.51973982E+01  7.59869910E+00  7.59869910E+00
 -1.51973982E+01  7.59869910E+00  7.59869910E+00 -1.51973982E+01  7.59869910E+00
  7.59869910E+00 -1.51973982E+01  7.59869910E+00  7.59869910E+00 -1.51973982E+01
  7.59869910E+00  7.59869910E+00 -1.51973982E+01  7.59869910E+00  7.59869910E+00
 -1.51973982E+01  7.59869910E+00  7.59869910E+00 -1.51973982E+01  7.59869910E+00
  7.59869910E+00 -1.51973982E+01  7.59869910E+00  7.59869910E+00 -1.51973982E+01
  7.59869910E+00  7.59869910E+00 -1.51973982E+01  7.59869910E+00  7.59869910E+00
 -1.51973982E+01  7.59869910E+00  7.59869910E+00 -1.51973982E+01  7.59869910E+00
  7.59869910E+00 -1.51973982E+01  7.59869910E+00  7.59869910E+00 -1.51973982E+01
  7.59869910E+00  7.59869910E+00 -1.51973982E+01  7.59869910E+00  7.59869910E+00
 -1.51973982E+01  7.59869910E+00  7.59869910E+00 -1.51973982E+01  7.59869910E+00
  7.59869910E+00 -1.51973982E+01  7.59869910E+00  7.59869910E+00 -1.51973982E+01
  7.59869910E+00  7.59869910E+00 -1.51973982E+01  7.59869910E+00  7.59869910E+00
 -1.51973982E+01  7.59869910E+00  7.59869910E+00 -1.51973982E+01  7.59869910E+00
  7.59869910E+00 -1.51973982E+01  7.59869910E+00  7.59869910E+00 -1.51973982E+01
  7.59869910E+00  7.59869910E+00 -1.51973982E+01  7.59869910E+00  7.59869910E+00
 -1.51973982E+01  7.59869910E+00  7.59869910E+00 -1.51973982E+01  7.59869910E+00
  7.59869910E+00 -1.51973982E+01  7.59869910E+00  7.59869910E+00 -1.51973982E+01
  7.59869910E+00  7.59869910E+00 -1.51973982E+01  7.59869910E+00  7.59869910E+00
 -1.51973982E+01  7.59869910E+00  7.59869910E+00 -1.51973982E+01  7.59869910E+00
  7.59869910E+00 -1.51973982E+01  7.59869910E+00  7.59869910E+00 -1.51973982E+01
  7.59869910E+00  7.59869910E+00 -1.51973982E+01  7.59869910E+00  7.59869910E+00
 -1.51973982E+01  7.59869910E+00  7.59869910E+00 -1.51973982E+01  7.59869910E+00
  7.59869910E+00 -1.51973982E+01  7.59869910E+00  7.59869910E+00 -1.51973982E+01
  7.59869910E+00  7.59869910E+00 -1.51973982E+01  7.59869910E+00  7.59869910E+00
 -1.51973982E+01  7.59869910E+00  7.59869910E+00 -1.51973982E+01  7.59869910E+00
  7.59869910E+00 -1.51973982E+01  7.59869910E+00  7.59869910E+00 -1.51973982E+01
  7.59869910E+00  7.59869910E+00 -1.51973982E+01  7.59869910E+00  7.59869910E+00
 -1.51973982E+01  7.59869910E+00  7.59869910E+00 -1.51973982E+01  7.59869910E+00
  7.59869910E+00 -1.51973982E+01  7.59869910E+00  7.59869910E+00 -1.51973982E+01
  7.59869910E+00  7.59869910E+00 -1.51973982E+01  7.59869910E+00  7.59869910E+00
 -1.51973982E+01  7.59869910E+00  7.59869910E+00 -1.51973982E+01  7.59869910E+00
  7.59869910E+00 -1.51973982E+01  7.59869910E+00  7.59869910E+00 -1.51973982E+01
  7.59869910E+00  7.59869910E+00 -1.51973982E+01  7.59869910E+00  7.59869910E+00
 -1.51973982E+01  7.59869910E+00  7.59869910E+00 -1.51973982E+01  7.59869910E+00
  7.59869910E+00 -1.51973982E+01  7.59869910E+00  7.59869910E+00 -1.51973982E+01
  7.59869910E+00  7.59869910E+00 -1.51973982E+01  7.59869910E+00  7.59869910E+00
 -1.51973982E+01  7.59869910E+00  7.59869910E+00 -1.51973982E+01  7.59869910E+00
  7.59869910E+00 -1.51973982E+01  7.59869910E+00  7.59869910E+00 -1.51973982E+01
  7.59869910E+00  7.59869910E+00 -1.51973982E+01  7.59869910E+00  7.59869910E+00
 -1.51973982E+01  7.59869910E+00  7.59869910E+00 -1.51973982E+01  7.59869910E+00
  7.59869910E+00 -1.51973982E+01  7.59869910E+00  7.59869910E+00 -1.51973982E+01
  7.59869910E+00  7.59869910E+00 -1.51973982E+01  7.59869910E+00  7.59869910E+00
 -1.51973982E+01  7.59869910E+00  7.59869910E+00 -1.51973982E+01  7.59869910E+00
  7.59869910E+00 -1.51973982E+01  7.59869910E+00  7.59869910E+00 -1.51973982E+01
  7.59869910E+00  7.59869910E+00 -1.51973982E+01  7.59869910E+00  7.59869910E+00
 -1.51973982E+01  7.59869910E+00  7.59869910E+00 -1.51973982E+01  7.59869910E+00
  7.59869910E+00 -1.51973982E+01  7.59869910E+00  7.59869910E+00 -1.51973982E+01
  7.59869910E+00  7.59869910E+00 -1.51973982E+01  7.59869910E+00  7.59869910E+00
 -1.51973982E+01  7.59869910E+00  7.59869910E+00 -1.51973982E+01  7.59869910E+00
  7.59869910E+00 -1.51973982E+01  7.59869910E+00  7.59869910E+00 -1.51973982E+01
  7.59869910E+00  7.59869910E+00 -1.51973982E+01  7.59869910E+00  7.59869910E+00
 -1.51973982E+01  7.59869910E+00  7.59869910E+00 -1.51973982E+01  7.59869910E+00
  7.59869910E+00 -1.51973982E+01  7.59869910E+00  7.59869910E+00 -1.51973982E+01
  7.59869910E+00  7.59869910E+00 -1.51973982E+01  7.59869910E+00  7.59869910E+00
 -1.51973982E+01  7.59869910E+00  7.59869910E+00 -1.51973982E+01  7.59869910E+00
  7.59869910E+00 -1.51973982E+01  7.59869910E+00  7.59869910E+00 -1.51973982E+01
  7.59869910E+00  7.59869910E+00 -1.51973982E+01  7.59869910E+00  7.59869910E+00
 -1.51973982E+01  7.59869910E+00  7.59869910E+00 -1.51973982E+01  7.59869910E+00
  7.59869910E+00 -1.51973982E+01  7.59869910E+00  7.59869910E+00 -1.51973982E+01
  7.59869910E+00  7.59869910E+00 -1.51973982E+01  7.59869910E+00  7.59869910E+00
 -1.51973982E+01  7.59869910E+00  7.59869910E+00 -1.51973982E+01  7.59869910E+00
  7.59869910E+00 -1.51973982E+01  7.59869910E+00  7.59869910E+00 -1.51973982E+01
  7.59869910E+00  7.59869910E+00 -1.51973982E+01  7.59869910E+00  7.59869910E+00
 -1.51973982E+01  7.59869910E+00  7.59869910E+00 -1.51973982E+01  7.59869910E+00
  7.59869910E+00 -1.51973982E+01  7.59869910E+00  7.59869910E+00 -1.51973982E+01
  7.59869910E+00  7.59869910E+00 -1.51973982E+01  7.59869910E+00  7.59869910E+00
 -1.51973982E+01  7.59869910E+00  7.59869910E+00 -1.51973982E+01  7.59869910E+00
  7.59869910E+00 -1.51973982E+01  7.59869910E+00  7.59869910E+00 -1.51973982E+01
  7.59869910E+00  7.59869910E+00 -1.51973982E+01  7.59869910E+00  7.59869910E+00
 -1.51973982E+01  7.59869910E+00  7.59869910E+00 -1.51973982E+01  7.59869910E+00
  7.59869910E+00 -1.51973982E+01  7.59869910E+00  7.59869910E+00 -1.51973982E+01
  7.59869910E+00  7.59869910E+00 -1.51973982E+01  7.59869910E+00  7.59869910E+00
 -1.51973982E+01  7.59869910E+00  7.59869910E+00 -1.51973982E+01  7.59869910E+00
  7.59869910E+00 -1.51973982E+01  7.59869910E+00  7.59869910E+00 -1.51973982E+01
  7.59869910E+00  7.59869910E+00 -1.51973982E+01  7.59869910E+00  7.59869910E+00
 -1.51973982E+01  7.59869910E+00  7.59869910E+00 -1.51973982E+01  7.59869910E+00
  7.59869910E+00 -1.51973982E+01  7.59869910E+00  7.59869910E+00 -1.51973982E+01
  7.59869910E+00  7.59869910E+00 -1.51973982E+01  7.59869910E+00  7.59869910E+00
 -1.51973982E+01  7.59869910E+00  7.59869910E+00 -1.51973982E+01  7.59869910E+00
  7.59869910E+00 -1.51973982E+01  7.59869910E+00  7.59869910E+00 -1.51973982E+01
  7.59869910E+00  7.59869910E+00 -1.51973982E+01  7.59869910E+00  7.59869910E+00
 -1.51973982E+01  7.59869910E+00  7.59869910E+00 -1.51973982E+01  7.59869910E+00
  7.59869910E+00 -1.51973982E+01  7.59869910E+00  7.59869910E+00 -1.51973982E+01
  7.59869910E+00  7.59869910E+00 -1.51973982E+01  7.59869910E+00  7.59869910E+00
 -1.51973982E+01  7.59869910E+00  7.59869910E+00 -1.51973982E+01  7.59869910E+00
  7.59869910E+00 -1.51973982E+01  7.59869910E+00  7.59869910E+00 -1.51973982E+01
  7.59869910E+00  7.59869910E+00 -1.51973982E+01  7.59869910E+00  7.59869910E+00
 -1.51973982E+01  7.59869910E+00  7.59869910E+00 -1.51973982E+01  7.59869910E+00
  7.59869910E+00 -1.51973982E+01  7.59869910E+00  7.59869910E+00 -1.51973982E+01
  7.59869910E+00  7.59869910E+00 -1.51973982E+01  7.59869910E+00  7.59869910E+00
 -1.51973982E+01  7.59869910E+00  7.59869910E+00 -1.51973982E+01  7.59869910E+00
  7.59869910E+00 -1.51973982E+01  7.59869910E+00  7.59869910E+00 -1.51973982E+01
  7.59869910E+00  7.59869910E+00 -1.51973982E+01  7.59869910E+00  7.59869910E+00
 -1.51973982E+01  7.59869910E+00  7.59869910E+00 -1.51973982E+01  7.59869910E+00
  7.59869910E+00 -1.51973982E+01  7.59869910E+00  7.59869910E+00 -1.51973982E+01
  7.59869910E+00  7.59869910E+00 -1.51973982E+01  7.59869910E+00  7.59869910E+00
 -1.51973982E+01  7.59869910E+00  7.59869910E+00 -1.51973982E+01  7.59869910E+00
  7.59869910E+00 -1.51973982E+01  7.59869910E+00  7.59869910E+00 -1.51973982E+01
  7.59869910E+00  7.59869910E+00 -1.51973982E+01  7.59869910E+00  7.59869910E+00
 -1.51973982E+01  7.59869910E+00  7.59869910E+00 -1.51973982E+01  7.59869910E+00
  7.59869910E+00 -1.51973982E+01  7.59869910E+00  7.59869910E+00 -1.51973982E+01
  7.59869910E+00  7.59869910E+00 -1.51973982E+01  7.59869910E+00  7.59869910E+00
 -1.51973982E+01  7.59869910E+00  7.59869910E+00 -1.51973982E+01  7.59869910E+00
  7.59869910E+00 -1.51973982E+01  7.59869910E+00  7.59869910E+00 -1.51973982E+01
  7.59869910E+00  7.59869910E+00 -1.51973982E+01  7.59869910E+00  7.59869910E+00
 -1.51973982E+01  7.59869910E+00  7.59869910E+00 -1.51973982E+01  7.59869910E+00
  7.59869910E+00 -1.51973982E+01  7.59869910E+00  7.59869910E+00 -1.51973982E+01
  7.59869910E+00  7.59869910E+00 -1.51973982E+01  7.59869910E+00  7.59869910E+00
 -1.51973982E+01  7.59869910E+00  7.59869910E+00 -1.51973982E+01  7.59869910E+00
  7.59869910E+00 -1.51973982E+01  7.59869910E+00  7.59869910E+00 -1.51973982E+01
  7.59869910E+00  7.59869910E+00 -1.51973982E+01  7.59869910E+00  7.59869910E+00
 -1.51973982E+01  7.59869910E+00  7.59869910E+00 -1.51973982E+01  7.59869910E+00
  7.59869910E+00 -1.51973982E+01  7.59869910E+00  7.59869910E+00 -1.51973982E+01
  7.59869910E+00  7.59869910E+00 -1.51973982E+01  7.59869910E+00  7.59869910E+00
 -1.51973982E+01  7.59869910E+00  7.59869910E+00 -1.51973982E+01  7.59869910E+00
  7.59869910E+00 -1.51973982E+01  7.59869910E+00  7.59869910E+00 -1.51973982E+01
  7.59869910E+00  7.59869910E+00 -1.51973982E+01  7.59869910E+00  7.59869910E+00
 -1.51973982E+01  7.59869910E+00  7.59869910E+00 -1.51973982E+01  7.59869910E+00
  7.59869910E+00 -1.51973982E+01  7.59869910E+00  7.59869910E+00 -1.51973982E+01
  7.59869910E+00  7.59869910E+00 -1.51973982E+01  7.59869910E+00  7.59869910E+00
 -1.51973982E+01  7.59869910E+00  7.59869910E+00 -1.51973982E+01  7.59869910E+00
  7.59869910E+00 -1.51973982E+01  7.59869910E+00  7.59869910E+00 -1.51973982E+01
  7.59869910E+00  7.59869910E+00 -1.51973982E+01  7.59869910E+00  7.59869910E+00
 -1.51973982E+01  7.59869910E+00  7.59869910E+00 -1.51973982E+01  7.59869910E+00
  7.59869910E+00 -1.51973982E+01  7.59869910E+00  7.59869910E+00 -1.51973982E+01
  7.59869910E+00  7.59869910E+00 -1.51973982E+01  7.59869910E+00  7.59869910E+00
 -1.51973982E+01  7.59869910E+00  7.59869910E+00 -1.51973982E+01  7.59869910E+00
  7.59869910E+00 -1.51973982E+01  7.59869910E+00  7.59869910E+00 -1.51973982E+01
  7.59869910E+00  7.59869910E+00 -1.51973982E+01  7.59869910E+00  7.59869910E+00
 -1.51973982E+01  7.59869910E+00  7.59869910E+00 -1.51973982E+01  7.59869910E+00
  7.59869910E+00 -1.51973982E+01  7.59869910E+00  7.59869910E+00 -1.51973982E+01
  7.59869910E+00  7.59869910E+00 -1.51973982E+01  7.59869910E+00  7.59869910E+00
 -1.51973982E+01  7.59869910E+00  7.59869910E+00 -1.51973982E+01  7.59869910E+00
  7.59869910E+00 -1.51973982E+01  7.59869910E+00  7.59869910E+00 -1.51973982E+01
  7.59869910E+00  7.59869910E+00 -1.51973982E+01  7.59869910E+00  7.59869910E+00
 -1.51973982E+01  7.59869910E+00  7.59869910E+00 -1.51973982E+01  7.59869910E+00
  7.59869910E+00 -1.51973982E+01  7.59869910E+00  7.59869910E+00 -1.51973982E+01
  7.59869910E+00  7.59869910E+00 -1.51973982E+01  7.59869910E+00  7.59869910E+00
 -1.51973982E+01  7.59869910E+00  7.59869910E+00 -1.51973982E+01  7.59869910E+00
  7.59869910E+00 -1.51973982E+01  7.59869910E+00  7.59869910E+00 -1.51973982E+01
  7.59869910E+00  7.59869910E+00 -1.51973982E+01  7.59869910E+00  7.59869910E+00
 -1.51973982E+01  7.59869910E+00  7.59869910E+00 -1.51973982E+01  7.59869910E+00
  7.59869910E+00 -1.51973982E+01  7.59869910E+00  7.59869910E+00 -1.51973982E+01
  7.59869910E+00  7.59869910E+00 -1.51973982E+01  7.59869910E+00  7.59869910E+00
 -1.51973982E+01  7.59869910E+00  7.59869910E+00 -1.51973982E+01  7.59869910E+00
  7.59869910E+00 -1.51973982E+01  7.59869910E+00  7.59869910E+00 -1.51973982E+01
  7.59869910E+00  7.59869910E+00 -1.51973982E+01  7.59869910E+00  7.59869910E+00
 -1.51973982E+01  7.59869910E+00  7.59869910E+00 -1.51973982E+01  7.59869910E+00
  7.59869910E+00 -1.51973982E+01  7.59869910E+00  7.59869910E+00 -1.51973982E+01
  7.59869910E+00  7.59869910E+00 -1.51973982E+01  7.59869910E+00  7.59869910E+00
 -1.51973982E+01  7.59869910E+00  7.59869910E+00 -1.51973982E+01  7.59869910E+00
  7.59869910E+00 -1.51973982E+01  7.59869910E+00  7.59869910E+00 -1.51973982E+01
  7.59869910E+00  7.59869910E+00 -1.51973982E+01  7.59869910E+00  7.59869910E+00
 -1.51973982E+01  7.59869910E+00  7.59869910E+00 -1.51973982E+01  7.59869910E+00
  7.59869910E+00 -1.51973982E+01  7.59869910E+00  7.59869910E+00 -1.51973982E+01
  7.59869910E+00  7.59869910E+00 -1.51973982E+01  7.59869910E+00  7.59869910E+00
 -1.51973982E+01  7.59869910E+00  7.59869910E+00 -1.51973982E+01  7.59869910E+00
  7.59869910E+00 -1.51973982E+01  7.59869910E+00  7.59869910E+00 -1.51973982E+01
  7.59869910E+00  7.59869910E+00 -1.51973982E+01  7.59869910E+00  7.59869910E+00
 -1.51973982E+01  7.59869910E+00  7.59869910E+00 -1.51973982E+01  7.59869910E+00
  7.59869910E+00 -1.51973982E+01  7.59869910E+00  7.59869910E+00 -1.51973982E+01
  7.59869910E+00  7.59869910E+00 -1.51973982E+01  7.59869910E+00  7.59869910E+00
 -1.51973982E+01  7.59869910E+00  7.59869910E+00 -1.51973982E+01  7.59869910E+00
  7.59869910E+00 -1.51973982E+01  7.59869910E+00  7.59869910E+00 -1.51973982E+01
  7.59869910E+00  7.59869910E+00 -1.51973982E+01  7.59869910E+00  7.59869910E+00
 -1.51973982E+01  7.59869910E+00  7.59869910E+00 -1.51973982E+01  7.59869910E+00
  7.59869910E+00 -1.51973982E+01  7.59869910E+00  7.59869910E+00 -1.51973982E+01
  7.59869910E+00  7.59869910E+00 -1.51973982E+01  7.59869910E+00  7.59869910E+00
 -1.51973982E+01  7.59869910E+00  7.59869910E+00 -1.51973982E+01  7.59869910E+00
  7.59869910E+00 -1.51973982E+01  7.59869910E+00  7.59869910E+00 -1.51973982E+01
  7.59869910E+00  7.59869910E+00 -1.51973982E+01  7.59869910E+00  7.59869910E+00
 -1.51973982E+01  7.59869910E+00  7.59869910E+00 -1.51973982E+01  7.59869910E+00
  7.59869910E+00 -1.51973982E+01  7.59869910E+00  7.59869910E+00 -1.51973982E+01
  7.59869910E+00  7.59869910E+00 -1.51973982E+01  7.59869910E+00  7.59869910E+00
 -1.51973982E+01  7.59869910E+00  7.59869910E+00 -1.51973982E+01  7.59869910E+00
  7.59869910E+00 -1.51973982E+01  7.59869910E+00  7.59869910E+00 -1.51973982E+01
  7.59869910E+00  7.59869910E+00 -1.51973982E+01  7.59869910E+00  7.59869910E+00
 -1.51973982E+01  7.59869910E+00  7.59869910E+00 -1.51973982E+01  7.59869910E+00
  7.59869910E+00 -1.51973982E+01  7.59869910E+00  7.59869910E+00 -1.51973982E+01
  7.59869910E+00  7.59869910E+00 -1.51973982E+01  7.59869910E+00  7.59869910E+00
 -1.51973982E+01  7.59869910E+00  7.59869910E+00 -1.51973982E+01  7.59869910E+00
  7.59869910E+00 -1.51973982E+01  7.59869910E+00  7.59869910E+00 -1.51973982E+01
  7.59869910E+00  7.59869910E+00 -1.51973982E+01  7.59869910E+00  7.59869910E+00
 -1.51973982E+01  7.59869910E+00  7.59869910E+00 -1.51973982E+01  7.59869910E+00
  7.59869910E+00 -1.51973982E+01  7.59869910E+00  7.59869910E+00 -1.51973982E+01
  7.59869910E+00  7.59869910E+00 -1.51973982E+01  7.59869910E+00  7.59869910E+00
 -1.51973982E+01  7.59869910E+00  7.59869910E+00 -1.51973982E+01  7.59869910E+00
  7.59869910E+00 -1.51973982E+01  7.59869910E+00  7.59869910E+00 -1.51973982E+01
  7.59869910E+00  7.59869910E+00 -1.51973982E+01  7.59869910E+00  7.59869910E+00
 -1.51973982E+01  7.59869910E+00  7.59869910E+00 -1.51973982E+01  7.59869910E+00
  7.59869910E+00 -1.51973982E+01  7.59869910E+00  7.59869910E+00 -1.51973982E+01
  7.59869910E+00  7.59869910E+00 -1.51973982E+01  7.59869910E+00  7.59869910E+00
 -1.51973982E+01  7.59869910E+00  7.59869910E+00 -1.51973982E+01  7.59869910E+00
  7.59869910E+00 -1.51973982E+01  7.59869910E+00  7.59869910E+00 -1.51973982E+01
  7.59869910E+00  7.59869910E+00 -1.51973982E+01  7.59869910E+00  7.59869910E+00
 -1.51973982E+01  7.59869910E+00  7.59869910E+00 -1.51973982E+01  7.59869910E+00
  7.59869910E+00 -1.51973982E+01  7.59869910E+00  7.59869910E+00 -1.51973982E+01
  7.59869910E+00  7.59869910E+00 -1.51973982E+01  7.59869910E+00  7.59869910E+00
 -1.51973982E+01  7.59869910E+00  7.59869910E+00 -1.51973982E+01  7.59869910E+00
  7.59869910E+00 -1.51973982E+01  7.59869910E+00  7.59869910E+00 -1.51973982E+01
  7.59869910E+00  7.59869910E+00 -1.51973982E+01  7.59869910E+00  7.59869910E+00
 -1.51973982E+01  7.59869910E+00  7.59869910E+00 -1.51973982E+01  7.59869910E+00
  7.59869910E+00 -1.51973982E+01  7.59869910E+00  7.59869910E+00 -1.51973982E+01
  7.59869910E+00  7.59869910E+00 -1.51973982E+01  7.59869910E+00  7.59869910E+00
 -1.51973982E+01  7.59869910E+00  7.59869910E+00 -1.51973982E+01  7.59869910E+00
  7.59869910E+00 -1.51973982E+01  7.59869910E+00  7.59869910E+00 -1.51973982E+01
  7.59869910E+00  7.59869910E+00 -1.51973982E+01  7.59869910E+00  7.59869910E+00
 -1.51973982E+01  7.59869910E+00  7.59869910E+00 -1.51973982E+01  7.59869910E+00
  7.59869910E+00 -1.51973982E+01  7.59869910E+00  7.59869910E+00 -1.51973982E+01
  7.59869910E+00  7.59869910E+00 -1.51973982E+01  7.59869910E+00  7.59869910E+00
 -1.51973982E+01  7.59869910E+00  7.59869910E+00 -1.51973982E+01  7.59869910E+00
  7.59869910E+00 -1.51973982E+01  7.59869910E+00  7.59869910E+00
%FLAG ATOMIC_NUMBER                                                             
%FORMAT(10I8)                                                                   
       6       6       6       6       6       6       6       6       6       6
       6       6       6       6       6       6       1       1       1       1
       1       1       1       1       1       1       6       1       1       8
       6       6       1       6       6       6       6       6       6       1
       7       6       6       6       6       8       6       6       8       6
       6       8       8       6       8       6       8       6       8       1
       1       1       1       1       1       1       1       1       1       1
       1       1       1       1       1       1       1       1       1       1
       1       1       1       1       8       6       6       1       6       6
       6       6       6       6       1       7       6       6       6       6
       8       6       6       8       6       6       8       8       6       8
       6       8       6       8       1       1       1       1       1       1
       1       1       1       1       1       1       1       1       1       1
       1       1       1       1       1       1       1       1       1       8
       6       6       1       6       6       6       6       6       6       1
       7       6       6       6       6       8       6       6       8       6
       6       8       8       6       8       6       8       6       8       1
       1       1       1       1       1       1       1       1       1       1
       1       1       1       1       1       1       1       1       1       1
       1       1       1       1       8       6       6       1       6       6
       6       6       6       6       1       7       6       6       6       6
       8       6       6       8       6       6       8       8       6       8
       6       8       6       8       1       1       1       1       1       1
       1       1       1       1       1       1       1       1       1       1
       1       1       1       1       1       1       1       1       1       8
       6       6       1       6       6       6       6       6       6       1
       7       6       6       6       6       8       6       6       8       6
       6       8       8       6       8       6       8       6       8       1
       1       1       1       1       1       1       1       1       1       1
       1       1       1       1       1       1       1       1       1       1
       1       1       1       1       8       6       6       1       6       6
       6       6       6       6       1       7       6       6       6       6
       8       6       6       8       6       6       8       8       6       8
       6       8       6       8       1       1       1       1       1       1
       1       1       1       1       1       1       1       1       1       1
       1       1       1       1       1       1       1       1       1       8
       6       6       1       6       6       6       6       6       6       1
       7       6       6       6       6       8       6       6       8       6
       6       8       8       6       8       6       8       6       8       1
       1       1       1       1       1       1       1       1       1       1
       1       1       1       1       1       1       1       1       1       1
       1       1       1       1       8       6       6       1       6       6
       6       6       6       6       1       7       6       6       6       6
       8       6       6       8       6       6       8       8       6       8
       6       8       6       8       1       1       1       1       1       1
       1       1       1       1       1       1       1       1       1       1
       1       1       1       1       1       1       1       1       1       8
       6       6       1       6       6       6       6       6       6       1
       7       6       6       6       6       8       6       6       8       6
       6       8       8       6       8       6       8       6       8       1
       1       1       1       1       1       1       1       1       1       1
       1       1       1       1       1       1       1       1       1       1
       1       1       1       1       8       6       6       1       6       6
       6       6       6       6       1       7       6       6       6       6
       8       6       6       8       6       6       8       8       6       8
       6       8       6       8       1       1       1       1       1       1
       1       1       1       1       1       1       1       1       1       1
       1       1       1       1       1       1       1       1       1       6
       1       1       6       1       1       8       6       6       1       6
       6       6       6       6       6       1       7       6       6       6
       6       8       6       6       8       6       6       8       8       6
       8       6       8       6       8       1       1       1       1       1
       1       1       1       1       1       1       1       1       1       1
       1       1       1       1       1       1       1       1       1       1
       8       6       6       1       6       6       6       6       6       6
       1       7       6       6       6       6       8       6       6       8
       6       6       8       8       6       8       6       8       6       8
       1       1       1       1       1       1       1       1       1       1
       1       1       1       1       1       1       1       1       1       1
       1       1       1       1       1       8       6       6       1       6
       6       6       6       6       6       1       7       6       6       6
       6       8       6       6       8       6       6       8       8       6
       8       6       8       6       8       1       1       1       1       1
       1       1       1       1       1       1       1       1       1       1
       1       1       1       1       1       1       1       1       1       1
       8       6       6       1       6       6       6       6       6       6
       1       7       6       6       6       6       8       6       6       8
       6       6       8       8       6       8       6       8       6       8
       1       1       1       1       1       1       1       1       1       1
       1       1       1       1       1       1       1       1       1       1
       1       1       1       1       1       8       6       6       1       6
       6       6       6       6       6       1       7       6       6       6
       6       8       6       6       8       6       6       8       8       6
       8       6       8       6       8       1       1       1       1       1
       1       1       1       1       1       1       1       1       1       1
       1       1       1       1       1       1       1       1       1       1
       8       6       6       1       6       6       6       6       6       6
       1       7       6       6       6       6       8       6       6       8
       6       6       8       8       6       8       6       8       6       8
       1       1       1       1       1       1       1       1       1       1
       1       1       1       1       1       1       1       1       1       1
       1       1       1       1       1       8       6       6       1       6
       6       6       6       6       6       1       7       6       6       6
       6       8       6       6       8       6       6       8       8       6
       8       6       8       6       8       1       1       1       1       1
       1       1       1       1       1       1       1       1       1       1
       1       1       1       1       1       1       1       1       1       1
       8       6       6       1       6       6       6       6       6       6
       1       7       6       6       6       6       8       6       6       8
       6       6       8       8       6       8       6       8       6       8
       1       1       1       1       1       1       1       1       1       1
       1       1       1       1       1       1       1       1       1       1
       1       1       1       1       1       8       6       6       1       6
       6       6       6       6       6       1       7       6       6       6
       6       8       6       6       8       6       6       8       8       6
       8       6       8       6       8       1       1       1       1       1
       1       1       1       1       1       1       1       1       1       1
       1       1       1       1       1       1       1       1       1       1
       8       6       6       1       6       6       6       6       6       6
       1       7       6       6       6       6       8       6       6       8
       6       6       8       8       6       8       6       8       6       8
       1       1       1       1       1       1       1       1       1       1
       1       1       1       1       1       1       1       1       1       1
       1       1       1       1       1       6       1       1       8       1
       1       8       1       1       8       1       1       8       1       1
       8       1       1       8       1       1       8       1       1       8
       1       1       8       1       1       8       1       1       8       1
       1       8       1       1       8       1       1       8       1       1
       8       1       1       8       1       1       8       1       1       8
       1       1       8       1       1       8       1       1       8       1
       1       8       1       1       8       1       1       8       1       1
       8       1       1       8       1       1       8       1       1       8
       1       1       8       1       1       8       1       1       8       1
       1       8       1       1       8       1       1       8       1       1
       8       1       1       8       1       1       8       1       1       8
       1       1       8       1       1       8       1       1       8       1
       1       8       1       1       8       1       1       8       1       1
       8       1       1       8       1       1       8       1       1       8
       1       1       8       1       1       8       1       1       8       1
       1       8       1       1       8       1       1       8       1       1
       8       1       1       8       1       1       8       1       1       8
       1       1       8       1       1       8       1       1       8       1
       1       8       1       1       8       1       1       8       1       1
       8       1       1       8       1       1       8       1       1       8
       1       1       8       1       1       8       1       1       8       1
       1       8       1       1       8       1       1       8       1       1
       8       1       1       8       1       1       8       1       1       8
       1       1       8       1       1       8       1       1       8       1
       1       8       1       1       8       1       1       8       1       1
       8       1       1       8       1       1       8       1       1       8
       1       1       8       1       1       8       1       1       8       1
       1       8       1       1       8       1       1       8       1       1
       8       1       1       8       1       1       8       1       1       8
       1       1       8       1       1       8       1       1       8       1
       1       8       1       1       8       1       1       8       1       1
       8       1       1       8       1       1       8       1       1       8
       1       1       8       1       1       8       1       1       8       1
       1       8       1       1       8       1       1       8       1       1
       8       1       1       8       1       1       8       1       1       8
       1       1       8       1       1       8       1       1       8       1
       1       8       1       1       8       1       1       8       1       1
       8       1       1       8       1       1       8       1       1       8
       1       1       8       1       1       8       1       1       8       1
       1       8       1       1       8       1       1       8       1       1
       8       1       1       8       1       1       8       1       1       8
       1       1       8       1       1       8       1       1       8       1
       1       8       1       1       8       1       1       8       1       1
       8       1       1       8       1       1       8       1       1       8
       1       1       8       1       1       8       1       1       8       1
       1       8       1       1       8       1       1       8       1       1
       8       1       1       8       1       1       8       1       1       8
       1       1       8       1       1       8       1       1       8       1
       1       8       1       1       8       1       1       8       1       1
       8       1       1       8       1       1       8       1       1       8
       1       1       8       1       1       8       1       1       8       1
       1       8       1       1       8       1       1       8       1       1
       8       1       1       8       1       1       8       1       1       8
       1       1       8       1       1       8       1       1       8       1
       1       8       1       1       8       1       1       8       1       1
       8       1       1       8       1       1       8       1       1       8
       1       1       8       1       1       8       1       1       8       1
       1       8       1       1       8       1       1       8       1       1
       8       1       1       8       1       1       8       1       1       8
       1       1       8       1       1       8       1       1       8       1
       1       8       1       1       8       1       1       8       1       1
       8       1       1       8       1       1       8       1       1       8
       1       1       8       1       1       8       1       1       8       1
       1       8       1       1       8       1       1       8       1       1
       8       1       1       8       1       1       8       1       1       8
       1       1       8       1       1       8       1       1       8       1
       1       8       1       1       8       1       1       8       1       1
       8       1       1       8       1       1       8       1       1       8
       1       1       8       1       1       8       1       1       8       1
       1       8       1       1       8       1       1       8       1       1
       8       1       1       8       1       1       8       1       1       8
       1       1       8       1       1       8       1       1       8       1
       1       8       1       1       8       1       1       8       1       1
       8       1       1       8       1       1       8       1       1       8
       1       1       8       1       1       8       1       1       8       1
       1       8       1       1       8       1       1       8       1       1
       8       1       1       8       1       1       8       1       1       8
       1       1       8       1       1       8       1       1       8       1
       1       8       1       1       8       1       1       8       1       1
       8       1       1       8       1       1       8       1       1       8
       1       1       8       1       1       8       1       1       8       1
       1       8       1       1       8       1       1       8       1       1
       8       1       1       8       1       1       8       1       1       8
       1       1       8       1       1       8       1       1       8       1
       1       8       1       1       8       1       1       8       1       1
       8       1       1       8       1       1       8       1       1       8
       1       1       8       1       1       8       1       1       8       1
       1       8       1       1       8       1       1       8       1       1
       8       1       1       8       1       1       8       1       1       8
       1       1       8       1       1       8       1       1       8       1
       1       8       1       1       8       1       1       8       1       1
       8       1       1       8       1       1       8       1       1       8
       1       1       8       1       1       8       1       1       8       1
       1       8       1       1       8       1       1       8       1       1
       8       1       1       8       1       1       8       1       1       8
       1       1       8       1       1       8       1       1       8       1
       1       8       1       1       8       1       1       8       1       1
       8       1       1       8       1       1       8       1       1       8
       1       1       8       1       1       8       1       1       8       1
       1       8       1       1       8       1       1       8       1       1
       8       1       1       8       1       1       8       1       1       8
       1       1       8       1       1       8       1       1       8       1
       1       8       1       1       8       1       1       8       1       1
       8       1       1       8       1       1       8       1       1       8
       1       1       8       1       1       8       1       1       8       1
       1       8       1       1       8       1       1       8       1       1
       8       1       1       8       1       1       8       1       1       8
       1       1       8       1       1       8       1       1       8       1
       1       8       1       1       8       1       1       8       1       1
       8       1       1       8       1       1       8       1       1       8
       1       1       8       1       1       8       1       1       8       1
       1       8       1       1       8       1       1       8       1       1
       8       1       1       8       1       1       8       1       1       8
       1       1       8       1       1       8       1       1       8       1
       1       8       1       1       8       1       1       8       1       1
       8       1       1       8       1       1       8       1       1       8
       1       1       8       1       1       8       1       1       8       1
       1       8       1       1       8       1       1       8       1       1
       8       1       1       8       1       1       8       1       1       8
       1       1       8       1       1       8       1       1       8       1
       1       8       1       1       8       1       1       8       1       1
       8       1       1       8       1       1       8       1       1       8
       1       1       8       1       1       8       1       1       8       1
       1       8       1       1       8       1       1       8       1       1
       8       1       1       8       1       1       8       1       1       8
       1       1       8       1       1       8       1       1       8       1
       1       8       1       1       8       1       1       8       1       1
       8       1       1       8       1       1       8       1       1       8
       1       1       8       1       1       8       1       1       8       1
       1       8       1       1       8       1       1       8       1       1
       8       1       1       8       1       1       8       1       1       8
       1       1       8       1       1       8       1       1       8       1
       1       8       1       1       8       1       1       8       1       1
       8       1       1       8       1       1       8       1       1       8
       1       1       8       1       1       8       1       1       8       1
       1       8       1       1       8       1       1       8       1       1
       8       1       1       8       1       1       8       1       1       8
       1       1       8       1       1       8       1       1       8       1
       1       8       1       1       8       1       1       8       1       1
       8       1       1       8       1       1       8       1       1       8
       1       1       8       1       1       8       1       1       8       1
       1       8       1       1       8       1       1       8       1       1
       8       1       1       8       1       1       8       1       1       8
       1       1       8       1       1       8       1       1       8       1
       1       8       1       1       8       1       1       8       1       1
       8       1       1       8       1       1       8       1       1       8
       1       1       8       1       1       8       1       1       8       1
       1       8       1       1       8       1       1       8       1       1
       8       1       1       8       1       1       8       1       1       8
       1       1       8       1       1       8       1       1       8       1
       1       8       1       1       8       1       1       8       1       1
       8       1       1       8       1       1       8       1       1       8
       1       1       8       1       1       8       1       1       8       1
       1       8       1       1       8       1       1       8       1       1
       8       1       1       8       1       1       8       1       1       8
       1       1       8       1       1       8       1       1       8       1
       1       8       1       1       8       1       1       8       1       1
       8       1       1       8       1       1       8       1       1       8
       1       1       8       1       1       8       1       1       8       1
       1       8       1       1       8       1       1       8       1       1
       8       1       1       8       1       1       8       1       1       8
       1       1       8       1       1       8       1       1       8       1
       1       8       1       1       8       1       1       8       1       1
       8       1       1       8       1       1       8       1       1       8
       1       1       8       1       1       8       1       1       8       1
       1       8       1       1       8       1       1       8       1       1
       8       1       1       8       1       1       8       1       1       8
       1       1       8       1       1       8       1       1       8       1
       1       8       1       1       8       1       1       8       1       1
       8       1       1       8       1       1       8       1       1       8
       1       1       8       1       1       8       1       1       8       1
       1       8       1       1       8       1       1       8       1       1
       8       1       1       8       1       1       8       1       1       8
       1       1       8       1       1       8       1       1       8       1
       1       8       1       1       8       1       1       8       1       1
       8       1       1       8       1       1       8       1       1       8
       1       1       8       1       1       8       1       1       8       1
       1       8       1       1       8       1       1       8       1       1
       8       1       1       8       1       1       8       1       1       8
       1       1       8       1       1       8       1       1       8       1
       1       8       1       1       8       1       1       8       1       1
       8       1       1       8       1       1       8       1       1       8
       1       1       8       1       1       8       1       1       8       1
       1       8       1       1       8       1       1       8       1       1
       8       1       1       8       1       1       8       1       1       8
       1       1       8       1       1       8       1       1       8       1
       1       8       1       1       8       1       1       8       1       1
       8       1       1       8       1       1       8       1       1       8
       1       1       8       1       1       8       1       1       8       1
       1       8       1       1       8       1       1       8       1       1
       8       1       1       8       1       1       8       1       1       8
       1       1       8       1       1       8       1       1       8       1
       1       8       1       1       8       1       1       8       1       1
       8       1       1       8       1       1       8       1       1       8
       1       1       8       1       1       8       1       1       8       1
       1       8       1       1       8       1       1       8       1       1
       8       1       1       8       1       1       8       1       1       8
       1       1       8       1       1       8       1       1       8       1
       1       8       1       1       8       1       1       8       1       1
       8       1       1       8       1       1       8       1       1       8
       1       1       8       1       1       8       1       1       8       1
       1       8       1       1       8       1       1       8       1       1
       8       1       1       8       1       1       8       1       1       8
       1       1       8       1       1       8       1       1       8       1
       1       8       1       1       8       1       1       8       1       1
       8       1       1       8       1       1       8       1       1       8
       1       1       8       1       1       8       1       1       8       1
       1       8       1       1       8       1       1       8       1       1
       8       1       1       8       1       1       8       1       1       8
       1       1       8       1       1       8       1       1       8       1
       1       8       1       1       8       1       1       8       1       1
       8       1       1       8       1       1       8       1       1       8
       1       1       8       1       1       8       1       1       8       1
       1       8       1       1       8       1       1       8       1       1
       8       1       1       8       1       1       8       1       1       8
       1       1       8       1       1       8       1       1       8       1
       1       8       1       1       8       1       1       8       1       1
       8       1       1       8       1       1       8       1       1       8
       1       1       8       1       1       8       1       1       8       1
       1       8       1       1       8       1       1       8       1       1
       8       1       1       8       1       1       8       1       1       8
       1       1       8       1       1       8       1       1       8       1
       1       8       1       1       8       1       1       8       1       1
       8       1       1       8       1       1       8       1       1       8
       1       1       8       1       1       8       1       1       8       1
       1       8       1       1       8       1       1       8       1       1
       8       1       1       8       1       1       8       1       1       8
       1       1       8       1       1       8       1       1       8       1
       1       8       1       1       8       1       1       8       1       1
       8       1       1       8       1       1       8       1       1       8
       1       1       8       1       1       8       1       1       8       1
       1       8       1       1       8       1       1       8       1       1
       8       1       1       8       1       1       8       1       1       8
       1       1       8       1       1       8       1       1       8       1
       1       8       1       1       8       1       1       8       1       1
       8       1       1       8       1       1       8       1       1       8
       1       1       8       1       1       8       1       1       8       1
       1       8       1       1       8       1       1       8       1       1
       8       1       1       8       1       1       8       1       1       8
       1       1       8       1       1       8       1       1       8       1
       1       8       1       1       8       1       1       8       1       1
       8       1       1       8       1       1       8       1       1       8
       1       1       8       1       1       8       1       1       8       1
       1       8       1       1       8       1       1       8       1       1
       8       1       1       8       1       1       8       1       1       8
       1       1       8       1       1       8       1       1       8       1
       1       8       1       1       8       1       1       8       1       1
       8       1       1       8       1       1       8       1       1       8
       1       1       8       1       1       8       1       1       8       1
       1       8       1       1       8       1       1       8       1       1
       8       1       1       8       1       1       8       1       1       8
       1       1       8       1       1       8       1       1       8       1
       1       8       1       1       8       1       1       8       1       1
       8       1       1       8       1       1       8       1       1       8
       1       1       8       1       1       8       1       1       8       1
       1       8       1       1       8       1       1       8       1       1
       8       1       1       8       1       1       8       1       1       8
       1       1       8       1       1       8       1       1       8       1
       1       8       1       1       8       1       1       8       1       1
       8       1       1       8       1       1       8       1       1       8
       1       1       8       1       1       8       1       1       8       1
       1       8       1       1       8       1       1       8       1       1
       8       1       1       8       1       1       8       1       1       8
       1       1       8       1       1       8       1       1       8       1
       1       8       1       1       8       1       1       8       1       1
       8       1       1       8       1       1       8       1       1       8
       1       1       8       1       1       8       1       1       8       1
       1       8       1       1       8       1       1       8       1       1
       8       1       1       8       1       1       8       1       1       8
       1       1       8       1       1       8       1       1       8       1
       1       8       1       1       8       1       1       8       1       1
       8       1       1       8       1       1       8       1       1       8
       1       1       8       1       1       8       1       1       8       1
       1       8       1       1       8       1       1       8       1       1
       8       1       1       8       1       1       8       1       1       8
       1       1       8       1       1       8       1       1       8       1
       1       8       1       1       8       1       1       8       1       1
       8       1       1       8       1       1       8       1       1       8
       1       1       8       1       1       8       1       1       8       1
       1       8       1       1       8       1       1       8       1       1
       8       1       1       8       1       1       8       1       1       8
       1       1       8       1       1       8       1       1       8       1
       1       8       1       1       8       1       1       8       1       1
       8       1       1       8       1       1       8       1       1       8
       1       1       8       1       1       8       1       1       8       1
       1       8       1       1       8       1       1       8       1       1
       8       1       1       8       1       1       8       1       1       8
       1       1       8       1       1       8       1       1       8       1
       1       8       1       1       8       1       1       8       1       1
       8       1       1       8       1       1       8       1       1       8
       1       1       8       1       1       8       1       1       8       1
       1       8       1       1       8       1       1       8       1       1
       8       1       1       8       1       1       8       1       1       8
       1       1       8       1       1       8       1       1       8       1
       1       8       1       1       8       1       1       8       1       1
       8       1       1       8       1       1       8       1       1       8
       1       1       8       1       1       8       1       1       8       1
       1       8       1       1       8       1       1       8       1       1
       8       1       1       8       1       1       8       1       1       8
       1       1       8       1       1       8       1       1       8       1
       1       8       1       1       8       1       1       8       1       1
       8       1       1       8       1       1       8       1       1       8
       1       1       8       1       1       8       1       1       8       1
       1       8       1       1       8       1       1       8       1       1
       8       1       1       8       1       1       8       1       1       8
       1       1       8       1       1       8       1       1       8       1
       1       8       1       1       8       1       1       8       1       1
       8       1       1       8       1       1       8       1       1       8
       1       1       8       1       1       8       1       1       8       1
       1       8       1       1       8       1       1       8       1       1
       8       1       1       8       1       1       8       1       1       8
       1       1       8       1       1       8       1       1       8       1
       1       8       1       1       8       1       1       8       1       1
       8       1       1       8       1       1       8       1       1       8
       1       1       8       1       1       8       1       1       8       1
       1       8       1       1       8       1       1       8       1       1
       8       1       1       8       1       1       8       1       1       8
       1       1       8       1       1       8       1       1       8       1
       1       8       1       1       8       1       1       8       1       1
       8       1       1       8       1       1       8       1       1       8
       1       1       8       1       1       8       1       1       8       1
       1       8       1       1       8       1       1       8       1       1
       8       1       1       8       1       1       8       1       1       8
       1       1       8       1       1       8       1       1       8       1
       1       8       1       1       8       1       1       8       1       1
       8       1       1       8       1       1       8       1       1       8
       1       1       8       1       1       8       1       1       8       1
       1       8       1       1       8       1       1       8       1       1
       8       1       1       8       1       1       8       1       1       8
       1       1       8       1       1       8       1       1       8       1
       1       8       1       1       8       1       1       8       1       1
       8       1       1       8       1       1       8       1       1       8
       1       1       8       1       1       8       1       1       8       1
       1       8       1       1       8       1       1       8       1       1
       8       1       1       8       1       1       8       1       1       8
       1       1       8       1       1       8       1       1       8       1
       1       8       1       1       8       1       1       8       1       1
       8       1       1       8       1       1       8       1       1       8
       1       1       8       1       1       8       1       1       8       1
       1       8       1       1       8       1       1       8       1       1
       8       1       1       8       1       1       8       1       1       8
       1       1       8       1       1       8       1       1       8       1
       1       8       1       1       8       1       1       8       1       1
       8       1       1       8       1       1       8       1       1       8
       1       1       8       1       1       8       1       1       8       1
       1       8       1       1       8       1       1       8       1       1
       8       1       1       8       1       1       8       1       1       8
       1       1       8       1       1       8       1       1       8       1
       1       8       1       1       8       1       1       8       1       1
       8       1       1       8       1       1       8       1       1       8
       1       1       8       1       1       8       1       1       8       1
       1       8       1       1       8       1       1       8       1       1
       8       1       1       8       1       1       8       1       1       8
       1       1       8       1       1       8       1       1       8       1
       1       8       1       1       8       1       1       8       1       1
       8       1       1       8       1       1       8       1       1       8
       1       1       8       1       1       8       1       1       8       1
       1       8       1       1       8       1       1       8       1       1
       8       1       1       8       1       1       8       1       1       8
       1       1       8       1       1       8       1       1       8       1
       1       8       1       1       8       1       1       8       1       1
       8       1       1       8       1       1       8       1       1       8
       1       1       8       1       1       8       1       1       8       1
       1       8       1       1       8       1       1       8       1       1
       8       1       1       8       1       1       8       1       1       8
       1       1       8       1       1       8       1       1       8       1
       1       8       1       1       8       1       1       8       1       1
       8       1       1       8       1       1       8       1       1       8
       1       1       8       1       1       8       1       1       8       1
       1       8       1       1       8       1       1       8       1       1
       8       1       1       8       1       1       8       1       1       8
       1       1       8       1       1       8       1       1       8       1
       1       8       1       1       8       1       1       8       1       1
       8       1       1       8       1       1       8       1       1       8
       1       1       8       1       1       8       1       1       8       1
       1       8       1       1       8       1       1       8       1       1
       8       1       1       8       1       1       8       1       1       8
       1       1       8       1       1       8       1       1       8       1
       1       8       1       1       8       1       1       8       1       1
       8       1       1       8       1       1       8       1       1       8
       1       1       8       1       1       8       1       1       8       1
       1       8       1       1       8       1       1       8       1       1
       8       1       1       8       1       1       8       1       1       8
       1       1       8       1       1       8       1       1       8       1
       1       8       1       1       8       1       1       8       1       1
       8       1       1       8       1       1       8       1       1       8
       1       1       8       1       1       8       1       1       8       1
       1       8       1       1       8       1       1       8       1       1
       8       1       1       8       1       1       8       1       1       8
       1       1       8       1       1       8       1       1       8       1
       1       8       1       1       8       1       1       8       1       1
       8       1       1       8       1       1       8       1       1       8
       1       1       8       1       1       8       1       1       8       1
       1       8       1       1       8       1       1       8       1       1
       8       1       1       8       1       1       8       1       1       8
       1       1       8       1       1       8       1       1       8       1
       1       8       1       1       8       1       1       8       1       1
       8       1       1       8       1       1       8       1       1       8
       1       1       8       1       1       8       1       1       8       1
       1       8       1       1       8       1       1       8       1       1
       8       1       1       8       1       1       8       1       1       8
       1       1       8       1       1       8       1       1       8       1
       1       8       1       1       8       1       1       8       1       1
       8       1       1       8       1       1       8       1       1       8
       1       1       8       1       1       8       1       1       8       1
       1       8       1       1       8       1       1       8       1       1
       8       1       1       8       1       1       8       1       1       8
       1       1       8       1       1       8       1       1       8       1
       1       8       1       1       8       1       1       8       1       1
       8       1       1       8       1       1       8       1       1       8
       1       1       8       1       1       8       1       1       8       1
       1       8       1       1       8       1       1       8       1       1
       8       1       1       8       1       1       8       1       1       8
       1       1       8       1       1       8       1       1       8       1
       1       8       1       1       8       1       1       8       1       1
       8       1       1       8       1       1       8       1       1       8
       1       1       8       1       1       8       1       1       8       1
       1       8       1       1       8       1       1       8       1       1
       8       1       1       8       1       1       8       1       1       8
       1       1       8       1       1       8       1       1       8       1
       1       8       1       1       8       1       1       8       1       1
       8       1       1       8       1       1       8       1       1       8
       1       1       8       1       1       8       1       1       8       1
       1       8       1       1       8       1       1       8       1       1
       8       1       1       8       1       1       8       1       1       8
       1       1       8       1       1       8       1       1       8       1
       1       8       1       1       8       1       1       8       1       1
       8       1       1       8       1       1       8       1       1       8
       1       1       8       1       1       8       1       1       8       1
       1       8       1       1       8       1       1       8       1       1
       8       1       1       8       1       1       8       1       1       8
       1       1       8       1       1       8       1       1       8       1
       1       8       1       1       8       1       1       8       1       1
       8       1       1       8       1       1       8       1       1       8
       1       1       8       1       1       8       1       1       8       1
       1       8       1       1       8       1       1       8       1       1
       8       1       1       8       1       1       8       1       1       8
       1       1       8       1       1       8       1       1       8       1
       1       8       1       1       8       1       1       8       1       1
       8       1       1       8       1       1       8       1       1       8
       1       1       8       1       1       8       1       1       8       1
       1       8       1       1       8       1       1       8       1       1
       8       1       1       8       1       1       8       1       1       8
       1       1       8       1       1       8       1       1       8       1
       1       8       1       1       8       1       1       8       1       1
       8       1       1       8       1       1       8       1       1       8
       1       1       8       1       1       8       1       1       8       1
       1       8       1       1       8       1       1       8       1       1
       8       1       1       8       1       1       8       1       1       8
       1       1       8       1       1       8       1       1       8       1
       1       8       1       1       8       1       1       8       1       1
       8       1       1       8       1       1       8       1       1       8
       1       1       8       1       1       8       1       1       8       1
       1       8       1       1       8       1       1       8       1       1
       8       1       1       8       1       1       8       1       1       8
       1       1       8       1       1       8       1       1       8       1
       1       8       1       1       8       1       1       8       1       1
       8       1       1       8       1       1       8       1       1       8
       1       1       8       1       1       8       1       1       8       1
       1       8       1       1       8       1       1       8       1       1
       8       1       1       8       1       1       8       1       1       8
       1       1       8       1       1       8       1       1       8       1
       1       8       1       1       8       1       1       8       1       1
       8       1       1       8       1       1       8       1       1       8
       1       1       8       1       1       8       1       1       8       1
       1       8       1       1       8       1       1       8       1       1
       8       1       1       8       1       1       8       1       1       8
       1       1       8       1       1       8       1       1       8       1
       1       8       1       1       8       1       1       8       1       1
       8       1       1       8       1       1       8       1       1       8
       1       1       8       1       1       8       1       1       8       1
       1       8       1       1       8       1       1       8       1       1
       8       1       1       8       1       1       8       1       1       8
       1       1       8       1       1       8       1       1       8       1
       1       8       1       1       8       1       1       8       1       1
       8       1       1       8       1       1       8       1       1       8
       1       1       8       1       1       8       1       1       8       1
       1       8       1       1       8       1       1       8       1       1
       8       1       1       8       1       1       8       1       1       8
       1       1       8       1       1       8       1       1       8       1
       1       8       1       1       8       1       1       8       1       1
       8       1       1       8       1       1       8       1       1       8
       1       1       8       1       1       8       1       1       8       1
       1       8       1       1       8       1       1       8       1       1
       8       1       1       8       1       1       8       1       1       8
       1       1       8       1       1       8       1       1       8       1
       1       8       1       1       8       1       1       8       1       1
       8       1       1       8       1       1       8       1       1       8
       1       1       8       1       1       8       1       1       8       1
       1       8       1       1       8       1       1       8       1       1
       8       1       1       8       1       1       8       1       1       8
       1       1       8       1       1       8       1       1       8       1
       1       8       1       1       8       1       1       8       1       1
       8       1       1       8       1       1       8       1       1       8
       1       1       8       1       1       8       1       1       8       1
       1       8       1       1       8       1       1       8       1       1
       8       1       1       8       1       1       8       1       1       8
       1       1       8       1       1       8       1       1       8       1
       1       8       1       1       8       1       1       8       1       1
       8       1       1       8       1       1       8       1       1       8
       1       1       8       1       1       8       1       1       8       1
       1       8       1       1       8       1       1       8       1       1
       8       1       1       8       1       1       8       1       1       8
       1       1       8       1       1       8       1       1       8       1
       1       8       1       1       8       1       1       8       1       1
       8       1       1       8       1       1       8       1       1       8
       1       1       8       1       1       8       1       1       8       1
       1       8       1       1       8       1       1       8       1       1
       8       1       1       8       1       1       8       1       1       8
       1       1       8       1       1       8       1       1       8       1
       1       8       1       1       8       1       1       8       1       1
       8       1       1       8       1       1       8       1       1       8
       1       1       8       1       1       8       1       1       8       1
       1       8       1       1       8       1       1       8       1       1
       8       1       1       8       1       1       8       1       1       8
       1       1       8       1       1       8       1       1       8       1
       1       8       1       1       8       1       1       8       1       1
       8       1       1       8       1       1       8       1       1       8
       1       1       8       1       1       8       1       1       8       1
       1       8       1       1       8       1       1       8       1       1
       8       1       1       8       1       1       8       1       1       8
       1       1       8       1       1       8       1       1       8       1
       1       8       1       1       8       1       1       8       1       1
       8       1       1       8       1       1       8       1       1       8
       1       1       8       1       1       8       1       1       8       1
       1       8       1       1       8       1       1       8       1       1
       8       1       1       8       1       1       8       1       1       8
       1       1       8       1       1       8       1       1       8       1
       1       8       1       1       8       1       1       8       1       1
       8       1       1       8       1       1       8       1       1       8
       1       1       8       1       1       8       1       1       8       1
       1       8       1       1       8       1       1       8       1       1
       8       1       1       8       1       1       8       1       1       8
       1       1       8       1       1       8       1       1       8       1
       1       8       1       1       8       1       1       8       1       1
       8       1       1       8       1       1       8       1       1       8
       1       1       8       1       1       8       1       1       8       1
       1       8       1       1       8       1       1       8       1       1
       8       1       1       8       1       1       8       1       1       8
       1       1       8       1       1       8       1       1       8       1
       1       8       1       1       8       1       1       8       1       1
       8       1       1       8       1       1       8       1       1       8
       1       1       8       1       1       8       1       1       8       1
       1       8       1       1       8       1       1       8       1       1
       8       1       1       8       1       1       8       1       1       8
       1       1       8       1       1       8       1       1       8       1
       1       8       1       1       8       1       1       8       1       1
       8       1       1       8       1       1       8       1       1       8
       1       1       8       1       1       8       1       1       8       1
       1       8       1       1       8       1       1       8       1       1
       8       1       1       8       1       1       8       1       1       8
       1       1       8       1       1       8       1       1       8       1
       1       8       1       1       8       1       1       8       1       1
       8       1       1       8       1       1       8       1       1       8
       1       1       8       1       1       8       1       1       8       1
       1       8       1       1       8       1       1       8       1       1
       8       1       1       8       1       1       8       1       1       8
       1       1       8       1       1       8       1       1       8       1
       1       8       1       1       8       1       1       8       1       1
       8       1       1       8       1       1       8       1       1       8
       1       1       8       1       1       8       1       1       8       1
       1       8       1       1       8       1       1       8       1       1
       8       1       1       8       1       1       8       1       1       8
       1       1       8       1       1       8       1       1       8       1
       1       8       1       1       8       1       1       8       1       1
       8       1       1       8       1       1       8       1       1       8
       1       1       8       1       1       8       1       1       8       1
       1       8       1       1       8       1       1       8       1       1
       8       1       1       8       1       1       8       1       1       8
       1       1       8       1       1       8       1       1       8       1
       1       8       1       1       8       1       1       8       1       1
       8       1       1       8       1       1       8       1       1       8
       1       1       8       1       1       8       1       1       8       1
       1       8       1       1       8       1       1       8       1       1
       8       1       1       8       1       1       8       1       1       8
       1       1       8       1       1       8       1       1       8       1
       1       8       1       1       8       1       1       8       1       1
       8       1       1       8       1       1       8       1       1       8
       1       1       8       1       1       8       1       1       8       1
       1       8       1       1       8       1       1       8       1       1
       8       1       1       8       1       1       8       1       1       8
       1       1       8       1       1       8       1       1       8       1
       1       8       1       1       8       1       1       8       1       1
       8       1       1       8       1       1       8       1       1       8
       1       1       8       1       1       8       1       1       8       1
       1       8       1       1       8       1       1       8       1       1
       8       1       1       8       1       1       8       1       1       8
       1       1       8       1       1       8       1       1       8       1
       1       8       1       1       8       1       1       8       1       1
       8       1       1       8       1       1       8       1       1       8
       1       1       8       1       1       8       1       1       8       1
       1       8       1       1       8       1       1       8       1       1
       8       1       1       8       1       1       8       1       1       8
       1       1       8       1       1       8       1       1       8       1
       1       8       1       1       8       1       1       8       1       1
       8       1       1       8       1       1       8       1       1       8
       1       1       8       1       1       8       1       1       8       1
       1       8       1       1       8       1       1       8       1       1
       8       1       1       8       1       1       8       1       1       8
       1       1       8       1       1       8       1       1       8       1
       1       8       1       1       8       1       1       8       1       1
       8       1       1       8       1       1       8       1       1       8
       1       1       8       1       1       8       1       1       8       1
       1       8       1       1       8       1       1       8       1       1
       8       1       1       8       1       1       8       1       1       8
       1       1       8       1       1       8       1       1       8       1
       1       8       1       1       8       1       1       8       1       1
       8       1       1       8       1       1       8       1       1       8
       1       1       8       1       1       8       1       1       8       1
       1       8       1       1       8       1       1       8       1       1
       8       1       1       8       1       1       8       1       1       8
       1       1       8       1       1       8       1       1       8       1
       1       8       1       1       8       1       1       8       1       1
       8       1       1       8       1       1       8       1       1       8
       1       1       8       1       1       8       1       1       8       1
       1       8       1       1       8       1       1       8       1       1
       8       1       1       8       1       1       8       1       1       8
       1       1       8       1       1       8       1       1       8       1
       1       8       1       1       8       1       1       8       1       1
       8       1       1       8       1       1       8       1       1       8
       1       1       8       1       1       8       1       1       8       1
       1       8       1       1       8       1       1       8       1       1
       8       1       1       8       1       1       8       1       1       8
       1       1       8       1       1       8       1       1       8       1
       1       8       1       1       8       1       1       8       1       1
       8       1       1       8       1       1       8       1       1       8
       1       1       8       1       1       8       1       1       8       1
       1       8       1       1       8       1       1       8       1       1
       8       1       1       8       1       1       8       1       1       8
       1       1       8       1       1       8       1       1       8       1
       1       8       1       1       8       1       1       8       1       1
       8       1       1       8       1       1       8       1       1       8
       1       1       8       1       1       8       1       1       8       1
       1       8       1       1       8       1       1       8       1       1
       8       1       1       8       1       1       8       1       1       8
       1       1       8       1       1       8       1       1       8       1
       1       8       1       1       8       1       1       8       1       1
       8       1       1       8       1       1       8       1       1       8
       1       1       8       1       1       8       1       1       8       1
       1       8       1       1       8       1       1       8       1       1
       8       1       1       8       1       1       8       1       1       8
       1       1       8       1       1       8       1       1       8       1
       1       8       1       1       8       1       1       8       1       1
       8       1       1       8       1       1       8       1       1       8
       1       1       8       1       1       8       1       1       8       1
       1       8       1       1       8       1       1       8       1       1
       8       1       1       8       1       1       8       1       1       8
       1       1       8       1       1       8       1       1       8       1
       1       8       1       1       8       1       1       8       1       1
       8       1       1       8       1       1       8       1       1       8
       1       1       8       1       1       8       1       1       8       1
       1       8       1       1       8       1       1       8       1       1
       8       1       1       8       1       1       8       1       1       8
       1       1       8       1       1       8       1       1       8       1
       1       8       1       1       8       1       1       8       1       1
       8       1       1       8       1       1       8       1       1       8
       1       1       8       1       1       8       1       1       8       1
       1       8       1       1       8       1       1       8       1       1
       8       1       1       8       1       1       8       1       1       8
       1       1       8       1       1       8       1       1       8       1
       1       8       1       1       8       1       1       8       1       1
       8       1       1       8       1       1       8       1       1       8
       1       1       8       1       1       8       1       1       8       1
       1       8       1       1       8       1       1       8       1       1
       8       1       1       8       1       1       8       1       1       8
       1       1       8       1       1       8       1       1       8       1
       1       8       1       1       8       1       1       8       1       1
       8       1       1       8       1       1       8       1       1       8
       1       1       8       1       1       8       1       1       8       1
       1       8       1       1       8       1       1       8       1       1
       8       1       1       8       1       1       8       1       1       8
       1       1       8       1       1       8       1       1       8       1
       1       8       1       1       8       1       1       8       1       1
       8       1       1       8       1       1       8       1       1       8
       1       1       8       1       1       8       1       1       8       1
       1       8       1       1       8       1       1       8       1       1
       8       1       1       8       1       1       8       1       1       8
       1       1       8       1       1       8       1       1       8       1
       1       8       1       1       8       1       1       8       1       1
       8       1       1       8       1       1       8       1       1       8
       1       1       8       1       1       8       1       1       8       1
       1       8       1       1       8       1       1       8       1       1
       8       1       1       8       1       1       8       1       1       8
       1       1       8       1       1       8       1       1       8       1
       1       8       1       1       8       1       1       8       1       1
       8       1       1       8       1       1       8       1       1       8
       1       1       8       1       1       8       1       1       8       1
       1       8       1       1       8       1       1       8       1       1
       8       1       1       8       1       1       8       1       1       8
       1       1       8       1       1       8       1       1       8       1
       1       8       1       1       8       1       1       8       1       1
       8       1       1       8       1       1       8       1       1       8
       1       1       8       1       1       8       1       1       8       1
       1       8       1       1       8       1       1       8       1       1
       8       1       1       8       1       1       8       1       1       8
       1       1       8       1       1       8       1       1       8       1
       1       8       1       1       8       1       1       8       1       1
       8       1       1       8       1       1       8       1       1       8
       1       1       8       1       1       8       1       1       8       1
       1       8       1       1       8       1       1       8       1       1
       8       1       1       8       1       1       8       1       1       8
       1       1       8       1       1       8       1       1       8       1
       1       8       1       1       8       1       1       8       1       1
       8       1       1       8       1       1       8       1       1       8
       1       1       8       1       1       8       1       1       8       1
       1       8       1       1       8       1       1       8       1       1
       8       1       1       8       1       1       8       1       1       8
       1       1       8       1       1       8       1       1       8       1
       1       8       1       1       8       1       1       8       1       1
       8       1       1       8       1       1       8       1       1       8
       1       1       8       1       1       8       1       1       8       1
       1       8       1       1       8       1       1       8       1       1
       8       1       1       8       1       1       8       1       1       8
       1       1       8       1       1       8       1       1       8       1
       1       8       1       1       8       1       1       8       1       1
       8       1       1       8       1       1       8       1       1       8
       1       1       8       1       1       8       1       1       8       1
       1       8       1       1       8       1       1       8       1       1
       8       1       1       8       1       1       8       1       1       8
       1       1       8       1       1       8       1       1       8       1
       1       8       1       1       8       1       1       8       1       1
       8       1       1       8       1       1       8       1       1       8
       1       1       8       1       1       8       1       1       8       1
       1       8       1       1       8       1       1       8       1       1
       8       1       1       8       1       1       8       1       1       8
       1       1       8       1       1       8       1       1       8       1
       1       8       1       1       8       1       1       8       1       1
       8       1       1       8       1       1       8       1       1       8
       1       1       8       1       1       8       1       1       8       1
       1       8       1       1       8       1       1       8       1       1
       8       1       1       8       1       1       8       1       1       8
       1       1       8       1       1       8       1       1       8       1
       1       8       1       1       8       1       1       8       1       1
       8       1       1       8       1       1       8       1       1       8
       1       1       8       1       1       8       1       1       8       1
       1       8       1       1       8       1       1       8       1       1
       8       1       1       8       1       1       8       1       1       8
       1       1       8       1       1       8       1       1       8       1
       1       8       1       1       8       1       1       8       1       1
       8       1       1       8       1       1       8       1       1       8
       1       1       8       1       1       8       1       1       8       1
       1       8       1       1       8       1       1       8       1       1
       8       1       1       8       1       1       8       1       1       8
       1       1       8       1       1       8       1       1       8       1
       1       8       1       1       8       1       1       8       1       1
       8       1       1       8       1       1       8       1       1       8
       1       1       8       1       1       8       1       1       8       1
       1       8       1       1       8       1       1       8       1       1
       8       1       1       8       1       1       8       1       1       8
       1       1       8       1       1       8       1       1       8       1
       1       8       1       1       8       1       1       8       1       1
       8       1       1       8       1       1       8       1       1       8
       1       1       8       1       1       8       1       1       8       1
       1       8       1       1       8       1       1       8       1       1
       8       1       1       8       1       1       8       1       1       8
       1       1       8       1       1       8       1       1       8       1
       1       8       1       1       8       1       1       8       1       1
       8       1       1       8       1       1       8       1       1       8
       1       1       8       1       1       8       1       1       8       1
       1       8       1       1       8       1       1       8       1       1
       8       1       1       8       1       1       8       1       1       8
       1       1       8       1       1       8       1       1       8       1
       1       8       1       1       8       1       1       8       1       1
       8       1       1       8       1       1       8       1       1       8
       1       1       8       1       1       8       1       1       8       1
       1       8       1       1       8       1       1       8       1       1
       8       1       1       8       1       1       8       1       1       8
       1       1       8       1       1       8       1       1       8       1
       1       8       1       1       8       1       1       8       1       1
       8       1       1       8       1       1       8       1       1       8
       1       1       8       1       1       8       1       1       8       1
       1       8       1       1       8       1       1       8       1       1
       8       1       1       8       1       1       8       1       1       8
       1       1       8       1       1       8       1       1       8       1
       1       8       1       1       8       1       1       8       1       1
       8       1       1       8       1       1       8       1       1       8
       1       1       8       1       1       8       1       1       8       1
       1       8       1       1       8       1       1       8       1       1
       8       1       1       8       1       1       8       1       1       8
       1       1       8       1       1       8       1       1       8       1
       1       8       1       1       8       1       1       8       1       1
       8       1       1       8       1       1       8       1       1       8
       1       1       8       1       1       8       1       1       8       1
       1       8       1       1       8       1       1       8       1       1
       8       1       1       8       1       1       8       1       1       8
       1       1       8       1       1       8       1       1       8       1
       1       8       1       1       8       1       1       8       1       1
       8       1       1       8       1       1       8       1       1       8
       1       1       8       1       1       8       1       1       8       1
       1       8       1       1       8       1       1       8       1       1
       8       1       1       8       1       1       8       1       1       8
       1       1       8       1       1       8       1       1       8       1
       1       8       1       1       8       1       1       8       1       1
       8       1       1       8       1       1       8       1       1       8
       1       1       8       1       1       8       1       1       8       1
       1       8       1       1       8       1       1       8       1       1
       8       1       1       8       1       1       8       1       1       8
       1       1       8       1       1       8       1       1       8       1
       1       8       1       1       8       1       1       8       1       1
       8       1       1       8       1       1       8       1       1       8
       1       1       8       1       1       8       1       1       8       1
       1       8       1       1       8       1       1       8       1       1
       8       1       1       8       1       1       8       1       1       8
       1       1       8       1       1       8       1       1       8       1
       1       8       1       1       8       1       1       8       1       1
       8       1       1       8       1       1       8       1       1       8
       1       1       8       1       1       8       1       1       8       1
       1       8       1       1       8       1       1       8       1       1
       8       1       1       8       1       1       8       1       1       8
       1       1       8       1       1       8       1       1       8       1
       1       8       1       1       8       1       1       8       1       1
       8       1       1       8       1       1       8       1       1       8
       1       1       8       1       1       8       1       1       8       1
       1       8       1       1       8       1       1       8       1       1
       8       1       1       8       1       1       8       1       1       8
       1       1       8       1       1       8       1       1       8       1
       1       8       1       1       8       1       1       8       1       1
       8       1       1       8       1       1       8       1       1       8
       1       1       8       1       1       8       1       1       8       1
       1       8       1       1       8       1       1       8       1       1
       8       1       1       8       1       1       8       1       1       8
       1       1       8       1       1       8       1       1       8       1
       1       8       1       1       8       1       1       8       1       1
       8       1       1       8       1       1       8       1       1       8
       1       1       8       1       1       8       1       1       8       1
       1       8       1       1       8       1       1       8       1       1
       8       1       1       8       1       1       8       1       1       8
       1       1       8       1       1       8       1       1       8       1
       1       8       1       1       8       1       1       8       1       1
       8       1       1       8       1       1       8       1       1       8
       1       1       8       1       1       8       1       1       8       1
       1       8       1       1       8       1       1       8       1       1
       8       1       1       8       1       1       8       1       1       8
       1       1       8       1       1       8       1       1       8       1
       1       8       1       1       8       1       1       8       1       1
       8       1       1       8       1       1       8       1       1       8
       1       1       8       1       1       8       1       1       8       1
       1       8       1       1       8       1       1       8       1       1
       8       1       1       8       1       1       8       1       1       8
       1       1       8       1       1       8       1       1       8       1
       1       8       1       1       8       1       1       8       1       1
       8       1       1       8       1       1       8       1       1       8
       1       1       8       1       1       8       1       1       8       1
       1       8       1       1       8       1       1       8       1       1
       8       1       1       8       1       1       8       1       1       8
       1       1       8       1       1       8       1       1       8       1
       1       8       1       1       8       1       1       8       1       1
       8       1       1       8       1       1       8       1       1       8
       1       1       8       1       1       8       1       1       8       1
       1       8       1       1       8       1       1       8       1       1
       8       1       1       8       1       1       8       1       1       8
       1       1       8       1       1       8       1       1       8       1
       1       8       1       1       8       1       1       8       1       1
       8       1       1       8       1       1       8       1       1       8
       1       1       8       1       1       8       1       1       8       1
       1       8       1       1       8       1       1       8       1       1
       8       1       1       8       1       1       8       1       1       8
       1       1       8       1       1       8       1       1       8       1
       1       8       1       1       8       1       1       8       1       1
       8       1       1       8       1       1       8       1       1       8
       1       1       8       1       1       8       1       1       8       1
       1       8       1       1       8       1       1       8       1       1
       8       1       1       8       1       1       8       1       1       8
       1       1       8       1       1       8       1       1       8       1
       1       8       1       1       8       1       1       8       1       1
       8       1       1       8       1       1       8       1       1       8
       1       1       8       1       1       8       1       1       8       1
       1       8       1       1       8       1       1       8       1       1
       8       1       1       8       1       1       8       1       1       8
       1       1       8       1       1       8       1       1       8       1
       1       8       1       1       8       1       1       8       1       1
       8       1       1       8       1       1       8       1       1       8
       1       1       8       1       1       8       1       1       8       1
       1       8       1       1       8       1       1       8       1       1
       8       1       1       8       1       1       8       1       1       8
       1       1       8       1       1       8       1       1       8       1
       1       8       1       1       8       1       1       8       1       1
       8       1       1       8       1       1       8       1       1       8
       1       1       8       1       1       8       1       1       8       1
       1       8       1       1       8       1       1       8       1       1
       8       1       1       8       1       1       8       1       1       8
       1       1       8       1       1       8       1       1       8       1
       1       8       1       1       8       1       1       8       1       1
       8       1       1       8       1       1       8       1       1       8
       1       1       8       1       1       8       1       1       8       1
       1       8       1       1       8       1       1       8       1       1
       8       1       1       8       1       1       8       1       1       8
       1       1       8       1       1       8       1       1       8       1
       1       8       1       1       8       1       1       8       1       1
       8       1       1       8       1       1       8       1       1       8
       1       1       8       1       1       8       1       1       8       1
       1       8       1       1       8       1       1       8       1       1
       8       1       1       8       1       1       8       1       1       8
       1       1       8       1       1       8       1       1       8       1
       1       8       1       1       8       1       1       8       1       1
       8       1       1       8       1       1       8       1       1       8
       1       1       8       1       1       8       1       1       8       1
       1       8       1       1       8       1       1       8       1       1
       8       1       1       8       1       1       8       1       1       8
       1       1       8       1       1       8       1       1       8       1
       1       8       1       1       8       1       1       8       1       1
       8       1       1       8       1       1       8       1       1       8
       1       1       8       1       1       8       1       1       8       1
       1       8       1       1       8       1       1       8       1       1
       8       1       1       8       1       1       8       1       1       8
       1       1       8       1       1       8       1       1       8       1
       1       8       1       1       8       1       1       8       1       1
       8       1       1       8       1       1       8       1       1       8
       1       1       8       1       1       8       1       1       8       1
       1       8       1       1       8       1       1       8       1       1
       8       1       1       8       1       1       8       1       1       8
       1       1       8       1       1       8       1       1       8       1
       1       8       1       1       8       1       1       8       1       1
       8       1       1       8       1       1       8       1       1       8
       1       1       8       1       1       8       1       1       8       1
       1       8       1       1       8       1       1       8       1       1
       8       1       1       8       1       1       8       1       1       8
       1       1       8       1       1       8       1       1       8       1
       1       8       1       1       8       1       1       8       1       1
       8       1       1       8       1       1       8       1       1       8
       1       1       8       1       1       8       1       1       8       1
       1       8       1       1       8       1       1       8       1       1
       8       1       1       8       1       1       8       1       1       8
       1       1       8       1       1       8       1       1       8       1
       1       8       1       1       8       1       1       8       1       1
       8       1       1       8       1       1       8       1       1       8
       1       1       8       1       1       8       1       1       8       1
       1       8       1       1       8       1       1       8       1       1
       8       1       1       8       1       1       8       1       1       8
       1       1       8       1       1       8       1       1       8       1
       1       8       1       1       8       1       1       8       1       1
       8       1       1       8       1       1       8       1       1       8
       1       1       8       1       1       8       1       1       8       1
       1       8       1       1       8       1       1       8       1       1
       8       1       1       8       1       1       8       1       1       8
       1       1       8       1       1       8       1       1       8       1
       1       8       1       1       8       1       1       8       1       1
       8       1       1       8       1       1       8       1       1       8
       1       1       8       1       1       8       1       1       8       1
       1       8       1       1       8       1       1       8       1       1
       8       1       1       8       1       1       8       1       1       8
       1       1       8       1       1       8       1       1       8       1
       1       8       1       1       8       1       1       8       1       1
       8       1       1       8       1       1       8       1       1       8
       1       1       8       1       1       8       1       1       8       1
       1       8       1       1       8       1       1       8       1       1
       8       1       1       8       1       1       8       1       1       8
       1       1       8       1       1       8       1       1       8       1
       1       8       1       1       8       1       1       8       1       1
       8       1       1       8       1       1       8       1       1       8
       1       1       8       1       1       8       1       1       8       1
       1       8       1       1       8       1       1       8       1       1
       8       1       1       8       1       1       8       1       1       8
       1       1       8       1       1       8       1       1       8       1
       1       8       1       1       8       1       1       8       1       1
       8       1       1       8       1       1       8       1       1       8
       1       1       8       1       1       8       1       1       8       1
       1       8       1       1       8       1       1       8       1       1
       8       1       1       8       1       1       8       1       1       8
       1       1       8       1       1       8       1       1       8       1
       1       8       1       1       8       1       1       8       1       1
       8       1       1       8       1       1       8       1       1       8
       1       1       8       1       1       8       1       1       8       1
       1       8       1       1       8       1       1       8       1       1
       8       1       1       8       1       1       8       1       1       8
       1       1       8       1       1       8       1       1       8       1
       1       8       1       1       8       1       1       8       1       1
       8       1       1       8       1       1       8       1       1       8
       1       1       8       1       1       8       1       1       8       1
       1       8       1       1       8       1       1       8       1       1
       8       1       1       8       1       1       8       1       1       8
       1       1       8       1       1       8       1       1       8       1
       1       8       1       1       8       1       1       8       1       1
       8       1       1       8       1       1       8       1       1       8
       1       1       8       1       1       8       1       1       8       1
       1       8       1       1       8       1       1       8       1       1
       8       1       1       8       1       1       8       1       1       8
       1       1       8       1       1       8       1       1       8       1
       1       8       1       1       8       1       1       8       1       1
       8       1       1       8       1       1       8       1       1       8
       1       1       8       1       1       8       1       1       8       1
       1       8       1       1       8       1       1       8       1       1
       8       1       1       8       1       1       8       1       1       8
       1       1       8       1       1       8       1       1       8       1
       1       8       1       1       8       1       1       8       1       1
       8       1       1       8       1       1       8       1       1       8
       1       1       8       1       1       8       1       1       8       1
       1       8       1       1       8       1       1       8       1       1
       8       1       1       8       1       1       8       1       1       8
       1       1       8       1       1       8       1       1       8       1
       1       8       1       1       8       1       1       8       1       1
       8       1       1       8       1       1       8       1       1       8
       1       1       8       1       1       8       1       1       8       1
       1       8       1       1       8       1       1       8       1       1
       8       1       1       8       1       1       8       1       1       8
       1       1       8       1       1       8       1       1       8       1
       1       8       1       1       8       1       1       8       1       1
       8       1       1       8       1       1       8       1       1       8
       1       1       8       1       1       8       1       1       8       1
       1       8       1       1       8       1       1       8       1       1
       8       1       1       8       1       1       8       1       1       8
       1       1       8       1       1       8       1       1       8       1
       1       8       1       1       8       1       1       8       1       1
       8       1       1       8       1       1       8       1       1       8
       1       1       8       1       1       8       1       1       8       1
       1       8       1       1       8       1       1       8       1       1
       8       1       1       8       1       1       8       1       1       8
       1       1       8       1       1       8       1       1       8       1
       1       8       1       1       8       1       1       8       1       1
       8       1       1       8       1       1       8       1       1       8
       1       1       8       1       1       8       1       1       8       1
       1       8       1       1       8       1       1       8       1       1
       8       1       1       8       1       1       8       1       1       8
       1       1       8       1       1       8       1       1       8       1
       1       8       1       1       8       1       1       8       1       1
       8       1       1       8       1       1       8       1       1       8
       1       1       8       1       1       8       1       1       8       1
       1       8       1       1       8       1       1       8       1       1
       8       1       1       8       1       1       8       1       1       8
       1       1       8       1       1       8       1       1       8       1
       1       8       1       1       8       1       1       8       1       1
       8       1       1       8       1       1       8       1       1       8
       1       1       8       1       1       8       1       1       8       1
       1       8       1       1       8       1       1       8       1       1
       8       1       1       8       1       1       8       1       1       8
       1       1       8       1       1       8       1       1       8       1
       1       8       1       1       8       1       1       8       1       1
       8       1       1       8       1       1       8       1       1       8
       1       1       8       1       1       8       1       1       8       1
       1       8       1       1       8       1       1       8       1       1
       8       1       1       8       1       1       8       1       1       8
       1       1       8       1       1       8       1       1       8       1
       1       8       1       1       8       1       1       8       1       1
       8       1       1       8       1       1       8       1       1       8
       1       1       8       1       1       8       1       1       8       1
       1       8       1       1       8       1       1       8       1       1
       8       1       1       8       1       1       8       1       1       8
       1       1       8       1       1       8       1       1       8       1
       1       8       1       1       8       1       1       8       1       1
       8       1       1       8       1       1       8       1       1       8
       1       1       8       1       1       8       1       1       8       1
       1       8       1       1       8       1       1       8       1       1
       8       1       1       8       1       1       8       1       1       8
       1       1       8       1       1       8       1       1       8       1
       1       8       1       1       8       1       1       8       1       1
       8       1       1       8       1       1       8       1       1       8
       1       1       8       1       1       8       1       1       8       1
       1       8       1       1       8       1       1       8       1       1
       8       1       1       8       1       1       8       1       1       8
       1       1       8       1       1       8       1       1       8       1
       1       8       1       1       8       1       1       8       1       1
       8       1       1       8       1       1       8       1       1       8
       1       1       8       1       1       8       1       1       8       1
       1       8       1       1       8       1       1       8       1       1
       8       1       1       8       1       1       8       1       1       8
       1       1       8       1       1       8       1       1       8       1
       1       8       1       1       8       1       1       8       1       1
       8       1       1       8       1       1       8       1       1       8
       1       1       8       1       1       8       1       1       8       1
       1       8       1       1       8       1       1       8       1       1
       8       1       1       8       1       1       8       1       1       8
       1       1       8       1       1       8       1       1       8       1
       1       8       1       1       8       1       1       8       1       1
       8       1       1       8       1       1       8       1       1       8
       1       1       8       1       1       8       1       1       8       1
       1       8       1       1       8       1       1       8       1       1
       8       1       1       8       1       1       8       1       1       8
       1       1       8       1       1       8       1       1       8       1
       1       8       1       1       8       1       1       8       1       1
       8       1       1       8       1       1       8       1       1       8
       1       1       8       1       1       8       1       1       8       1
       1       8       1       1       8       1       1       8       1       1
       8       1       1       8       1       1       8       1       1       8
       1       1       8       1       1       8       1       1       8       1
       1       8       1       1       8       1       1       8       1       1
       8       1       1       8       1       1       8       1       1       8
       1       1       8       1       1       8       1       1       8       1
       1       8       1       1       8       1       1       8       1       1
       8       1       1       8       1       1       8       1       1       8
       1       1       8       1       1       8       1       1       8       1
       1       8       1       1       8       1       1       8       1       1
       8       1       1       8       1       1       8       1       1       8
       1       1       8       1       1       8       1       1       8       1
       1       8       1       1       8       1       1       8       1       1
       8       1       1       8       1       1       8       1       1       8
       1       1       8       1       1       8       1       1       8       1
       1       8       1       1       8       1       1       8       1       1
       8       1       1       8       1       1       8       1       1       8
       1       1       8       1       1       8       1       1       8       1
       1       8       1       1       8       1       1       8       1       1
       8       1       1       8       1       1       8       1       1       8
       1       1       8       1       1       8       1       1       8       1
       1       8       1       1       8       1       1       8       1       1
       8       1       1       8       1       1       8       1       1       8
       1       1       8       1       1       8       1       1       8       1
       1       8       1       1       8       1       1       8       1       1
       8       1       1       8       1       1       8       1       1       8
       1       1       8       1       1       8       1       1       8       1
       1       8       1       1       8       1       1       8       1       1
       8       1       1       8       1       1       8       1       1       8
       1       1       8       1       1       8       1       1       8       1
       1       8       1       1       8       1       1       8       1       1
       8       1       1       8       1       1       8       1       1       8
       1       1       8       1       1       8       1       1       8       1
       1       8       1       1       8       1       1       8       1       1
       8       1       1       8       1       1       8       1       1       8
       1       1       8       1       1       8       1       1       8       1
       1       8       1       1       8       1       1       8       1       1
       8       1       1       8       1       1       8       1       1       8
       1       1       8       1       1       8       1       1       8       1
       1       8       1       1       8       1       1       8       1       1
       8       1       1       8       1       1       8       1       1       8
       1       1       8       1       1       8       1       1       8       1
       1       8       1       1       8       1       1       8       1       1
       8       1       1       8       1       1       8       1       1       8
       1       1       8       1       1       8       1       1       8       1
       1       8       1       1       8       1       1       8       1       1
       8       1       1       8       1       1       8       1       1       8
       1       1       8       1       1       8       1       1       8       1
       1       8       1       1       8       1       1       8       1       1
       8       1       1       8       1       1       8       1       1       8
       1       1       8       1       1       8       1       1       8       1
       1       8       1       1       8       1       1       8       1       1
       8       1       1       8       1       1       8       1       1       8
       1       1       8       1       1       8       1       1       8       1
       1       8       1       1       8       1       1       8       1       1
       8       1       1       8       1       1       8       1       1       8
       1       1       8       1       1       8       1       1       8       1
       1       8       1       1       8       1       1       8       1       1
       8       1       1       8       1       1       8       1       1       8
       1       1       8       1       1       8       1       1       8       1
       1       8       1       1       8       1       1       8       1       1
       8       1       1       8       1       1       8       1       1       8
       1       1       8       1       1       8       1       1       8       1
       1       8       1       1       8       1       1       8       1       1
       8       1       1       8       1       1       8       1       1       8
       1       1       8       1       1       8       1       1       8       1
       1       8       1       1       8       1       1       8       1       1
       8       1       1       8       1       1       8       1       1       8
       1       1       8       1       1       8       1       1       8       1
       1       8       1       1       8       1       1       8       1       1
       8       1       1       8       1       1       8       1       1       8
       1       1       8       1       1       8       1       1       8       1
       1       8       1       1       8       1       1       8       1       1
       8       1       1       8       1       1       8       1       1       8
       1       1       8       1       1       8       1       1       8       1
       1       8       1       1       8       1       1       8       1       1
       8       1       1       8       1       1       8       1       1       8
       1       1       8       1       1       8       1       1       8       1
       1       8       1       1       8       1       1       8       1       1
       8       1       1       8       1       1       8       1       1       8
       1       1       8       1       1       8       1       1       8       1
       1       8       1       1       8       1       1       8       1       1
       8       1       1       8       1       1       8       1       1       8
       1       1       8       1       1       8       1       1       8       1
       1       8       1       1       8       1       1       8       1       1
       8       1       1       8       1       1       8       1       1       8
       1       1       8       1       1       8       1       1       8       1
       1       8       1       1       8       1       1       8       1       1
       8       1       1       8       1       1       8       1       1       8
       1       1       8       1       1       8       1       1       8       1
       1       8       1       1       8       1       1       8       1       1
       8       1       1       8       1       1       8       1       1       8
       1       1       8       1       1       8       1       1       8       1
       1       8       1       1       8       1       1       8       1       1
       8       1       1       8       1       1       8       1       1       8
       1       1       8       1       1       8       1       1       8       1
       1       8       1       1       8       1       1       8       1       1
       8       1       1       8       1       1       8       1       1       8
       1       1       8       1       1       8       1       1       8       1
       1       8       1       1       8       1       1       8       1       1
       8       1       1       8       1       1       8       1       1       8
       1       1       8       1       1       8       1       1       8       1
       1       8       1       1       8       1       1       8       1       1
       8       1       1       8       1       1       8       1       1       8
       1       1       8       1       1       8       1       1       8       1
       1       8       1       1       8       1       1       8       1       1
       8       1       1       8       1       1       8       1       1       8
       1       1       8       1       1       8       1       1       8       1
       1       8       1       1       8       1       1       8       1       1
       8       1       1       8       1       1       8       1       1       8
       1       1       8       1       1       8       1       1       8       1
       1       8       1       1       8       1       1       8       1       1
       8       1       1       8       1       1       8       1       1       8
       1       1       8       1       1       8       1       1       8       1
       1       8       1       1       8       1       1       8       1       1
       8       1       1       8       1       1       8       1       1       8
       1       1       8       1       1       8       1       1       8       1
       1       8       1       1       8       1       1       8       1       1
       8       1       1       8       1       1       8       1       1       8
       1       1       8       1       1       8       1       1       8       1
       1       8       1       1       8       1       1       8       1       1
       8       1       1       8       1       1       8       1       1       8
       1       1       8       1       1       8       1       1       8       1
       1       8       1       1       8       1       1       8       1       1
       8       1       1       8       1       1       8       1       1       8
       1       1       8       1       1       8       1       1       8       1
       1       8       1       1       8       1       1       8       1       1
       8       1       1       8       1       1       8       1       1       8
       1       1       8       1       1       8       1       1       8       1
       1       8       1       1       8       1       1       8       1       1
       8       1       1       8       1       1       8       1       1       8
       1       1       8       1       1       8       1       1       8       1
       1       8       1       1       8       1       1       8       1       1
       8       1       1       8       1       1       8       1       1       8
       1       1       8       1       1       8       1       1       8       1
       1       8       1       1       8       1       1       8       1       1
       8       1       1       8       1       1       8       1       1       8
       1       1       8       1       1       8       1       1       8       1
       1       8       1       1       8       1       1       8       1       1
       8       1       1       8       1       1       8       1       1       8
       1       1       8       1       1       8       1       1       8       1
       1       8       1       1       8       1       1       8       1       1
       8       1       1       8       1       1       8       1       1       8
       1       1       8       1       1       8       1       1       8       1
       1       8       1       1       8       1       1       8       1       1
       8       1       1       8       1       1       8       1       1       8
       1       1       8       1       1       8       1       1       8       1
       1       8       1       1       8       1       1       8       1       1
       8       1       1       8       1       1       8       1       1       8
       1       1       8       1       1       8       1       1       8       1
       1       8       1       1       8       1       1       8       1       1
       8       1       1       8       1       1       8       1       1       8
       1       1       8       1       1       8       1       1       8       1
       1       8       1       1       8       1       1       8       1       1
       8       1       1       8       1       1       8       1       1       8
       1       1       8       1       1       8       1       1       8       1
       1       8       1       1       8       1       1       8       1       1
       8       1       1       8       1       1       8       1       1       8
       1       1       8       1       1       8       1       1       8       1
       1       8       1       1       8       1       1       8       1       1
       8       1       1       8       1       1       8       1       1       8
       1       1       8       1       1       8       1       1       8       1
       1       8       1       1       8       1       1       8       1       1
       8       1       1       8       1       1       8       1       1       8
       1       1       8       1       1       8       1       1       8       1
       1       8       1       1       8       1       1       8       1       1
       8       1       1       8       1       1       8       1       1       8
       1       1       8       1       1       8       1       1       8       1
       1       8       1       1       8       1       1       8       1       1
       8       1       1       8       1       1       8       1       1       8
       1       1       8       1       1       8       1       1       8       1
       1       8       1       1       8       1       1       8       1       1
       8       1       1       8       1       1       8       1       1       8
       1       1       8       1       1       8       1       1       8       1
       1       8       1       1       8       1       1       8       1       1
       8       1       1       8       1       1       8       1       1       8
       1       1       8       1       1       8       1       1       8       1
       1       8       1       1       8       1       1       8       1       1
       8       1       1       8       1       1       8       1       1       8
       1       1       8       1       1       8       1       1       8       1
       1       8       1       1       8       1       1       8       1       1
       8       1       1       8       1       1       8       1       1       8
       1       1       8       1       1       8       1       1       8       1
       1       8       1       1       8       1       1       8       1       1
       8       1       1       8       1       1       8       1       1       8
       1       1       8       1       1       8       1       1       8       1
       1       8       1       1       8       1       1       8       1       1
       8       1       1       8       1       1       8       1       1       8
       1       1       8       1       1       8       1       1       8       1
       1       8       1       1       8       1       1       8       1       1
       8       1       1       8       1       1       8       1       1       8
       1       1       8       1       1       8       1       1       8       1
       1       8       1       1       8       1       1       8       1       1
       8       1       1       8       1       1       8       1       1       8
       1       1       8       1       1       8       1       1       8       1
       1       8       1       1       8       1       1       8       1       1
       8       1       1       8       1       1       8       1       1       8
       1       1       8       1       1       8       1       1       8       1
       1       8       1       1       8       1       1       8       1       1
       8       1       1       8       1       1       8       1       1       8
       1       1       8       1       1       8       1       1       8       1
       1       8       1       1       8       1       1       8       1       1
       8       1       1       8       1       1       8       1       1       8
       1       1       8       1       1       8       1       1       8       1
       1       8       1       1       8       1       1       8       1       1
       8       1       1       8       1       1       8       1       1       8
       1       1       8       1       1       8       1       1       8       1
       1       8       1       1       8       1       1       8       1       1
       8       1       1       8       1       1       8       1       1       8
       1       1       8       1       1       8       1       1       8       1
       1       8       1       1       8       1       1       8       1       1
       8       1       1       8       1       1       8       1       1       8
       1       1       8       1       1       8       1       1       8       1
       1       8       1       1       8       1       1       8       1       1
       8       1       1       8       1       1       8       1       1       8
       1       1       8       1       1       8       1       1       8       1
       1       8       1       1       8       1       1       8       1       1
       8       1       1       8       1       1       8       1       1       8
       1       1       8       1       1       8       1       1       8       1
       1       8       1       1       8       1       1       8       1       1
       8       1       1       8       1       1       8       1       1       8
       1       1       8       1       1       8       1       1       8       1
       1       8       1       1       8       1       1       8       1       1
       8       1       1       8       1       1       8       1       1       8
       1       1       8       1       1       8       1       1       8       1
       1       8       1       1       8       1       1       8       1       1
       8       1       1       8       1       1       8       1       1       8
       1       1       8       1       1       8       1       1       8       1
       1       8       1       1       8       1       1       8       1       1
       8       1       1       8       1       1       8       1       1       8
       1       1       8       1       1       8       1       1       8       1
       1       8       1       1       8       1       1       8       1       1
       8       1       1       8       1       1       8       1       1       8
       1       1       8       1       1       8       1       1       8       1
       1       8       1       1       8       1       1       8       1       1
       8       1       1       8       1       1       8       1       1       8
       1       1       8       1       1       8       1       1       8       1
       1       8       1       1       8       1       1       8       1       1
       8       1       1       8       1       1       8       1       1       8
       1       1       8       1       1       8       1       1       8       1
       1       8       1       1       8       1       1       8       1       1
       8       1       1       8       1       1       8       1       1       8
       1       1       8       1       1       8       1       1       8       1
       1       8       1       1       8       1       1       8       1       1
       8       1       1       8       1       1       8       1       1       8
       1       1       8       1       1       8       1       1       8       1
       1       8       1       1       8       1       1       8       1       1
       8       1       1       8       1       1       8       1       1       8
       1       1       8       1       1       8       1       1       8       1
       1       8       1       1       8       1       1       8       1       1
       8       1       1       8       1       1       8       1       1       8
       1       1       8       1       1       8       1       1       8       1
       1       8       1       1       8       1       1       8       1       1
       8       1       1       8       1       1       8       1       1       8
       1       1       8       1       1       8       1       1       8       1
       1       8       1       1       8       1       1       8       1       1
       8       1       1       8       1       1       8       1       1       8
       1       1       8       1       1       8       1       1       8       1
       1       8       1       1       8       1       1       8       1       1
       8       1       1       8       1       1       8       1       1       8
       1       1       8       1       1       8       1       1       8       1
       1       8       1       1       8       1       1       8       1       1
       8       1       1       8       1       1       8       1       1       8
       1       1       8       1       1       8       1       1       8       1
       1       8       1       1       8       1       1       8       1       1
       8       1       1       8       1       1       8       1       1       8
       1       1       8       1       1       8       1       1       8       1
       1       8       1       1       8       1       1       8       1       1
       8       1       1       8       1       1       8       1       1       8
       1       1       8       1       1       8       1       1       8       1
       1       8       1       1       8       1       1       8       1       1
       8       1       1       8       1       1       8       1       1       8
       1       1       8       1       1       8       1       1       8       1
       1       8       1       1       8       1       1       8       1       1
       8       1       1       8       1       1       8       1       1       8
       1       1       8       1       1       8       1       1       8       1
       1       8       1       1       8       1       1       8       1       1
       8       1       1       8       1       1       8       1       1       8
       1       1       8       1       1       8       1       1       8       1
       1       8       1       1       8       1       1       8       1       1
       8       1       1       8       1       1       8       1       1       8
       1       1       8       1       1       8       1       1       8       1
       1       8       1       1       8       1       1       8       1       1
       8       1       1       8       1       1       8       1       1       8
       1       1       8       1       1       8       1       1       8       1
       1       8       1       1       8       1       1       8       1       1
       8       1       1       8       1       1       8       1       1       8
       1       1       8       1       1       8       1       1       8       1
       1       8       1       1       8       1       1       8       1       1
       8       1       1       8       1       1       8       1       1       8
       1       1       8       1       1       8       1       1       8       1
       1       8       1       1       8       1       1       8       1       1
       8       1       1       8       1       1       8       1       1       8
       1       1       8       1       1       8       1       1       8       1
       1       8       1       1       8       1       1       8       1       1
       8       1       1       8       1       1       8       1       1       8
       1       1       8       1       1       8       1       1       8       1
       1       8       1       1       8       1       1       8       1       1
       8       1       1       8       1       1       8       1       1       8
       1       1       8       1       1       8       1       1       8       1
       1       8       1       1       8       1       1       8       1       1
       8       1       1       8       1       1       8       1       1       8
       1       1       8       1       1       8       1       1       8       1
       1       8       1       1       8       1       1       8       1       1
       8       1       1       8       1       1       8       1       1       8
       1       1       8       1       1       8       1       1       8       1
       1       8       1       1       8       1       1       8       1       1
       8       1       1       8       1       1       8       1       1       8
       1       1       8       1       1       8       1       1       8       1
       1       8       1       1       8       1       1       8       1       1
       8       1       1       8       1       1       8       1       1       8
       1       1       8       1       1       8       1       1       8       1
       1       8       1       1       8       1       1       8       1       1
       8       1       1       8       1       1       8       1       1       8
       1       1       8       1       1       8       1       1       8       1
       1       8       1       1       8       1       1       8       1       1
       8       1       1       8       1       1       8       1       1       8
       1       1       8       1       1       8       1       1       8       1
       1       8       1       1       8       1       1       8       1       1
       8       1       1       8       1       1       8       1       1       8
       1       1       8       1       1       8       1       1       8       1
       1       8       1       1       8       1       1       8       1       1
       8       1       1       8       1       1       8       1       1       8
       1       1       8       1       1       8       1       1       8       1
       1       8       1       1       8       1       1       8       1       1
       8       1       1       8       1       1       8       1       1       8
       1       1       8       1       1       8       1       1       8       1
       1       8       1       1       8       1       1       8       1       1
       8       1       1       8       1       1       8       1       1       8
       1       1       8       1       1       8       1       1       8       1
       1       8       1       1       8       1       1       8       1       1
       8       1       1       8       1       1       8       1       1       8
       1       1       8       1       1       8       1       1       8       1
       1       8       1       1       8       1       1       8       1       1
       8       1       1       8       1       1       8       1       1       8
       1       1       8       1       1       8       1       1       8       1
       1       8       1       1       8       1       1       8       1       1
       8       1       1       8       1       1       8       1       1       8
       1       1       8       1       1       8       1       1       8       1
       1       8       1       1       8       1       1       8       1       1
       8       1       1       8       1       1       8       1       1       8
       1       1       8       1       1       8       1       1       8       1
       1       8       1       1       8       1       1       8       1       1
       8       1       1       8       1       1       8       1       1       8
       1       1       8       1       1       8       1       1       8       1
       1       8       1       1       8       1       1       8       1       1
       8       1       1       8       1       1       8       1       1       8
       1       1       8       1       1       8       1       1       8       1
       1       8       1       1       8       1       1       8       1       1
       8       1       1       8       1       1       8       1       1       8
       1       1       8       1       1       8       1       1       8       1
       1       8       1       1       8       1       1       8       1       1
       8       1       1       8       1       1       8       1       1       8
       1       1       8       1       1       8       1       1       8       1
       1       8       1       1       8       1       1       8       1       1
       8       1       1       8       1       1       8       1       1       8
       1       1       8       1       1       8       1       1       8       1
       1       8       1       1       8       1       1       8       1       1
       8       1       1       8       1       1       8       1       1       8
       1       1       8       1       1       8       1       1       8       1
       1       8       1       1       8       1       1       8       1       1
       8       1       1       8       1       1       8       1       1       8
       1       1       8       1       1       8       1       1       8       1
       1       8       1       1       8       1       1       8       1       1
       8       1       1       8       1       1       8       1       1       8
       1       1       8       1       1       8       1       1       8       1
       1       8       1       1       8       1       1       8       1       1
       8       1       1       8       1       1       8       1       1       8
       1       1       8       1       1       8       1       1       8       1
       1       8       1       1       8       1       1       8       1       1
       8       1       1       8       1       1       8       1       1       8
       1       1       8       1       1       8       1       1       8       1
       1       8       1       1       8       1       1       8       1       1
       8       1       1       8       1       1       8       1       1       8
       1       1       8       1       1       8       1       1       8       1
       1       8       1       1       8       1       1       8       1       1
       8       1       1       8       1       1       8       1       1       8
       1       1       8       1       1       8       1       1       8       1
       1       8       1       1       8       1       1       8       1       1
       8       1       1       8       1       1       8       1       1       8
       1       1       8       1       1       8       1       1       8       1
       1       8       1       1       8       1       1       8       1       1
       8       1       1       8       1       1       8       1       1       8
       1       1       8       1       1       8       1       1       8       1
       1       8       1       1       8       1       1       8       1       1
       8       1       1       8       1       1       8       1       1       8
       1       1       8       1       1       8       1       1       8       1
       1       8       1       1       8       1       1       8       1       1
       8       1       1       8       1       1       8       1       1       8
       1       1       8       1       1       8       1       1       8       1
       1       8       1       1       8       1       1       8       1       1
       8       1       1       8       1       1       8       1       1       8
       1       1       8       1       1       8       1       1       8       1
       1       8       1       1       8       1       1       8       1       1
       8       1       1       8       1       1       8       1       1       8
       1       1       8       1       1       8       1       1       8       1
       1       8       1       1       8       1       1       8       1       1
       8       1       1       8       1       1       8       1       1       8
       1       1       8       1       1       8       1       1       8       1
       1       8       1       1       8       1       1       8       1       1
       8       1       1       8       1       1       8       1       1       8
       1       1       8       1       1       8       1       1       8       1
       1       8       1       1       8       1       1       8       1       1
       8       1       1       8       1       1       8       1       1       8
       1       1       8       1       1       8       1       1       8       1
       1       8       1       1       8       1       1       8       1       1
       8       1       1       8       1       1       8       1       1       8
       1       1       8       1       1       8       1       1       8       1
       1       8       1       1       8       1       1       8       1       1
       8       1       1       8       1       1       8       1       1       8
       1       1       8       1       1       8       1       1       8       1
       1       8       1       1       8       1       1       8       1       1
       8       1       1       8       1       1       8       1       1       8
       1       1       8       1       1       8       1       1       8       1
       1       8       1       1       8       1       1       8       1       1
       8       1       1       8       1       1       8       1       1       8
       1       1       8       1       1       8       1       1       8       1
       1       8       1       1       8       1       1       8       1       1
       8       1       1       8       1       1       8       1       1       8
       1       1       8       1       1       8       1       1       8       1
       1       8       1       1       8       1       1       8       1       1
       8       1       1       8       1       1       8       1       1       8
       1       1       8       1       1       8       1       1       8       1
       1       8       1       1       8       1       1       8       1       1
       8       1       1       8       1       1       8       1       1       8
       1       1       8       1       1       8       1       1       8       1
       1       8       1       1       8       1       1       8       1       1
       8       1       1       8       1       1       8       1       1       8
       1       1       8       1       1       8       1       1       8       1
       1       8       1       1       8       1       1       8       1       1
       8       1       1       8       1       1       8       1       1       8
       1       1       8       1       1       8       1       1       8       1
       1       8       1       1       8       1       1       8       1       1
       8       1       1       8       1       1       8       1       1       8
       1       1       8       1       1       8       1       1       8       1
       1       8       1       1       8       1       1       8       1       1
       8       1       1       8       1       1       8       1       1       8
       1       1       8       1       1       8       1       1       8       1
       1       8       1       1       8       1       1       8       1       1
       8       1       1       8       1       1       8       1       1       8
       1       1       8       1       1       8       1       1       8       1
       1       8       1       1       8       1       1       8       1       1
       8       1       1       8       1       1       8       1       1       8
       1       1       8       1       1       8       1       1       8       1
       1       8       1       1       8       1       1       8       1       1
       8       1       1       8       1       1       8       1       1       8
       1       1       8       1       1       8       1       1       8       1
       1       8       1       1       8       1       1       8       1       1
       8       1       1       8       1       1       8       1       1       8
       1       1       8       1       1       8       1       1       8       1
       1       8       1       1       8       1       1       8       1       1
       8       1       1       8       1       1       8       1       1       8
       1       1       8       1       1       8       1       1       8       1
       1       8       1       1       8       1       1       8       1       1
       8       1       1       8       1       1       8       1       1       8
       1       1       8       1       1       8       1       1       8       1
       1       8       1       1       8       1       1       8       1       1
       8       1       1       8       1       1       8       1       1       8
       1       1       8       1       1       8       1       1       8       1
       1       8       1       1       8       1       1       8       1       1
       8       1       1       8       1       1       8       1       1       8
       1       1       8       1       1       8       1       1       8       1
       1       8       1       1       8       1       1       8       1       1
       8       1       1       8       1       1       8       1       1       8
       1       1       8       1       1       8       1       1       8       1
       1       8       1       1       8       1       1       8       1       1
       8       1       1       8       1       1       8       1       1       8
       1       1       8       1       1       8       1       1       8       1
       1       8       1       1       8       1       1       8       1       1
       8       1       1       8       1       1       8       1       1       8
       1       1       8       1       1       8       1       1       8       1
       1       8       1       1       8       1       1       8       1       1
       8       1       1       8       1       1       8       1       1       8
       1       1       8       1       1       8       1       1       8       1
       1       8       1       1       8       1       1       8       1       1
       8       1       1       8       1       1       8       1       1       8
       1       1       8       1       1       8       1       1       8       1
       1       8       1       1       8       1       1       8       1       1
       8       1       1       8       1       1       8       1       1       8
       1       1       8       1       1       8       1       1       8       1
       1       8       1       1       8       1       1       8       1       1
       8       1       1       8       1       1       8       1       1       8
       1       1       8       1       1       8       1       1       8       1
       1       8       1       1       8       1       1       8       1       1
       8       1       1       8       1       1       8       1       1       8
       1       1       8       1       1       8       1       1       8       1
       1       8       1       1       8       1       1       8       1       1
       8       1       1       8       1       1       8       1       1       8
       1       1       8       1       1       8       1       1       8       1
       1       8       1       1       8       1       1       8       1       1
       8       1       1       8       1       1       8       1       1       8
       1       1       8       1       1       8       1       1       8       1
       1       8       1       1       8       1       1       8       1       1
       8       1       1       8       1       1       8       1       1       8
       1       1       8       1       1       8       1       1       8       1
       1       8       1       1       8       1       1       8       1       1
       8       1       1       8       1       1       8       1       1       8
       1       1       8       1       1       8       1       1       8       1
       1       8       1       1       8       1       1       8       1       1
       8       1       1       8       1       1       8       1       1       8
       1       1       8       1       1       8       1       1       8       1
       1       8       1       1       8       1       1       8       1       1
       8       1       1       8       1       1       8       1       1       8
       1       1       8       1       1       8       1       1       8       1
       1       8       1       1       8       1       1       8       1       1
       8       1       1       8       1       1       8       1       1       8
       1       1       8       1       1       8       1       1       8       1
       1       8       1       1       8       1       1       8       1       1
       8       1       1       8       1       1       8       1       1       8
       1       1       8       1       1       8       1       1       8       1
       1       8       1       1       8       1       1       8       1       1
       8       1       1       8       1       1       8       1       1       8
       1       1       8       1       1       8       1       1       8       1
       1       8       1       1       8       1       1       8       1       1
       8       1       1       8       1       1       8       1       1       8
       1       1       8       1       1       8       1       1       8       1
       1       8       1       1       8       1       1       8       1       1
       8       1       1       8       1       1       8       1       1       8
       1       1       8       1       1       8       1       1       8       1
       1       8       1       1       8       1       1       8       1       1
       8       1       1       8       1       1       8       1       1       8
       1       1       8       1       1       8       1       1       8       1
       1       8       1       1       8       1       1       8       1       1
       8       1       1       8       1       1       8       1       1       8
       1       1       8       1       1       8       1       1       8       1
       1       8       1       1       8       1       1       8       1       1
       8       1       1       8       1       1       8       1       1       8
       1       1       8       1       1       8       1       1       8       1
       1       8       1       1       8       1       1       8       1       1
       8       1       1       8       1       1       8       1       1       8
       1       1       8       1       1       8       1       1       8       1
       1       8       1       1       8       1       1       8       1       1
       8       1       1       8       1       1       8       1       1       8
       1       1       8       1       1       8       1       1       8       1
       1       8       1       1       8       1       1       8       1       1
       8       1       1       8       1       1       8       1       1       8
       1       1       8       1       1       8       1       1       8       1
       1       8       1       1       8       1       1       8       1       1
       8       1       1       8       1       1       8       1       1       8
       1       1       8       1       1       8       1       1       8       1
       1       8       1       1       8       1       1       8       1       1
       8       1       1       8       1       1       8       1       1       8
       1       1       8       1       1       8       1       1       8       1
       1       8       1       1       8       1       1       8       1       1
       8       1       1       8       1       1       8       1       1       8
       1       1       8       1       1       8       1       1       8       1
       1       8       1       1       8       1       1       8       1       1
       8       1       1       8       1       1       8       1       1       8
       1       1       8       1       1       8       1       1       8       1
       1       8       1       1       8       1       1       8       1       1
       8       1       1       8       1       1       8       1       1       8
       1       1       8       1       1       8       1       1       8       1
       1       8       1       1       8       1       1       8       1       1
       8       1       1       8       1       1       8       1       1       8
       1       1       8       1       1       8       1       1       8       1
       1       8       1       1       8       1       1       8       1       1
       8       1       1       8       1       1       8       1       1       8
       1       1       8       1       1       8       1       1       8       1
       1       8       1       1       8       1       1       8       1       1
       8       1       1       8       1       1       8       1       1       8
       1       1       8       1       1       8       1       1       8       1
       1       8       1       1       8       1       1       8       1       1
       8       1       1       8       1       1       8       1       1       8
       1       1       8       1       1       8       1       1       8       1
       1       8       1       1       8       1       1       8       1       1
       8       1       1       8       1       1       8       1       1       8
       1       1       8       1       1       8       1       1       8       1
       1       8       1       1       8       1       1       8       1       1
       8       1       1       8       1       1       8       1       1       8
       1       1       8       1       1       8       1       1       8       1
       1       8       1       1       8       1       1       8       1       1
       8       1       1       8       1       1       8       1       1       8
       1       1       8       1       1       8       1       1       8       1
       1       8       1       1       8       1       1       8       1       1
       8       1       1       8       1       1       8       1       1       8
       1       1       8       1       1       8       1       1       8       1
       1       8       1       1       8       1       1       8       1       1
       8       1       1       8       1       1       8       1       1       8
       1       1       8       1       1       8       1       1       8       1
       1       8       1       1       8       1       1       8       1       1
       8       1       1       8       1       1       8       1       1       8
       1       1       8       1       1       8       1       1       8       1
       1       8       1       1       8       1       1       8       1       1
       8       1       1       8       1       1       8       1       1       8
       1       1       8       1       1       8       1       1       8       1
       1       8       1       1       8       1       1       8       1       1
       8       1       1       8       1       1       8       1       1       8
       1       1       8       1       1       8       1       1       8       1
       1       8       1       1       8       1       1       8       1       1
       8       1       1       8       1       1       8       1       1       8
       1       1       8       1       1       8       1       1       8       1
       1       8       1       1       8       1       1       8       1       1
       8       1       1       8       1       1       8       1       1       8
       1       1       8       1       1       8       1       1       8       1
       1       8       1       1       8       1       1       8       1       1
       8       1       1       8       1       1       8       1       1       8
       1       1       8       1       1       8       1       1       8       1
       1       8       1       1       8       1       1       8       1       1
       8       1       1       8       1       1       8       1       1       8
       1       1       8       1       1       8       1       1       8       1
       1       8       1       1       8       1       1       8       1       1
       8       1       1       8       1       1       8       1       1       8
       1       1       8       1       1       8       1       1       8       1
       1       8       1       1       8       1       1       8       1       1
       8       1       1       8       1       1       8       1       1       8
       1       1       8       1       1       8       1       1       8       1
       1       8       1       1       8       1       1       8       1       1
       8       1       1       8       1       1       8       1       1       8
       1       1       8       1       1       8       1       1       8       1
       1       8       1       1       8       1       1       8       1       1
       8       1       1       8       1       1       8       1       1       8
       1       1       8       1       1       8       1       1       8       1
       1       8       1       1       8       1       1       8       1       1
       8       1       1       8       1       1       8       1       1       8
       1       1       8       1       1       8       1       1       8       1
       1       8       1       1       8       1       1       8       1       1
       8       1       1       8       1       1       8       1       1       8
       1       1       8       1       1       8       1       1       8       1
       1       8       1       1       8       1       1       8       1       1
       8       1       1       8       1       1       8       1       1       8
       1       1       8       1       1       8       1       1       8       1
       1       8       1       1       8       1       1       8       1       1
       8       1       1       8       1       1       8       1       1       8
       1       1       8       1       1       8       1       1       8       1
       1       8       1       1       8       1       1       8       1       1
       8       1       1       8       1       1       8       1       1       8
       1       1       8       1       1       8       1       1       8       1
       1       8       1       1       8       1       1       8       1       1
       8       1       1       8       1       1       8       1       1       8
       1       1       8       1       1       8       1       1       8       1
       1       8       1       1       8       1       1       8       1       1
       8       1       1       8       1       1       8       1       1       8
       1       1       8       1       1       8       1       1       8       1
       1       8       1       1       8       1       1       8       1       1
       8       1       1       8       1       1       8       1       1       8
       1       1       8       1       1       8       1       1       8       1
       1       8       1       1       8       1       1       8       1       1
       8       1       1       8       1       1       8       1       1       8
       1       1       8       1       1       8       1       1       8       1
       1       8       1       1       8       1       1       8       1       1
       8       1       1       8       1       1       8       1       1       8
       1       1       8       1       1       8       1       1       8       1
       1       8       1       1       8       1       1       8       1       1
       8       1       1       8       1       1       8       1       1       8
       1       1       8       1       1       8       1       1       8       1
       1       8       1       1       8       1       1       8       1       1
       8       1       1       8       1       1       8       1       1       8
       1       1       8       1       1       8       1       1       8       1
       1       8       1       1       8       1       1       8       1       1
       8       1       1       8       1       1       8       1       1       8
       1       1       8       1       1       8       1       1       8       1
       1       8       1       1       8       1       1       8       1       1
       8       1       1       8       1       1       8       1       1       8
       1       1       8       1       1       8       1       1       8       1
       1       8       1       1       8       1       1       8       1       1
       8       1       1       8       1       1       8       1       1       8
       1       1       8       1       1       8       1       1       8       1
       1       8       1       1       8       1       1       8       1       1
       8       1       1       8       1       1       8       1       1       8
       1       1       8       1       1       8       1       1       8       1
       1       8       1       1       8       1       1       8       1       1
       8       1       1       8       1       1       8       1       1       8
       1       1       8       1       1       8       1       1       8       1
       1       8       1       1       8       1       1       8       1       1
       8       1       1       8       1       1       8       1       1       8
       1       1       8       1       1       8       1       1       8       1
       1       8       1       1       8       1       1       8       1       1
       8       1       1       8       1       1       8       1       1       8
       1       1       8       1       1       8       1       1       8       1
       1       8       1       1       8       1       1       8       1       1
       8       1       1       8       1       1       8       1       1       8
       1       1       8       1       1       8       1       1       8       1
       1       8       1       1       8       1       1       8       1       1
       8       1       1       8       1       1       8       1       1       8
       1       1       8       1       1       8       1       1       8       1
       1       8       1       1       8       1       1       8       1       1
       8       1       1       8       1       1       8       1       1       8
       1       1       8       1       1       8       1       1       8       1
       1       8       1       1       8       1       1       8       1       1
       8       1       1       8       1       1       8       1       1       8
       1       1       8       1       1       8       1       1       8       1
       1       8       1       1       8       1       1       8       1       1
       8       1       1       8       1       1       8       1       1       8
       1       1       8       1       1       8       1       1       8       1
       1       8       1       1       8       1       1       8       1       1
       8       1       1       8       1       1       8       1       1       8
       1       1       8       1       1       8       1       1       8       1
       1       8       1       1       8       1       1       8       1       1
       8       1       1       8       1       1       8       1       1       8
       1       1       8       1       1       8       1       1       8       1
       1       8       1       1       8       1       1       8       1       1
       8       1       1       8       1       1       8       1       1       8
       1       1       8       1       1       8       1       1       8       1
       1       8       1       1       8       1       1       8       1       1
       8       1       1       8       1       1       8       1       1       8
       1       1       8       1       1       8       1       1       8       1
       1       8       1       1       8       1       1       8       1       1
       8       1       1       8       1       1       8       1       1       8
       1       1       8       1       1       8       1       1       8       1
       1       8       1       1       8       1       1       8       1       1
       8       1       1       8       1       1       8       1       1       8
       1       1       8       1       1       8       1       1       8       1
       1       8       1       1       8       1       1       8       1       1
       8       1       1       8       1       1       8       1       1       8
       1       1       8       1       1       8       1       1       8       1
       1       8       1       1       8       1       1       8       1       1
       8       1       1       8       1       1       8       1       1       8
       1       1       8       1       1       8       1       1       8       1
       1       8       1       1       8       1       1       8       1       1
       8       1       1       8       1       1       8       1       1       8
       1       1       8       1       1       8       1       1       8       1
       1       8       1       1       8       1       1       8       1       1
       8       1       1       8       1       1       8       1       1       8
       1       1       8       1       1       8       1       1       8       1
       1       8       1       1       8       1       1       8       1       1
       8       1       1       8       1       1       8       1       1       8
       1       1       8       1       1       8       1       1       8       1
       1       8       1       1       8       1       1       8       1       1
       8       1       1       8       1       1       8       1       1       8
       1       1       8       1       1       8       1       1       8       1
       1       8       1       1       8       1       1       8       1       1
       8       1       1       8       1       1       8       1       1       8
       1       1       8       1       1       8       1       1       8       1
       1       8       1       1       8       1       1       8       1       1
       8       1       1       8       1       1       8       1       1       8
       1       1       8       1       1       8       1       1       8       1
       1       8       1       1       8       1       1       8       1       1
       8       1       1       8       1       1       8       1       1       8
       1       1       8       1       1       8       1       1       8       1
       1       8       1       1       8       1       1       8       1       1
       8       1       1       8       1       1       8       1       1       8
       1       1       8       1       1       8       1       1       8       1
       1       8       1       1       8       1       1       8       1       1
       8       1       1       8       1       1       8       1       1       8
       1       1       8       1       1       8       1       1       8       1
       1       8       1       1       8       1       1       8       1       1
       8       1       1       8       1       1       8       1       1       8
       1       1       8       1       1       8       1       1       8       1
       1       8       1       1       8       1       1       8       1       1
       8       1       1       8       1       1       8       1       1       8
       1       1       8       1       1       8       1       1       8       1
       1       8       1       1       8       1       1       8       1       1
       8       1       1       8       1       1       8       1       1       8
       1       1       8       1       1       8       1       1       8       1
       1       8       1       1       8       1       1       8       1       1
       8       1       1       8       1       1       8       1       1       8
       1       1       8       1       1       8       1       1       8       1
       1       8       1       1       8       1       1       8       1       1
       8       1       1       8       1       1       8       1       1       8
       1       1       8       1       1       8       1       1       8       1
       1       8       1       1       8       1       1       8       1       1
       8       1       1       8       1       1       8       1       1       8
       1       1       8       1       1       8       1       1       8       1
       1       8       1       1       8       1       1       8       1       1
       8       1       1       8       1       1       8       1       1       8
       1       1       8       1       1       8       1       1       8       1
       1       8       1       1       8       1       1       8       1       1
       8       1       1       8       1       1       8       1       1       8
       1       1       8       1       1       8       1       1       8       1
       1       8       1       1       8       1       1       8       1       1
       8       1       1       8       1       1       8       1       1       8
       1       1       8       1       1       8       1       1       8       1
       1       8       1       1       8       1       1       8       1       1
       8       1       1       8       1       1       8       1       1       8
       1       1       8       1       1       8       1       1       8       1
       1       8       1       1       8       1       1       8       1       1
       8       1       1       8       1       1       8       1       1       8
       1       1       8       1       1       8       1       1       8       1
       1       8       1       1       8       1       1       8       1       1
       8       1       1       8       1       1       8       1       1       8
       1       1       8       1       1       8       1       1       8       1
       1       8       1       1       8       1       1       8       1       1
       8       1       1       8       1       1       8       1       1       8
       1       1       8       1       1       8       1       1       8       1
       1       8       1       1       8       1       1       8       1       1
       8       1       1       8       1       1       8       1       1       8
       1       1       8       1       1       8       1       1       8       1
       1       8       1       1       8       1       1       8       1       1
       8       1       1       8       1       1       8       1       1       8
       1       1       8       1       1       8       1       1       8       1
       1       8       1       1       8       1       1       8       1       1
       8       1       1       8       1       1       8       1       1       8
       1       1       8       1       1       8       1       1       8       1
       1       8       1       1       8       1       1       8       1       1
       8       1       1       8       1       1       8       1       1       8
       1       1       8       1       1       8       1       1       8       1
       1       8       1       1       8       1       1       8       1       1
       8       1       1       8       1       1       8       1       1       8
       1       1       8       1       1       8       1       1       8       1
       1       8       1       1       8       1       1       8       1       1
       8       1       1       8       1       1       8       1       1       8
       1       1       8       1       1       8       1       1       8       1
       1       8       1       1       8       1       1       8       1       1
       8       1       1       8       1       1       8       1       1       8
       1       1       8       1       1       8       1       1       8       1
       1       8       1       1       8       1       1       8       1       1
       8       1       1       8       1       1       8       1       1       8
       1       1       8       1       1       8       1       1       8       1
       1       8       1       1       8       1       1       8       1       1
       8       1       1       8       1       1       8       1       1       8
       1       1       8       1       1       8       1       1       8       1
       1       8       1       1       8       1       1       8       1       1
       8       1       1       8       1       1       8       1       1       8
       1       1       8       1       1       8       1       1       8       1
       1       8       1       1       8       1       1       8       1       1
       8       1       1       8       1       1       8       1       1       8
       1       1       8       1       1       8       1       1       8       1
       1       8       1       1       8       1       1       8       1       1
       8       1       1       8       1       1       8       1       1       8
       1       1       8       1       1       8       1       1       8       1
       1       8       1       1       8       1       1       8       1       1
       8       1       1       8       1       1       8       1       1       8
       1       1       8       1       1       8       1       1       8       1
       1       8       1       1       8       1       1       8       1       1
       8       1       1       8       1       1       8       1       1       8
       1       1       8       1       1       8       1       1       8       1
       1       8       1       1       8       1       1       8       1       1
       8       1       1       8       1       1       8       1       1       8
       1       1       8       1       1       8       1       1       8       1
       1       8       1       1       8       1       1       8       1       1
       8       1       1       8       1       1       8       1       1       8
       1       1       8       1       1       8       1       1       8       1
       1       8       1       1       8       1       1       8       1       1
       8       1       1       8       1       1       8       1       1       8
       1       1       8       1       1       8       1       1       8       1
       1       8       1       1       8       1       1       8       1       1
       8       1       1       8       1       1       8       1       1       8
       1       1       8       1       1       8       1       1       8       1
       1       8       1       1       8       1       1       8       1       1
       8       1       1       8       1       1       8       1       1       8
       1       1       8       1       1       8       1       1       8       1
       1       8       1       1       8       1       1       8       1       1
       8       1       1       8       1       1       8       1       1       8
       1       1       8       1       1       8       1       1       8       1
       1       8       1       1       8       1       1       8       1       1
       8       1       1       8       1       1       8       1       1       8
       1       1       8       1       1       8       1       1       8       1
       1       8       1       1       8       1       1       8       1       1
       8       1       1       8       1       1       8       1       1       8
       1       1       8       1       1       8       1       1       8       1
       1       8       1       1       8       1       1       8       1       1
       8       1       1       8       1       1       8       1       1       8
       1       1       8       1       1       8       1       1       8       1
       1       8       1       1       8       1       1       8       1       1
       8       1       1       8       1       1       8       1       1       8
       1       1       8       1       1       8       1       1       8       1
       1       8       1       1       8       1       1       8       1       1
       8       1       1       8       1       1       8       1       1       8
       1       1       8       1       1       8       1       1       8       1
       1       8       1       1       8       1       1       8       1       1
       8       1       1       8       1       1       8       1       1       8
       1       1       8       1       1       8       1       1       8       1
       1       8       1       1       8       1       1       8       1       1
       8       1       1       8       1       1       8       1       1       8
       1       1       8       1       1       8       1       1       8       1
       1       8       1       1       8       1       1       8       1       1
       8       1       1       8       1       1       8       1       1       8
       1       1       8       1       1       8       1       1       8       1
       1       8       1       1       8       1       1       8       1       1
       8       1       1       8       1       1       8       1       1       8
       1       1       8       1       1       8       1       1       8       1
       1       8       1       1       8       1       1       8       1       1
       8       1       1       8       1       1       8       1       1       8
       1       1       8       1       1       8       1       1       8       1
       1       8       1       1       8       1       1       8       1       1
       8       1       1       8       1       1       8       1       1       8
       1       1       8       1       1       8       1       1       8       1
       1       8       1       1       8       1       1       8       1       1
       8       1       1       8       1       1       8       1       1       8
       1       1       8       1       1       8       1       1       8       1
       1       8       1       1       8       1       1       8       1       1
       8       1       1       8       1       1       8       1       1       8
       1       1       8       1       1       8       1       1       8       1
       1       8       1       1       8       1       1       8       1       1
       8       1       1       8       1       1       8       1       1       8
       1       1       8       1       1       8       1       1       8       1
       1       8       1       1       8       1       1       8       1       1
       8       1       1       8       1       1       8       1       1       8
       1       1       8       1       1       8       1       1       8       1
       1       8       1       1       8       1       1       8       1       1
       8       1       1       8       1       1       8       1       1       8
       1       1       8       1       1       8       1       1       8       1
       1       8       1       1       8       1       1       8       1       1
       8       1       1       8       1       1       8       1       1       8
       1       1       8       1       1       8       1       1       8       1
       1       8       1       1       8       1       1       8       1       1
       8       1       1       8       1       1       8       1       1       8
       1       1       8       1       1       8       1       1       8       1
       1       8       1       1       8       1       1       8       1       1
       8       1       1       8       1       1       8       1       1       8
       1       1       8       1       1       8       1       1       8       1
       1       8       1       1       8       1       1       8       1       1
       8       1       1       8       1       1       8       1       1       8
       1       1       8       1       1       8       1       1       8       1
       1       8       1       1       8       1       1       8       1       1
       8       1       1       8       1       1       8       1       1       8
       1       1       8       1       1       8       1       1       8       1
       1       8       1       1       8       1       1       8       1       1
       8       1       1       8       1       1       8       1       1       8
       1       1       8       1       1       8       1       1       8       1
       1       8       1       1       8       1       1       8       1       1
       8       1       1       8       1       1       8       1       1       8
       1       1       8       1       1       8       1       1       8       1
       1       8       1       1       8       1       1       8       1       1
       8       1       1       8       1       1       8       1       1       8
       1       1       8       1       1       8       1       1       8       1
       1       8       1       1       8       1       1       8       1       1
       8       1       1       8       1       1       8       1       1       8
       1       1       8       1       1       8       1       1       8       1
       1       8       1       1       8       1       1       8       1       1
       8       1       1       8       1       1       8       1       1       8
       1       1       8       1       1       8       1       1       8       1
       1       8       1       1       8       1       1       8       1       1
       8       1       1       8       1       1       8       1       1       8
       1       1       8       1       1       8       1       1       8       1
       1       8       1       1       8       1       1       8       1       1
       8       1       1       8       1       1       8       1       1       8
       1       1       8       1       1       8       1       1       8       1
       1       8       1       1       8       1       1       8       1       1
       8       1       1       8       1       1       8       1       1       8
       1       1       8       1       1       8       1       1       8       1
       1       8       1       1       8       1       1       8       1       1
       8       1       1       8       1       1       8       1       1       8
       1       1       8       1       1       8       1       1       8       1
       1       8       1       1       8       1       1       8       1       1
       8       1       1       8       1       1       8       1       1       8
       1       1       8       1       1       8       1       1       8       1
       1       8       1       1       8       1       1       8       1       1
       8       1       1       8       1       1       8       1       1       8
       1       1       8       1       1       8       1       1       8       1
       1       8       1       1       8       1       1       8       1       1
       8       1       1       8       1       1       8       1       1       8
       1       1       8       1       1       8       1       1       8       1
       1       8       1       1       8       1       1       8       1       1
       8       1       1       8       1       1       8       1       1       8
       1       1       8       1       1       8       1       1       8       1
       1       8       1       1       8       1       1       8       1       1
       8       1       1       8       1       1       8       1       1       8
       1       1       8       1       1       8       1       1       8       1
       1       8       1       1       8       1       1       8       1       1
       8       1       1       8       1       1       8       1       1       8
       1       1       8       1       1       8       1       1       8       1
       1       8       1       1       8       1       1       8       1       1
       8       1       1       8       1       1       8       1       1       8
       1       1       8       1       1       8       1       1       8       1
       1       8       1       1       8       1       1       8       1       1
       8       1       1       8       1       1       8       1       1       8
       1       1       8       1       1       8       1       1       8       1
       1       8       1       1       8       1       1       8       1       1
       8       1       1       8       1       1       8       1       1       8
       1       1       8       1       1       8       1       1       8       1
       1       8       1       1       8       1       1       8       1       1
       8       1       1       8       1       1       8       1       1       8
       1       1       8       1       1       8       1       1       8       1
       1       8       1       1       8       1       1       8       1       1
       8       1       1       8       1       1       8       1       1       8
       1       1       8       1       1       8       1       1       8       1
       1       8       1       1       8       1       1       8       1       1
       8       1       1       8       1       1       8       1       1       8
       1       1       8       1       1       8       1       1       8       1
       1       8       1       1       8       1       1       8       1       1
       8       1       1       8       1       1       8       1       1       8
       1       1       8       1       1       8       1       1       8       1
       1       8       1       1       8       1       1       8       1       1
       8       1       1       8       1       1       8       1       1       8
       1       1       8       1       1       8       1       1       8       1
       1       8       1       1       8       1       1       8       1       1
       8       1       1       8       1       1       8       1       1       8
       1       1       8       1       1       8       1       1       8       1
       1       8       1       1       8       1       1       8       1       1
       8       1       1       8       1       1       8       1       1       8
       1       1       8       1       1       8       1       1       8       1
       1       8       1       1       8       1       1       8       1       1
       8       1       1       8       1       1       8       1       1       8
       1       1       8       1       1       8       1       1       8       1
       1       8       1       1       8       1       1       8       1       1
       8       1       1       8       1       1       8       1       1       8
       1       1       8       1       1       8       1       1       8       1
       1       8       1       1       8       1       1       8       1       1
       8       1       1       8       1       1       8       1       1       8
       1       1       8       1       1       8       1       1       8       1
       1       8       1       1       8       1       1       8       1       1
       8       1       1       8       1       1       8       1       1       8
       1       1       8       1       1       8       1       1       8       1
       1       8       1       1       8       1       1       8       1       1
       8       1       1       8       1       1       8       1       1       8
       1       1       8       1       1       8       1       1       8       1
       1       8       1       1       8       1       1       8       1       1
       8       1       1       8       1       1       8       1       1       8
       1       1       8       1       1       8       1       1       8       1
       1       8       1       1       8       1       1       8       1       1
       8       1       1       8       1       1       8       1       1       8
       1       1       8       1       1       8       1       1       8       1
       1       8       1       1       8       1       1       8       1       1
       8       1       1       8       1       1       8       1       1       8
       1       1       8       1       1       8       1       1       8       1
       1       8       1       1       8       1       1       8       1       1
       8       1       1       8       1       1       8       1       1       8
       1       1       8       1       1       8       1       1       8       1
       1       8       1       1       8       1       1       8       1       1
       8       1       1       8       1       1       8       1       1       8
       1       1       8       1       1       8       1       1       8       1
       1       8       1       1       8       1       1       8       1       1
       8       1       1       8       1       1       8       1       1       8
       1       1       8       1       1       8       1       1       8       1
       1       8       1       1       8       1       1       8       1       1
       8       1       1       8       1       1       8       1       1       8
       1       1       8       1       1       8       1       1       8       1
       1       8       1       1       8       1       1       8       1       1
       8       1       1       8       1       1       8       1       1       8
       1       1       8       1       1       8       1       1       8       1
       1       8       1       1       8       1       1       8       1       1
       8       1       1       8       1       1       8       1       1       8
       1       1       8       1       1       8       1       1       8       1
       1       8       1       1       8       1       1       8       1       1
       8       1       1       8       1       1       8       1       1       8
       1       1       8       1       1       8       1       1       8       1
       1       8       1       1       8       1       1       8       1       1
       8       1       1       8       1       1       8       1       1       8
       1       1       8       1       1       8       1       1       8       1
       1       8       1       1       8       1       1       8       1       1
       8       1       1       8       1       1       8       1       1       8
       1       1       8       1       1       8       1       1       8       1
       1       8       1       1       8       1       1       8       1       1
       8       1       1       8       1       1       8       1       1       8
       1       1       8       1       1       8       1       1       8       1
       1       8       1       1       8       1       1       8       1       1
       8       1       1       8       1       1       8       1       1       8
       1       1       8       1       1       8       1       1       8       1
       1       8       1       1       8       1       1       8       1       1
       8       1       1       8       1       1       8       1       1       8
       1       1       8       1       1       8       1       1       8       1
       1       8       1       1       8       1       1       8       1       1
       8       1       1       8       1       1       8       1       1       8
       1       1       8       1       1       8       1       1       8       1
       1       8       1       1       8       1       1       8       1       1
       8       1       1       8       1       1       8       1       1       8
       1       1       8       1       1       8       1       1       8       1
       1       8       1       1       8       1       1       8       1       1
       8       1       1       8       1       1       8       1       1       8
       1       1       8       1       1       8       1       1       8       1
       1       8       1       1       8       1       1       8       1       1
       8       1       1       8       1       1       8       1       1       8
       1       1       8       1       1       8       1       1       8       1
       1       8       1       1       8       1       1       8       1       1
       8       1       1       8       1       1       8       1       1       8
       1       1       8       1       1       8       1       1       8       1
       1       8       1       1       8       1       1       8       1       1
       8       1       1       8       1       1       8       1       1       8
       1       1       8       1       1       8       1       1       8       1
       1       8       1       1       8       1       1       8       1       1
       8       1       1       8       1       1       8       1       1       8
       1       1       8       1       1       8       1       1       8       1
       1       8       1       1       8       1       1       8       1       1
       8       1       1       8       1       1       8       1       1       8
       1       1       8       1       1       8       1       1       8       1
       1       8       1       1       8       1       1       8       1       1
       8       1       1       8       1       1       8       1       1       8
       1       1       8       1       1       8       1       1       8       1
       1       8       1       1       8       1       1       8       1       1
       8       1       1       8       1       1       8       1       1       8
       1       1       8       1       1       8       1       1       8       1
       1       8       1       1       8       1       1       8       1       1
       8       1       1       8       1       1       8       1       1       8
       1       1       8       1       1       8       1       1       8       1
       1       8       1       1       8       1       1       8       1       1
       8       1       1       8       1       1       8       1       1       8
       1       1       8       1       1       8       1       1       8       1
       1       8       1       1       8       1       1       8       1       1
       8       1       1       8       1       1       8       1       1       8
       1       1       8       1       1       8       1       1       8       1
       1       8       1       1       8       1       1       8       1       1
       8       1       1       8       1       1       8       1       1       8
       1       1       8       1       1       8       1       1       8       1
       1       8       1       1       8       1       1       8       1       1
       8       1       1       8       1       1       8       1       1       8
       1       1       8       1       1       8       1       1       8       1
       1       8       1       1       8       1       1       8       1       1
       8       1       1       8       1       1       8       1       1       8
       1       1       8       1       1       8       1       1       8       1
       1       8       1       1       8       1       1       8       1       1
       8       1       1       8       1       1       8       1       1       8
       1       1       8       1       1       8       1       1       8       1
       1       8       1       1       8       1       1       8       1       1
       8       1       1       8       1       1       8       1       1       8
       1       1       8       1       1       8       1       1       8       1
       1       8       1       1       8       1       1       8       1       1
       8       1       1       8       1       1       8       1       1       8
       1       1       8       1       1       8       1       1       8       1
       1       8       1       1       8       1       1       8       1       1
       8       1       1       8       1       1       8       1       1       8
       1       1       8       1       1       8       1       1       8       1
       1       8       1       1       8       1       1       8       1       1
       8       1       1       8       1       1       8       1       1       8
       1       1       8       1       1       8       1       1       8       1
       1       8       1       1       8       1       1       8       1       1
       8       1       1       8       1       1       8       1       1       8
       1       1       8       1       1       8       1       1       8       1
       1       8       1       1       8       1       1       8       1       1
       8       1       1       8       1       1       8       1       1       8
       1       1       8       1       1       8       1       1       8       1
       1       8       1       1       8       1       1       8       1       1
       8       1       1       8       1       1       8       1       1       8
       1       1       8       1       1       8       1       1       8       1
       1       8       1       1       8       1       1       8       1       1
       8       1       1       8       1       1       8       1       1       8
       1       1       8       1       1       8       1       1       8       1
       1       8       1       1       8       1       1       8       1       1
       8       1       1       8       1       1       8       1       1       8
       1       1       8       1       1       8       1       1       8       1
       1       8       1       1       8       1       1       8       1       1
       8       1       1       8       1       1       8       1       1       8
       1       1       8       1       1       8       1       1       8       1
       1       8       1       1       8       1       1       8       1       1
       8       1       1       8       1       1       8       1       1       8
       1       1       8       1       1       8       1       1       8       1
       1       8       1       1       8       1       1       8       1       1
       8       1       1       8       1       1       8       1       1       8
       1       1       8       1       1       8       1       1       8       1
       1       8       1       1       8       1       1       8       1       1
       8       1       1       8       1       1       8       1       1       8
       1       1       8       1       1       8       1       1       8       1
       1       8       1       1       8       1       1       8       1       1
       8       1       1       8       1       1       8       1       1       8
       1       1       8       1       1       8       1       1       8       1
       1       8       1       1       8       1       1       8       1       1
       8       1       1       8       1       1       8       1       1       8
       1       1       8       1       1       8       1       1       8       1
       1       8       1       1       8       1       1       8       1       1
       8       1       1       8       1       1       8       1       1       8
       1       1       8       1       1       8       1       1       8       1
       1       8       1       1       8       1       1       8       1       1
       8       1       1       8       1       1       8       1       1       8
       1       1       8       1       1       8       1       1       8       1
       1       8       1       1       8       1       1       8       1       1
       8       1       1       8       1       1       8       1       1       8
       1       1       8       1       1       8       1       1       8       1
       1       8       1       1       8       1       1       8       1       1
       8       1       1       8       1       1       8       1       1       8
       1       1       8       1       1       8       1       1       8       1
       1       8       1       1       8       1       1       8       1       1
       8       1       1       8       1       1       8       1       1       8
       1       1       8       1       1       8       1       1       8       1
       1       8       1       1       8       1       1       8       1       1
       8       1       1       8       1       1       8       1       1       8
       1       1       8       1       1       8       1       1       8       1
       1       8       1       1       8       1       1       8       1       1
       8       1       1       8       1       1       8       1       1       8
       1       1       8       1       1       8       1       1       8       1
       1       8       1       1       8       1       1       8       1       1
       8       1       1       8       1       1       8       1       1       8
       1       1       8       1       1       8       1       1       8       1
       1       8       1       1       8       1       1       8       1       1
       8       1       1       8       1       1       8       1       1       8
       1       1       8       1       1       8       1       1       8       1
       1       8       1       1       8       1       1       8       1       1
       8       1       1       8       1       1       8       1       1       8
       1       1       8       1       1       8       1       1       8       1
       1       8       1       1       8       1       1       8       1       1
       8       1       1       8       1       1       8       1       1       8
       1       1       8       1       1       8       1       1       8       1
       1       8       1       1       8       1       1       8       1       1
       8       1       1       8       1       1       8       1       1       8
       1       1       8       1       1       8       1       1       8       1
       1       8       1       1       8       1       1       8       1       1
       8       1       1       8       1       1       8       1       1       8
       1       1       8       1       1       8       1       1       8       1
       1       8       1       1       8       1       1       8       1       1
       8       1       1       8       1       1       8       1       1       8
       1       1       8       1       1       8       1       1       8       1
       1       8       1       1       8       1       1       8       1       1
       8       1       1       8       1       1       8       1       1       8
       1       1       8       1       1       8       1       1       8       1
       1       8       1       1       8       1       1       8       1       1
       8       1       1       8       1       1       8       1       1       8
       1       1       8       1       1       8       1       1       8       1
       1       8       1       1       8       1       1       8       1       1
       8       1       1       8       1       1       8       1       1       8
       1       1       8       1       1       8       1       1       8       1
       1       8       1       1       8       1       1       8       1       1
       8       1       1       8       1       1       8       1       1       8
       1       1       8       1       1       8       1       1       8       1
       1       8       1       1       8       1       1       8       1       1
       8       1       1       8       1       1       8       1       1       8
       1       1       8       1       1       8       1       1       8       1
       1       8       1       1       8       1       1       8       1       1
       8       1       1       8       1       1       8       1       1       8
       1       1       8       1       1       8       1       1       8       1
       1       8       1       1       8       1       1       8       1       1
       8       1       1       8       1       1       8       1       1       8
       1       1       8       1       1       8       1       1       8       1
       1       8       1       1       8       1       1       8       1       1
       8       1       1       8       1       1       8       1       1       8
       1       1       8       1       1       8       1       1       8       1
       1       8       1       1       8       1       1       8       1       1
       8       1       1       8       1       1       8       1       1       8
       1       1       8       1       1       8       1       1       8       1
       1       8       1       1       8       1       1       8       1       1
       8       1       1       8       1       1       8       1       1       8
       1       1       8       1       1       8       1       1       8       1
       1       8       1       1       8       1       1       8       1       1
       8       1       1       8       1       1       8       1       1       8
       1       1       8       1       1       8       1       1       8       1
       1       8       1       1       8       1       1       8       1       1
       8       1       1       8       1       1       8       1       1       8
       1       1       8       1       1       8       1       1       8       1
       1       8       1       1       8       1       1       8       1       1
       8       1       1       8       1       1       8       1       1       8
       1       1       8       1       1       8       1       1       8       1
       1       8       1       1       8       1       1       8       1       1
       8       1       1       8       1       1       8       1       1       8
       1       1       8       1       1       8       1       1       8       1
       1       8       1       1       8       1       1       8       1       1
       8       1       1       8       1       1       8       1       1       8
       1       1       8       1       1       8       1       1       8       1
       1       8       1       1       8       1       1       8       1       1
       8       1       1       8       1       1       8       1       1       8
       1       1       8       1       1       8       1       1       8       1
       1       8       1       1       8       1       1       8       1       1
       8       1       1       8       1       1       8       1       1       8
       1       1       8       1       1       8       1       1       8       1
       1       8       1       1       8       1       1       8       1       1
       8       1       1       8       1       1       8       1       1       8
       1       1       8       1       1       8       1       1       8       1
       1       8       1       1       8       1       1       8       1       1
       8       1       1       8       1       1       8       1       1       8
       1       1       8       1       1       8       1       1       8       1
       1       8       1       1       8       1       1       8       1       1
       8       1       1       8       1       1       8       1       1       8
       1       1       8       1       1       8       1       1       8       1
       1       8       1       1       8       1       1       8       1       1
       8       1       1       8       1       1       8       1       1       8
       1       1       8       1       1       8       1       1       8       1
       1       8       1       1       8       1       1       8       1       1
       8       1       1       8       1       1       8       1       1       8
       1       1       8       1       1       8       1       1       8       1
       1       8       1       1       8       1       1       8       1       1
       8       1       1       8       1       1       8       1       1       8
       1       1       8       1       1       8       1       1       8       1
       1       8       1       1       8       1       1       8       1       1
       8       1       1       8       1       1       8       1       1       8
       1       1       8       1       1       8       1       1       8       1
       1       8       1       1       8       1       1       8       1       1
       8       1       1       8       1       1       8       1       1       8
       1       1       8       1       1       8       1       1       8       1
       1       8       1       1       8       1       1       8       1       1
       8       1       1       8       1       1       8       1       1       8
       1       1       8       1       1       8       1       1       8       1
       1       8       1       1       8       1       1       8       1       1
       8       1       1       8       1       1       8       1       1       8
       1       1       8       1       1       8       1       1       8       1
       1       8       1       1       8       1       1       8       1       1
       8       1       1       8       1       1       8       1       1       8
       1       1       8       1       1       8       1       1       8       1
       1       8       1       1       8       1       1       8       1       1
       8       1       1       8       1       1       8       1       1       8
       1       1       8       1       1       8       1       1       8       1
       1       8       1       1       8       1       1       8       1       1
       8       1       1       8       1       1       8       1       1       8
       1       1       8       1       1       8       1       1       8       1
       1       8       1       1       8       1       1       8       1       1
       8       1       1       8       1       1       8       1       1       8
       1       1       8       1       1       8       1       1       8       1
       1       8       1       1       8       1       1       8       1       1
       8       1       1       8       1       1       8       1       1       8
       1       1       8       1       1       8       1       1       8       1
       1       8       1       1       8       1       1       8       1       1
       8       1       1       8       1       1       8       1       1       8
       1       1       8       1       1       8       1       1       8       1
       1       8       1       1       8       1       1       8       1       1
       8       1       1       8       1       1       8       1       1       8
       1       1       8       1       1       8       1       1       8       1
       1       8       1       1       8       1       1       8       1       1
       8       1       1       8       1       1       8       1       1       8
       1       1       8       1       1       8       1       1       8       1
       1       8       1       1       8       1       1       8       1       1
       8       1       1       8       1       1       8       1       1       8
       1       1       8       1       1       8       1       1       8       1
       1       8       1       1       8       1       1       8       1       1
       8       1       1       8       1       1       8       1       1       8
       1       1       8       1       1       8       1       1       8       1
       1       8       1       1       8       1       1       8       1       1
       8       1       1       8       1       1       8       1       1       8
       1       1       8       1       1       8       1       1       8       1
       1       8       1       1       8       1       1       8       1       1
       8       1       1       8       1       1       8       1       1       8
       1       1       8       1       1       8       1       1       8       1
       1       8       1       1       8       1       1       8       1       1
       8       1       1       8       1       1       8       1       1       8
       1       1       8       1       1       8       1       1       8       1
       1       8       1       1       8       1       1       8       1       1
       8       1       1       8       1       1       8       1       1       8
       1       1       8       1       1       8       1       1       8       1
       1       8       1       1       8       1       1       8       1       1
       8       1       1       8       1       1       8       1       1       8
       1       1       8       1       1       8       1       1       8       1
       1       8       1       1       8       1       1       8       1       1
       8       1       1       8       1       1       8       1       1       8
       1       1       8       1       1       8       1       1       8       1
       1       8       1       1       8       1       1       8       1       1
       8       1       1       8       1       1       8       1       1       8
       1       1       8       1       1       8       1       1       8       1
       1       8       1       1       8       1       1       8       1       1
       8       1       1       8       1       1       8       1       1       8
       1       1       8       1       1       8       1       1       8       1
       1       8       1       1       8       1       1       8       1       1
       8       1       1       8       1       1       8       1       1       8
       1       1       8       1       1       8       1       1       8       1
       1       8       1       1       8       1       1       8       1       1
       8       1       1       8       1       1       8       1       1       8
       1       1       8       1       1       8       1       1       8       1
       1       8       1       1       8       1       1       8       1       1
       8       1       1       8       1       1       8       1       1       8
       1       1       8       1       1       8       1       1       8       1
       1       8       1       1       8       1       1       8       1       1
       8       1       1       8       1       1       8       1       1       8
       1       1       8       1       1       8       1       1       8       1
       1       8       1       1       8       1       1       8       1       1
       8       1       1       8       1       1       8       1       1       8
       1       1       8       1       1       8       1       1       8       1
       1       8       1       1       8       1       1       8       1       1
       8       1       1       8       1       1       8       1       1       8
       1       1       8       1       1       8       1       1       8       1
       1       8       1       1       8       1       1       8       1       1
       8       1       1       8       1       1       8       1       1       8
       1       1       8       1       1       8       1       1       8       1
       1       8       1       1       8       1       1       8       1       1
       8       1       1       8       1       1       8       1       1       8
       1       1       8       1       1       8       1       1       8       1
       1       8       1       1       8       1       1       8       1       1
       8       1       1       8       1       1       8       1       1       8
       1       1       8       1       1       8       1       1       8       1
       1       8       1       1       8       1       1       8       1       1
       8       1       1       8       1       1       8       1       1       8
       1       1       8       1       1       8       1       1       8       1
       1       8       1       1       8       1       1       8       1       1
       8       1       1       8       1       1       8       1       1       8
       1       1       8       1       1       8       1       1       8       1
       1       8       1       1       8       1       1       8       1       1
       8       1       1       8       1       1       8       1       1       8
       1       1       8       1       1       8       1       1       8       1
       1       8       1       1       8       1       1       8       1       1
       8       1       1       8       1       1       8       1       1       8
       1       1       8       1       1       8       1       1       8       1
       1       8       1       1       8       1       1       8       1       1
       8       1       1       8       1       1       8       1       1       8
       1       1       8       1       1       8       1       1       8       1
       1       8       1       1       8       1       1       8       1       1
       8       1       1       8       1       1       8       1       1       8
       1       1       8       1       1       8       1       1       8       1
       1       8       1       1       8       1       1       8       1       1
       8       1       1       8       1       1       8       1       1       8
       1       1       8       1       1       8       1       1       8       1
       1       8       1       1       8       1       1       8       1       1
       8       1       1       8       1       1       8       1       1       8
       1       1       8       1       1       8       1       1       8       1
       1       8       1       1       8       1       1       8       1       1
       8       1       1       8       1       1       8       1       1       8
       1       1       8       1       1       8       1       1       8       1
       1       8       1       1       8       1       1       8       1       1
       8       1       1       8       1       1       8       1       1       8
       1       1       8       1       1       8       1       1       8       1
       1       8       1       1       8       1       1       8       1       1
       8       1       1       8       1       1       8       1       1       8
       1       1       8       1       1       8       1       1       8       1
       1       8       1       1       8       1       1       8       1       1
       8       1       1       8       1       1       8       1       1       8
       1       1       8       1       1       8       1       1       8       1
       1       8       1       1       8       1       1       8       1       1
       8       1       1       8       1       1       8       1       1       8
       1       1       8       1       1       8       1       1       8       1
       1       8       1       1       8       1       1       8       1       1
       8       1       1       8       1       1       8       1       1       8
       1       1       8       1       1       8       1       1       8       1
       1       8       1       1       8       1       1       8       1       1
       8       1       1       8       1       1       8       1       1       8
       1       1       8       1       1       8       1       1       8       1
       1       8       1       1       8       1       1       8       1       1
       8       1       1       8       1       1       8       1       1       8
       1       1       8       1       1       8       1       1       8       1
       1       8       1       1       8       1       1       8       1       1
       8       1       1       8       1       1       8       1       1       8
       1       1       8       1       1       8       1       1       8       1
       1       8       1       1       8       1       1       8       1       1
       8       1       1       8       1       1       8       1       1       8
       1       1       8       1       1       8       1       1       8       1
       1       8       1       1       8       1       1       8       1       1
       8       1       1       8       1       1       8       1       1       8
       1       1       8       1       1       8       1       1       8       1
       1       8       1       1       8       1       1       8       1       1
       8       1       1       8       1       1       8       1       1       8
       1       1       8       1       1       8       1       1       8       1
       1       8       1       1       8       1       1       8       1       1
       8       1       1       8       1       1       8       1       1       8
       1       1       8       1       1       8       1       1       8       1
       1       8       1       1       8       1       1       8       1       1
       8       1       1       8       1       1       8       1       1       8
       1       1       8       1       1       8       1       1       8       1
       1       8       1       1       8       1       1       8       1       1
       8       1       1       8       1       1       8       1       1       8
       1       1       8       1       1       8       1       1       8       1
       1       8       1       1       8       1       1       8       1       1
       8       1       1       8       1       1       8       1       1       8
       1       1       8       1       1       8       1       1       8       1
       1       8       1       1       8       1       1       8       1       1
       8       1       1       8       1       1       8       1       1       8
       1       1       8       1       1       8       1       1       8       1
       1       8       1       1       8       1       1       8       1       1
       8       1       1       8       1       1       8       1       1       8
       1       1       8       1       1       8       1       1       8       1
       1       8       1       1       8       1       1       8       1       1
       8       1       1       8       1       1       8       1       1       8
       1       1       8       1       1       8       1       1       8       1
       1       8       1       1       8       1       1       8       1       1
       8       1       1       8       1       1       8       1       1       8
       1       1       8       1       1       8       1       1       8       1
       1       8       1       1       8       1       1       8       1       1
       8       1       1       8       1       1       8       1       1       8
       1       1       8       1       1       8       1       1       8       1
       1       8       1       1       8       1       1       8       1       1
       8       1       1       8       1       1       8       1       1       8
       1       1       8       1       1       8       1       1       8       1
       1       8       1       1       8       1       1       8       1       1
       8       1       1       8       1       1       8       1       1       8
       1       1       8       1       1       8       1       1       8       1
       1       8       1       1       8       1       1       8       1       1
       8       1       1       8       1       1       8       1       1       8
       1       1       8       1       1       8       1       1       8       1
       1       8       1       1       8       1       1       8       1       1
       8       1       1       8       1       1       8       1       1       8
       1       1       8       1       1       8       1       1       8       1
       1       8       1       1       8       1       1       8       1       1
       8       1       1       8       1       1       8       1       1       8
       1       1       8       1       1       8       1       1       8       1
       1       8       1       1       8       1       1       8       1       1
       8       1       1       8       1       1       8       1       1       8
       1       1       8       1       1       8       1       1       8       1
       1       8       1       1       8       1       1       8       1       1
       8       1       1       8       1       1       8       1       1       8
       1       1       8       1       1       8       1       1       8       1
       1       8       1       1       8       1       1       8       1       1
       8       1       1       8       1       1       8       1       1       8
       1       1       8       1       1       8       1       1       8       1
       1       8       1       1       8       1       1       8       1       1
       8       1       1       8       1       1       8       1       1       8
       1       1       8       1       1       8       1       1       8       1
       1       8       1       1       8       1       1       8       1       1
       8       1       1       8       1       1       8       1       1       8
       1       1       8       1       1       8       1       1       8       1
       1       8       1       1       8       1       1       8       1       1
       8       1       1       8       1       1       8       1       1       8
       1       1       8       1       1       8       1       1       8       1
       1       8       1       1       8       1       1       8       1       1
       8       1       1       8       1       1       8       1       1       8
       1       1       8       1       1       8       1       1       8       1
       1       8       1       1       8       1       1       8       1       1
       8       1       1       8       1       1       8       1       1       8
       1       1       8       1       1       8       1       1       8       1
       1       8       1       1       8       1       1       8       1       1
       8       1       1       8       1       1       8       1       1       8
       1       1       8       1       1       8       1       1       8       1
       1       8       1       1       8       1       1       8       1       1
       8       1       1       8       1       1       8       1       1       8
       1       1       8       1       1       8       1       1       8       1
       1       8       1       1       8       1       1       8       1       1
       8       1       1       8       1       1       8       1       1       8
       1       1       8       1       1       8       1       1       8       1
       1       8       1       1       8       1       1       8       1       1
       8       1       1       8       1       1       8       1       1       8
       1       1       8       1       1       8       1       1       8       1
       1       8       1       1       8       1       1       8       1       1
       8       1       1       8       1       1       8       1       1       8
       1       1       8       1       1       8       1       1       8       1
       1       8       1       1       8       1       1       8       1       1
       8       1       1       8       1       1       8       1       1       8
       1       1       8       1       1       8       1       1       8       1
       1       8       1       1       8       1       1       8       1       1
       8       1       1       8       1       1       8       1       1       8
       1       1       8       1       1       8       1       1       8       1
       1       8       1       1       8       1       1       8       1       1
       8       1       1       8       1       1       8       1       1       8
       1       1       8       1       1       8       1       1       8       1
       1       8       1       1       8       1       1       8       1       1
       8       1       1       8       1       1       8       1       1       8
       1       1       8       1       1       8       1       1       8       1
       1       8       1       1       8       1       1       8       1       1
       8       1       1       8       1       1       8       1       1       8
       1       1       8       1       1       8       1       1       8       1
       1       8       1       1       8       1       1       8       1       1
       8       1       1       8       1       1       8       1       1       8
       1       1       8       1       1       8       1       1       8       1
       1       8       1       1       8       1       1       8       1       1
       8       1       1       8       1       1       8       1       1       8
       1       1       8       1       1       8       1       1       8       1
       1       8       1       1       8       1       1       8       1       1
       8       1       1       8       1       1       8       1       1       8
       1       1       8       1       1       8       1       1       8       1
       1       8       1       1       8       1       1       8       1       1
       8       1       1       8       1       1       8       1       1       8
       1       1       8       1       1       8       1       1       8       1
       1       8       1       1       8       1       1       8       1       1
       8       1       1       8       1       1       8       1       1       8
       1       1       8       1       1       8       1       1       8       1
       1       8       1       1       8       1       1       8       1       1
       8       1       1       8       1       1       8       1       1       8
       1       1       8       1       1       8       1       1       8       1
       1       8       1       1       8       1       1       8       1       1
       8       1       1       8       1       1       8       1       1       8
       1       1       8       1       1       8       1       1       8       1
       1       8       1       1       8       1       1       8       1       1
       8       1       1       8       1       1       8       1       1       8
       1       1       8       1       1       8       1       1       8       1
       1       8       1       1       8       1       1       8       1       1
       8       1       1       8       1       1       8       1       1       8
       1       1       8       1       1       8       1       1       8       1
       1       8       1       1       8       1       1       8       1       1
       8       1       1       8       1       1       8       1       1       8
       1       1       8       1       1       8       1       1       8       1
       1       8       1       1       8       1       1       8       1       1
       8       1       1       8       1       1       8       1       1       8
       1       1       8       1       1       8       1       1       8       1
       1       8       1       1       8       1       1       8       1       1
       8       1       1       8       1       1       8       1       1       8
       1       1       8       1       1       8       1       1       8       1
       1       8       1       1       8       1       1       8       1       1
       8       1       1       8       1       1       8       1       1       8
       1       1       8       1       1       8       1       1       8       1
       1       8       1       1       8       1       1       8       1       1
       8       1       1       8       1       1       8       1       1       8
       1       1       8       1       1       8       1       1       8       1
       1       8       1       1       8       1       1       8       1       1
       8       1       1       8       1       1       8       1       1       8
       1       1       8       1       1       8       1       1       8       1
       1       8       1       1       8       1       1       8       1       1
       8       1       1       8       1       1       8       1       1       8
       1       1       8       1       1       8       1       1       8       1
       1       8       1       1       8       1       1       8       1       1
       8       1       1       8       1       1       8       1       1       8
       1       1       8       1       1       8       1       1       8       1
       1       8       1       1       8       1       1       8       1       1
       8       1       1       8       1       1       8       1       1       8
       1       1       8       1       1       8       1       1       8       1
       1       8       1       1       8       1       1       8       1       1
       8       1       1       8       1       1       8       1       1       8
       1       1       8       1       1       8       1       1       8       1
       1       8       1       1       8       1       1       8       1       1
       8       1       1       8       1       1       8       1       1       8
       1       1       8       1       1       8       1       1       8       1
       1       8       1       1       8       1       1       8       1       1
       8       1       1       8       1       1       8       1       1       8
       1       1       8       1       1       8       1       1       8       1
       1       8       1       1       8       1       1       8       1       1
       8       1       1       8       1       1       8       1       1       8
       1       1       8       1       1       8       1       1       8       1
       1       8       1       1       8       1       1       8       1       1
       8       1       1       8       1       1       8       1       1       8
       1       1       8       1       1       8       1       1       8       1
       1       8       1       1       8       1       1       8       1       1
       8       1       1       8       1       1       8       1       1       8
       1       1       8       1       1       8       1       1       8       1
       1       8       1       1       8       1       1       8       1       1
       8       1       1       8       1       1       8       1       1       8
       1       1       8       1       1       8       1       1       8       1
       1       8       1       1       8       1       1       8       1       1
       8       1       1       8       1       1       8       1       1       8
       1       1       8       1       1       8       1       1       8       1
       1       8       1       1       8       1       1       8       1       1
       8       1       1       8       1       1       8       1       1       8
       1       1       8       1       1       8       1       1       8       1
       1       8       1       1       8       1       1       8       1       1
       8       1       1       8       1       1       8       1       1       8
       1       1       8       1       1       8       1       1       8       1
       1       8       1       1       8       1       1       8       1       1
       8       1       1       8       1       1       8       1       1       8
       1       1       8       1       1       8       1       1       8       1
       1       8       1       1       8       1       1       8       1       1
       8       1       1       8       1       1       8       1       1       8
       1       1       8       1       1       8       1       1       8       1
       1       8       1       1       8       1       1       8       1       1
       8       1       1       8       1       1       8       1       1       8
       1       1       8       1       1       8       1       1       8       1
       1       8       1       1       8       1       1       8       1       1
       8       1       1       8       1       1       8       1       1       8
       1       1       8       1       1       8       1       1       8       1
       1       8       1       1       8       1       1       8       1       1
       8       1       1       8       1       1       8       1       1       8
       1       1       8       1       1       8       1       1       8       1
       1       8       1       1       8       1       1       8       1       1
       8       1       1       8       1       1       8       1       1       8
       1       1       8       1       1       8       1       1       8       1
       1       8       1       1       8       1       1       8       1       1
       8       1       1       8       1       1       8       1       1       8
       1       1       8       1       1       8       1       1       8       1
       1       8       1       1       8       1       1       8       1       1
       8       1       1       8       1       1       8       1       1       8
       1       1       8       1       1       8       1       1       8       1
       1       8       1       1       8       1       1       8       1       1
       8       1       1       8       1       1       8       1       1       8
       1       1       8       1       1       8       1       1       8       1
       1       8       1       1       8       1       1       8       1       1
       8       1       1       8       1       1       8       1       1       8
       1       1       8       1       1       8       1       1       8       1
       1       8       1       1       8       1       1       8       1       1
       8       1       1       8       1       1       8       1       1       8
       1       1       8       1       1       8       1       1       8       1
       1       8       1       1       8       1       1       8       1       1
       8       1       1       8       1       1       8       1       1       8
       1       1       8       1       1       8       1       1       8       1
       1       8       1       1       8       1       1       8       1       1
       8       1       1       8       1       1       8       1       1       8
       1       1       8       1       1       8       1       1       8       1
       1       8       1       1       8       1       1       8       1       1
       8       1       1       8       1       1       8       1       1       8
       1       1       8       1       1       8       1       1       8       1
       1       8       1       1       8       1       1       8       1       1
       8       1       1       8       1       1       8       1       1       8
       1       1       8       1       1       8       1       1       8       1
       1       8       1       1       8       1       1       8       1       1
       8       1       1       8       1       1       8       1       1       8
       1       1       8       1       1       8       1       1       8       1
       1       8       1       1       8       1       1       8       1       1
       8       1       1       8       1       1       8       1       1       8
       1       1       8       1       1       8       1       1       8       1
       1       8       1       1       8       1       1       8       1       1
       8       1       1       8       1       1       8       1       1       8
       1       1       8       1       1       8       1       1       8       1
       1       8       1       1       8       1       1       8       1       1
       8       1       1       8       1       1       8       1       1       8
       1       1       8       1       1       8       1       1       8       1
       1       8       1       1       8       1       1       8       1       1
       8       1       1       8       1       1       8       1       1       8
       1       1       8       1       1       8       1       1       8       1
       1       8       1       1       8       1       1       8       1       1
       8       1       1       8       1       1       8       1       1       8
       1       1       8       1       1       8       1       1       8       1
       1       8       1       1       8       1       1       8       1       1
       8       1       1       8       1       1       8       1       1       8
       1       1       8       1       1       8       1       1       8       1
       1       8       1       1       8       1       1       8       1       1
       8       1       1       8       1       1       8       1       1       8
       1       1       8       1       1       8       1       1       8       1
       1       8       1       1       8       1       1       8       1       1
       8       1       1       8       1       1       8       1       1       8
       1       1       8       1       1       8       1       1       8       1
       1       8       1       1       8       1       1       8       1       1
       8       1       1       8       1       1       8       1       1       8
       1       1       8       1       1       8       1       1       8       1
       1       8       1       1       8       1       1       8       1       1
       8       1       1       8       1       1       8       1       1       8
       1       1       8       1       1       8       1       1       8       1
       1       8       1       1       8       1       1       8       1       1
       8       1       1       8       1       1       8       1       1       8
       1       1       8       1       1       8       1       1       8       1
       1       8       1       1       8       1       1       8       1       1
       8       1       1       8       1       1       8       1       1       8
       1       1       8       1       1       8       1       1       8       1
       1       8       1       1       8       1       1       8       1       1
       8       1       1       8       1       1       8       1       1       8
       1       1       8       1       1       8       1       1       8       1
       1       8       1       1       8       1       1       8       1       1
       8       1       1       8       1       1       8       1       1       8
       1       1       8       1       1       8       1       1       8       1
       1       8       1       1       8       1       1       8       1       1
       8       1       1       8       1       1       8       1       1       8
       1       1       8       1       1       8       1       1       8       1
       1       8       1       1       8       1       1       8       1       1
       8       1       1       8       1       1       8       1       1       8
       1       1       8       1       1       8       1       1       8       1
       1       8       1       1       8       1       1       8       1       1
       8       1       1       8       1       1       8       1       1       8
       1       1       8       1       1       8       1       1       8       1
       1       8       1       1       8       1       1       8       1       1
       8       1       1       8       1       1       8       1       1       8
       1       1       8       1       1       8       1       1       8       1
       1       8       1       1       8       1       1       8       1       1
       8       1       1       8       1       1       8       1       1       8
       1       1       8       1       1       8       1       1       8       1
       1       8       1       1       8       1       1       8       1       1
       8       1       1       8       1       1       8       1       1       8
       1       1       8       1       1       8       1       1       8       1
       1       8       1       1       8       1       1       8       1       1
       8       1       1       8       1       1       8       1       1       8
       1       1       8       1       1       8       1       1       8       1
       1       8       1       1       8       1       1       8       1       1
       8       1       1       8       1       1       8       1       1       8
       1       1       8       1       1       8       1       1       8       1
       1       8       1       1       8       1       1       8       1       1
       8       1       1       8       1       1       8       1       1       8
       1       1       8       1       1       8       1       1       8       1
       1       8       1       1       8       1       1       8       1       1
       8       1       1       8       1       1       8       1       1       8
       1       1       8       1       1       8       1       1       8       1
       1       8       1       1       8       1       1       8       1       1
       8       1       1       8       1       1       8       1       1       8
       1       1       8       1       1       8       1       1       8       1
       1       8       1       1       8       1       1       8       1       1
       8       1       1       8       1       1       8       1       1       8
       1       1       8       1       1       8       1       1       8       1
       1       8       1       1       8       1       1       8       1       1
       8       1       1       8       1       1       8       1       1       8
       1       1       8       1       1       8       1       1       8       1
       1       8       1       1       8       1       1       8       1       1
       8       1       1       8       1       1       8       1       1       8
       1       1       8       1       1       8       1       1       8       1
       1       8       1       1       8       1       1       8       1       1
       8       1       1       8       1       1       8       1       1       8
       1       1       8       1       1       8       1       1       8       1
       1       8       1       1       8       1       1       8       1       1
       8       1       1       8       1       1       8       1       1       8
       1       1       8       1       1       8       1       1       8       1
       1       8       1       1       8       1       1       8       1       1
       8       1       1       8       1       1       8       1       1       8
       1       1       8       1       1       8       1       1       8       1
       1       8       1       1       8       1       1       8       1       1
       8       1       1       8       1       1       8       1       1       8
       1       1       8       1       1       8       1       1       8       1
       1       8       1       1       8       1       1       8       1       1
       8       1       1       8       1       1       8       1       1       8
       1       1       8       1       1       8       1       1       8       1
       1       8       1       1       8       1       1       8       1       1
       8       1       1       8       1       1       8       1       1       8
       1       1       8       1       1       8       1       1       8       1
       1       8       1       1       8       1       1       8       1       1
       8       1       1       8       1       1       8       1       1       8
       1       1       8       1       1       8       1       1       8       1
       1       8       1       1       8       1       1       8       1       1
       8       1       1       8       1       1       8       1       1       8
       1       1       8       1       1       8       1       1       8       1
       1       8       1       1       8       1       1       8       1       1
       8       1       1       8       1       1       8       1       1       8
       1       1       8       1       1       8       1       1       8       1
       1       8       1       1       8       1       1       8       1       1
       8       1       1       8       1       1       8       1       1       8
       1       1       8       1       1       8       1       1       8       1
       1       8       1       1       8       1       1       8       1       1
       8       1       1       8       1       1       8       1       1       8
       1       1       8       1       1       8       1       1       8       1
       1       8       1       1       8       1       1       8       1       1
       8       1       1       8       1       1       8       1       1       8
       1       1       8       1       1       8       1       1       8       1
       1       8       1       1       8       1       1       8       1       1
       8       1       1       8       1       1       8       1       1       8
       1       1       8       1       1       8       1       1       8       1
       1       8       1       1       8       1       1       8       1       1
       8       1       1       8       1       1       8       1       1       8
       1       1       8       1       1       8       1       1       8       1
       1       8       1       1       8       1       1       8       1       1
       8       1       1       8       1       1       8       1       1       8
       1       1       8       1       1       8       1       1       8       1
       1       8       1       1       8       1       1       8       1       1
       8       1       1       8       1       1       8       1       1       8
       1       1       8       1       1       8       1       1       8       1
       1       8       1       1       8       1       1       8       1       1
       8       1       1       8       1       1       8       1       1       8
       1       1       8       1       1       8       1       1       8       1
       1       8       1       1       8       1       1       8       1       1
       8       1       1       8       1       1       8       1       1       8
       1       1       8       1       1       8       1       1       8       1
       1       8       1       1       8       1       1       8       1       1
       8       1       1       8       1       1       8       1       1       8
       1       1       8       1       1       8       1       1       8       1
       1       8       1       1       8       1       1       8       1       1
       8       1       1       8       1       1       8       1       1       8
       1       1       8       1       1       8       1       1       8       1
       1       8       1       1       8       1       1       8       1       1
       8       1       1       8       1       1       8       1       1       8
       1       1       8       1       1       8       1       1       8       1
       1       8       1       1       8       1       1       8       1       1
       8       1       1       8       1       1       8       1       1       8
       1       1       8       1       1       8       1       1       8       1
       1       8       1       1       8       1       1       8       1       1
       8       1       1       8       1       1       8       1       1       8
       1       1       8       1       1       8       1       1       8       1
       1       8       1       1       8       1       1       8       1       1
       8       1       1       8       1       1       8       1       1       8
       1       1       8       1       1       8       1       1       8       1
       1       8       1       1       8       1       1       8       1       1
       8       1       1       8       1       1       8       1       1       8
       1       1       8       1       1       8       1       1       8       1
       1       8       1       1       8       1       1       8       1       1
       8       1       1       8       1       1       8       1       1       8
       1       1       8       1       1       8       1       1       8       1
       1       8       1       1       8       1       1       8       1       1
       8       1       1       8       1       1       8       1       1       8
       1       1       8       1       1       8       1       1       8       1
       1       8       1       1       8       1       1       8       1       1
       8       1       1       8       1       1       8       1       1       8
       1       1       8       1       1       8       1       1       8       1
       1       8       1       1       8       1       1       8       1       1
       8       1       1       8       1       1       8       1       1       8
       1       1       8       1       1       8       1       1       8       1
       1       8       1       1       8       1       1       8       1       1
       8       1       1       8       1       1       8       1       1       8
       1       1       8       1       1       8       1       1       8       1
       1       8       1       1       8       1       1       8       1       1
       8       1       1       8       1       1       8       1       1       8
       1       1       8       1       1       8       1       1       8       1
       1       8       1       1       8       1       1       8       1       1
       8       1       1       8       1       1       8       1       1       8
       1       1       8       1       1       8       1       1       8       1
       1       8       1       1       8       1       1       8       1       1
       8       1       1       8       1       1       8       1       1       8
       1       1       8       1       1       8       1       1       8       1
       1       8       1       1       8       1       1       8       1       1
       8       1       1       8       1       1       8       1       1       8
       1       1       8       1       1       8       1       1       8       1
       1       8       1       1       8       1       1       8       1       1
       8       1       1       8       1       1       8       1       1       8
       1       1       8       1       1       8       1       1       8       1
       1       8       1       1       8       1       1       8       1       1
       8       1       1       8       1       1       8       1       1       8
       1       1       8       1       1       8       1       1       8       1
       1       8       1       1       8       1       1       8       1       1
       8       1       1       8       1       1       8       1       1       8
       1       1       8       1       1       8       1       1       8       1
       1       8       1       1       8       1       1       8       1       1
       8       1       1       8       1       1       8       1       1       8
       1       1       8       1       1       8       1       1       8       1
       1       8       1       1       8       1       1       8       1       1
       8       1       1       8       1       1       8       1       1       8
       1       1       8       1       1       8       1       1       8       1
       1       8       1       1       8       1       1       8       1       1
       8       1       1       8       1       1       8       1       1       8
       1       1       8       1       1       8       1       1       8       1
       1       8       1       1       8       1       1       8       1       1
       8       1       1       8       1       1       8       1       1       8
       1       1       8       1       1       8       1       1       8       1
       1       8       1       1       8       1       1       8       1       1
       8       1       1       8       1       1       8       1       1       8
       1       1       8       1       1       8       1       1       8       1
       1       8       1       1       8       1       1       8       1       1
       8       1       1       8       1       1       8       1       1       8
       1       1       8       1       1       8       1       1       8       1
       1       8       1       1       8       1       1       8       1       1
       8       1       1       8       1       1       8       1       1       8
       1       1       8       1       1       8       1       1       8       1
       1       8       1       1       8       1       1       8       1       1
       8       1       1       8       1       1       8       1       1       8
       1       1       8       1       1       8       1       1       8       1
       1       8       1       1       8       1       1       8       1       1
       8       1       1       8       1       1       8       1       1       8
       1       1       8       1       1       8       1       1       8       1
       1       8       1       1       8       1       1       8       1       1
       8       1       1       8       1       1       8       1       1       8
       1       1       8       1       1       8       1       1       8       1
       1       8       1       1       8       1       1       8       1       1
       8       1       1       8       1       1       8       1       1       8
       1       1       8       1       1       8       1       1       8       1
       1       8       1       1       8       1       1       8       1       1
       8       1       1       8       1       1       8       1       1       8
       1       1       8       1       1       8       1       1       8       1
       1       8       1       1       8       1       1       8       1       1
       8       1       1       8       1       1       8       1       1       8
       1       1       8       1       1       8       1       1       8       1
       1       8       1       1       8       1       1       8       1       1
       8       1       1       8       1       1       8       1       1       8
       1       1       8       1       1       8       1       1       8       1
       1       8       1       1       8       1       1       8       1       1
       8       1       1       8       1       1       8       1       1       8
       1       1       8       1       1       8       1       1       8       1
       1       8       1       1       8       1       1       8       1       1
       8       1       1       8       1       1       8       1       1       8
       1       1       8       1       1       8       1       1       8       1
       1       8       1       1       8       1       1       8       1       1
       8       1       1       8       1       1       8       1       1       8
       1       1       8       1       1       8       1       1       8       1
       1       8       1       1       8       1       1       8       1       1
       8       1       1       8       1       1       8       1       1       8
       1       1       8       1       1       8       1       1       8       1
       1       8       1       1       8       1       1       8       1       1
       8       1       1       8       1       1       8       1       1       8
       1       1       8       1       1       8       1       1       8       1
       1       8       1       1       8       1       1       8       1       1
       8       1       1       8       1       1       8       1       1       8
       1       1       8       1       1       8       1       1       8       1
       1       8       1       1       8       1       1       8       1       1
       8       1       1       8       1       1       8       1       1       8
       1       1       8       1       1       8       1       1       8       1
       1       8       1       1       8       1       1       8       1       1
       8       1       1       8       1       1       8       1       1       8
       1       1       8       1       1       8       1       1       8       1
       1       8       1       1       8       1       1       8       1       1
       8       1       1       8       1       1       8       1       1       8
       1       1       8       1       1       8       1       1       8       1
       1       8       1       1       8       1       1       8       1       1
       8       1       1       8       1       1       8       1       1       8
       1       1       8       1       1       8       1       1       8       1
       1       8       1       1       8       1       1       8       1       1
       8       1       1       8       1       1       8       1       1       8
       1       1       8       1       1       8       1       1       8       1
       1       8       1       1       8       1       1       8       1       1
       8       1       1       8       1       1       8       1       1       8
       1       1       8       1       1       8       1       1       8       1
       1       8       1       1       8       1       1       8       1       1
       8       1       1       8       1       1       8       1       1       8
       1       1       8       1       1       8       1       1       8       1
       1       8       1       1       8       1       1       8       1       1
       8       1       1       8       1       1       8       1       1       8
       1       1       8       1       1       8       1       1       8       1
       1       8       1       1       8       1       1       8       1       1
       8       1       1       8       1       1       8       1       1       8
       1       1       8       1       1       8       1       1       8       1
       1       8       1       1       8       1       1       8       1       1
       8       1       1       8       1       1       8       1       1       8
       1       1       8       1       1       8       1       1       8       1
       1       8       1       1       8       1       1       8       1       1
       8       1       1       8       1       1       8       1       1       8
       1       1       8       1       1       8       1       1       8       1
       1       8       1       1       8       1       1       8       1       1
       8       1       1       8       1       1       8       1       1       8
       1       1       8       1       1       8       1       1       8       1
       1       8       1       1       8       1       1       8       1       1
       8       1       1       8       1       1       8       1       1       8
       1       1       8       1       1       8       1       1       8       1
       1       8       1       1       8       1       1       8       1       1
       8       1       1       8       1       1       8       1       1       8
       1       1       8       1       1       8       1       1       8       1
       1       8       1       1       8       1       1       8       1       1
       8       1       1       8       1       1       8       1       1       8
       1       1       8       1       1       8       1       1       8       1
       1       8       1       1       8       1       1       8       1       1
       8       1       1       8       1       1       8       1       1       8
       1       1       8       1       1       8       1       1       8       1
       1       8       1       1       8       1       1       8       1       1
       8       1       1       8       1       1       8       1       1       8
       1       1       8       1       1       8       1       1       8       1
       1       8       1       1       8       1       1       8       1       1
       8       1       1       8       1       1       8       1       1       8
       1       1       8       1       1       8       1       1       8       1
       1       8       1       1       8       1       1       8       1       1
       8       1       1       8       1       1       8       1       1       8
       1       1       8       1       1       8       1       1       8       1
       1       8       1       1       8       1       1       8       1       1
       8       1       1       8       1       1       8       1       1       8
       1       1       8       1       1       8       1       1       8       1
       1       8       1       1       8       1       1       8       1       1
       8       1       1       8       1       1       8       1       1       8
       1       1       8       1       1       8       1       1       8       1
       1       8       1       1       8       1       1       8       1       1
       8       1       1       8       1       1       8       1       1       8
       1       1       8       1       1       8       1       1       8       1
       1       8       1       1       8       1       1       8       1       1
       8       1       1       8       1       1       8       1       1       8
       1       1       8       1       1       8       1       1       8       1
       1       8       1       1       8       1       1       8       1       1
       8       1       1       8       1       1       8       1       1       8
       1       1       8       1       1       8       1       1       8       1
       1       8       1       1       8       1       1       8       1       1
       8       1       1       8       1       1       8       1       1       8
       1       1       8       1       1       8       1       1       8       1
       1       8       1       1       8       1       1       8       1       1
       8       1       1       8       1       1       8       1       1       8
       1       1       8       1       1       8       1       1       8       1
       1       8       1       1       8       1       1       8       1       1
       8       1       1       8       1       1       8       1       1       8
       1       1       8       1       1       8       1       1       8       1
       1       8       1       1       8       1       1       8       1       1
       8       1       1       8       1       1       8       1       1       8
       1       1       8       1       1       8       1       1       8       1
       1       8       1       1       8       1       1       8       1       1
       8       1       1       8       1       1       8       1       1       8
       1       1       8       1       1       8       1       1       8       1
       1       8       1       1       8       1       1       8       1       1
       8       1       1       8       1       1       8       1       1       8
       1       1       8       1       1       8       1       1       8       1
       1       8       1       1       8       1       1       8       1       1
       8       1       1       8       1       1       8       1       1       8
       1       1       8       1       1       8       1       1       8       1
       1       8       1       1       8       1       1       8       1       1
       8       1       1       8       1       1       8       1       1       8
       1       1       8       1       1       8       1       1       8       1
       1       8       1       1       8       1       1       8       1       1
       8       1       1       8       1       1       8       1       1       8
       1       1       8       1       1       8       1       1       8       1
       1       8       1       1       8       1       1       8       1       1
       8       1       1       8       1       1       8       1       1       8
       1       1       8       1       1       8       1       1       8       1
       1       8       1       1       8       1       1       8       1       1
       8       1       1       8       1       1       8       1       1       8
       1       1       8       1       1       8       1       1       8       1
       1       8       1       1       8       1       1       8       1       1
       8       1       1       8       1       1       8       1       1       8
       1       1       8       1       1       8       1       1       8       1
       1       8       1       1       8       1       1       8       1       1
       8       1       1       8       1       1       8       1       1       8
       1       1       8       1       1       8       1       1       8       1
       1       8       1       1       8       1       1       8       1       1
       8       1       1       8       1       1       8       1       1       8
       1       1       8       1       1       8       1       1       8       1
       1       8       1       1       8       1       1       8       1       1
       8       1       1       8       1       1       8       1       1       8
       1       1       8       1       1       8       1       1       8       1
       1       8       1       1       8       1       1       8       1       1
       8       1       1       8       1       1       8       1       1       8
       1       1       8       1       1       8       1       1       8       1
       1       8       1       1       8       1       1       8       1       1
       8       1       1       8       1       1       8       1       1       8
       1       1       8       1       1       8       1       1       8       1
       1       8       1       1       8       1       1       8       1       1
       8       1       1       8       1       1       8       1       1       8
       1       1       8       1       1       8       1       1       8       1
       1       8       1       1       8       1       1       8       1       1
       8       1       1       8       1       1       8       1       1       8
       1       1       8       1       1       8       1       1       8       1
       1       8       1       1       8       1       1       8       1       1
       8       1       1       8       1       1       8       1       1       8
       1       1       8       1       1       8       1       1       8       1
       1       8       1       1       8       1       1       8       1       1
       8       1       1       8       1       1       8       1       1       8
       1       1       8       1       1       8       1       1       8       1
       1       8       1       1       8       1       1       8       1       1
       8       1       1       8       1       1       8       1       1       8
       1       1       8       1       1       8       1       1       8       1
       1       8       1       1       8       1       1       8       1       1
       8       1       1       8       1       1       8       1       1       8
       1       1       8       1       1       8       1       1       8       1
       1       8       1       1       8       1       1       8       1       1
       8       1       1       8       1       1       8       1       1       8
       1       1       8       1       1       8       1       1       8       1
       1       8       1       1       8       1       1       8       1       1
       8       1       1       8       1       1       8       1       1       8
       1       1       8       1       1       8       1       1       8       1
       1       8       1       1       8       1       1       8       1       1
       8       1       1       8       1       1       8       1       1       8
       1       1       8       1       1       8       1       1       8       1
       1       8       1       1       8       1       1       8       1       1
       8       1       1       8       1       1       8       1       1       8
       1       1       8       1       1       8       1       1       8       1
       1       8       1       1       8       1       1       8       1       1
       8       1       1       8       1       1       8       1       1       8
       1       1       8       1       1       8       1       1       8       1
       1       8       1       1       8       1       1       8       1       1
       8       1       1       8       1       1       8       1       1       8
       1       1       8       1       1       8       1       1       8       1
       1       8       1       1       8       1       1       8       1       1
       8       1       1       8       1       1       8       1       1       8
       1       1       8       1       1       8       1       1       8       1
       1       8       1       1       8       1       1       8       1       1
       8       1       1       8       1       1       8       1       1       8
       1       1       8       1       1       8       1       1       8       1
       1       8       1       1       8       1       1       8       1       1
       8       1       1       8       1       1       8       1       1       8
       1       1       8       1       1       8       1       1       8       1
       1       8       1       1       8       1       1       8       1       1
       8       1       1       8       1       1       8       1       1       8
       1       1       8       1       1       8       1       1       8       1
       1       8       1       1       8       1       1       8       1       1
       8       1       1       8       1       1       8       1       1       8
       1       1       8       1       1       8       1       1       8       1
       1       8       1       1       8       1       1       8       1       1
       8       1       1       8       1       1       8       1       1       8
       1       1       8       1       1       8       1       1       8       1
       1       8       1       1       8       1       1       8       1       1
       8       1       1       8       1       1       8       1       1       8
       1       1       8       1       1       8       1       1       8       1
       1       8       1       1       8       1       1       8       1       1
       8       1       1       8       1       1       8       1       1       8
       1       1       8       1       1       8       1       1       8       1
       1       8       1       1       8       1       1       8       1       1
       8       1       1       8       1       1       8       1       1       8
       1       1       8       1       1       8       1       1       8       1
       1       8       1       1       8       1       1       8       1       1
       8       1       1       8       1       1       8       1       1       8
       1       1       8       1       1       8       1       1       8       1
       1       8       1       1       8       1       1       8       1       1
       8       1       1       8       1       1       8       1       1       8
       1       1       8       1       1       8       1       1       8       1
       1       8       1       1       8       1       1       8       1       1
       8       1       1       8       1       1       8       1       1       8
       1       1       8       1       1       8       1       1       8       1
       1       8       1       1       8       1       1       8       1       1
       8       1       1       8       1       1       8       1       1       8
       1       1       8       1       1       8       1       1       8       1
       1       8       1       1       8       1       1       8       1       1
       8       1       1       8       1       1       8       1       1       8
       1       1       8       1       1       8       1       1       8       1
       1       8       1       1       8       1       1       8       1       1
       8       1       1       8       1       1       8       1       1
%FLAG MASS                                                                      
%FORMAT(5E16.8)                                                                 
  1.20100000E+01  1.20100000E+01  1.20100000E+01  1.20100000E+01  1.20100000E+01
  1.20100000E+01  1.20100000E+01  1.20100000E+01  1.20100000E+01  1.20100000E+01
  1.20100000E+01  1.20100000E+01  1.20100000E+01  1.20100000E+01  1.20100000E+01
  1.20100000E+01  1.00800000E+00  1.00800000E+00  1.00800000E+00  1.00800000E+00
  1.00800000E+00  1.00800000E+00  1.00800000E+00  1.00800000E+00  1.00800000E+00
  1.00800000E+00  1.20100000E+01  1.00800000E+00  1.00800000E+00  1.60000000E+01
  1.20100000E+01  1.20100000E+01  1.00800000E+00  1.20100000E+01  1.20100000E+01
  1.20100000E+01  1.20100000E+01  1.20100000E+01  1.20100000E+01  1.00800000E+00
  1.40100000E+01  1.20100000E+01  1.20100000E+01  1.20100000E+01  1.20100000E+01
  1.60000000E+01  1.20100000E+01  1.20100000E+01  1.60000000E+01  1.20100000E+01
  1.20100000E+01  1.60000000E+01  1.60000000E+01  1.20100000E+01  1.60000000E+01
  1.20100000E+01  1.60000000E+01  1.20100000E+01  1.60000000E+01  1.00800000E+00
  1.00800000E+00  1.00800000E+00  1.00800000E+00  1.00800000E+00  1.00800000E+00
  1.00800000E+00  1.00800000E+00  1.00800000E+00  1.00800000E+00  1.00800000E+00
  1.00800000E+00  1.00800000E+00  1.00800000E+00  1.00800000E+00  1.00800000E+00
  1.00800000E+00  1.00800000E+00  1.00800000E+00  1.00800000E+00  1.00800000E+00
  1.00800000E+00  1.00800000E+00  1.00800000E+00  1.00800000E+00  1.60000000E+01
  1.20100000E+01  1.20100000E+01  1.00800000E+00  1.20100000E+01  1.20100000E+01
  1.20100000E+01  1.20100000E+01  1.20100000E+01  1.20100000E+01  1.00800000E+00
  1.40100000E+01  1.20100000E+01  1.20100000E+01  1.20100000E+01  1.20100000E+01
  1.60000000E+01  1.20100000E+01  1.20100000E+01  1.60000000E+01  1.20100000E+01
  1.20100000E+01  1.60000000E+01  1.60000000E+01  1.20100000E+01  1.60000000E+01
  1.20100000E+01  1.60000000E+01  1.20100000E+01  1.60000000E+01  1.00800000E+00
  1.00800000E+00  1.00800000E+00  1.00800000E+00  1.00800000E+00  1.00800000E+00
  1.00800000E+00  1.00800000E+00  1.00800000E+00  1.00800000E+00  1.00800000E+00
  1.00800000E+00  1.00800000E+00  1.00800000E+00  1.00800000E+00  1.00800000E+00
  1.00800000E+00  1.00800000E+00  1.00800000E+00  1.00800000E+00  1.00800000E+00
  1.00800000E+00  1.00800000E+00  1.00800000E+00  1.00800000E+00  1.60000000E+01
  1.20100000E+01  1.20100000E+01  1.00800000E+00  1.20100000E+01  1.20100000E+01
  1.20100000E+01  1.20100000E+01  1.20100000E+01  1.20100000E+01  1.00800000E+00
  1.40100000E+01  1.20100000E+01  1.20100000E+01  1.20100000E+01  1.20100000E+01
  1.60000000E+01  1.20100000E+01  1.20100000E+01  1.60000000E+01  1.20100000E+01
  1.20100000E+01  1.60000000E+01  1.60000000E+01  1.20100000E+01  1.60000000E+01
  1.20100000E+01  1.60000000E+01  1.20100000E+01  1.60000000E+01  1.00800000E+00
  1.00800000E+00  1.00800000E+00  1.00800000E+00  1.00800000E+00  1.00800000E+00
  1.00800000E+00  1.00800000E+00  1.00800000E+00  1.00800000E+00  1.00800000E+00
  1.00800000E+00  1.00800000E+00  1.00800000E+00  1.00800000E+00  1.00800000E+00
  1.00800000E+00  1.00800000E+00  1.00800000E+00  1.00800000E+00  1.00800000E+00
  1.00800000E+00  1.00800000E+00  1.00800000E+00  1.00800000E+00  1.60000000E+01
  1.20100000E+01  1.20100000E+01  1.00800000E+00  1.20100000E+01  1.20100000E+01
  1.20100000E+01  1.20100000E+01  1.20100000E+01  1.20100000E+01  1.00800000E+00
  1.40100000E+01  1.20100000E+01  1.20100000E+01  1.20100000E+01  1.20100000E+01
  1.60000000E+01  1.20100000E+01  1.20100000E+01  1.60000000E+01  1.20100000E+01
  1.20100000E+01  1.60000000E+01  1.60000000E+01  1.20100000E+01  1.60000000E+01
  1.20100000E+01  1.60000000E+01  1.20100000E+01  1.60000000E+01  1.00800000E+00
  1.00800000E+00  1.00800000E+00  1.00800000E+00  1.00800000E+00  1.00800000E+00
  1.00800000E+00  1.00800000E+00  1.00800000E+00  1.00800000E+00  1.00800000E+00
  1.00800000E+00  1.00800000E+00  1.00800000E+00  1.00800000E+00  1.00800000E+00
  1.00800000E+00  1.00800000E+00  1.00800000E+00  1.00800000E+00  1.00800000E+00
  1.00800000E+00  1.00800000E+00  1.00800000E+00  1.00800000E+00  1.60000000E+01
  1.20100000E+01  1.20100000E+01  1.00800000E+00  1.20100000E+01  1.20100000E+01
  1.20100000E+01  1.20100000E+01  1.20100000E+01  1.20100000E+01  1.00800000E+00
  1.40100000E+01  1.20100000E+01  1.20100000E+01  1.20100000E+01  1.20100000E+01
  1.60000000E+01  1.20100000E+01  1.20100000E+01  1.60000000E+01  1.20100000E+01
  1.20100000E+01  1.60000000E+01  1.60000000E+01  1.20100000E+01  1.60000000E+01
  1.20100000E+01  1.60000000E+01  1.20100000E+01  1.60000000E+01  1.00800000E+00
  1.00800000E+00  1.00800000E+00  1.00800000E+00  1.00800000E+00  1.00800000E+00
  1.00800000E+00  1.00800000E+00  1.00800000E+00  1.00800000E+00  1.00800000E+00
  1.00800000E+00  1.00800000E+00  1.00800000E+00  1.00800000E+00  1.00800000E+00
  1.00800000E+00  1.00800000E+00  1.00800000E+00  1.00800000E+00  1.00800000E+00
  1.00800000E+00  1.00800000E+00  1.00800000E+00  1.00800000E+00  1.60000000E+01
  1.20100000E+01  1.20100000E+01  1.00800000E+00  1.20100000E+01  1.20100000E+01
  1.20100000E+01  1.20100000E+01  1.20100000E+01  1.20100000E+01  1.00800000E+00
  1.40100000E+01  1.20100000E+01  1.20100000E+01  1.20100000E+01  1.20100000E+01
  1.60000000E+01  1.20100000E+01  1.20100000E+01  1.60000000E+01  1.20100000E+01
  1.20100000E+01  1.60000000E+01  1.60000000E+01  1.20100000E+01  1.60000000E+01
  1.20100000E+01  1.60000000E+01  1.20100000E+01  1.60000000E+01  1.00800000E+00
  1.00800000E+00  1.00800000E+00  1.00800000E+00  1.00800000E+00  1.00800000E+00
  1.00800000E+00  1.00800000E+00  1.00800000E+00  1.00800000E+00  1.00800000E+00
  1.00800000E+00  1.00800000E+00  1.00800000E+00  1.00800000E+00  1.00800000E+00
  1.00800000E+00  1.00800000E+00  1.00800000E+00  1.00800000E+00  1.00800000E+00
  1.00800000E+00  1.00800000E+00  1.00800000E+00  1.00800000E+00  1.60000000E+01
  1.20100000E+01  1.20100000E+01  1.00800000E+00  1.20100000E+01  1.20100000E+01
  1.20100000E+01  1.20100000E+01  1.20100000E+01  1.20100000E+01  1.00800000E+00
  1.40100000E+01  1.20100000E+01  1.20100000E+01  1.20100000E+01  1.20100000E+01
  1.60000000E+01  1.20100000E+01  1.20100000E+01  1.60000000E+01  1.20100000E+01
  1.20100000E+01  1.60000000E+01  1.60000000E+01  1.20100000E+01  1.60000000E+01
  1.20100000E+01  1.60000000E+01  1.20100000E+01  1.60000000E+01  1.00800000E+00
  1.00800000E+00  1.00800000E+00  1.00800000E+00  1.00800000E+00  1.00800000E+00
  1.00800000E+00  1.00800000E+00  1.00800000E+00  1.00800000E+00  1.00800000E+00
  1.00800000E+00  1.00800000E+00  1.00800000E+00  1.00800000E+00  1.00800000E+00
  1.00800000E+00  1.00800000E+00  1.00800000E+00  1.00800000E+00  1.00800000E+00
  1.00800000E+00  1.00800000E+00  1.00800000E+00  1.00800000E+00  1.60000000E+01
  1.20100000E+01  1.20100000E+01  1.00800000E+00  1.20100000E+01  1.20100000E+01
  1.20100000E+01  1.20100000E+01  1.20100000E+01  1.20100000E+01  1.00800000E+00
  1.40100000E+01  1.20100000E+01  1.20100000E+01  1.20100000E+01  1.20100000E+01
  1.60000000E+01  1.20100000E+01  1.20100000E+01  1.60000000E+01  1.20100000E+01
  1.20100000E+01  1.60000000E+01  1.60000000E+01  1.20100000E+01  1.60000000E+01
  1.20100000E+01  1.60000000E+01  1.20100000E+01  1.60000000E+01  1.00800000E+00
  1.00800000E+00  1.00800000E+00  1.00800000E+00  1.00800000E+00  1.00800000E+00
  1.00800000E+00  1.00800000E+00  1.00800000E+00  1.00800000E+00  1.00800000E+00
  1.00800000E+00  1.00800000E+00  1.00800000E+00  1.00800000E+00  1.00800000E+00
  1.00800000E+00  1.00800000E+00  1.00800000E+00  1.00800000E+00  1.00800000E+00
  1.00800000E+00  1.00800000E+00  1.00800000E+00  1.00800000E+00  1.60000000E+01
  1.20100000E+01  1.20100000E+01  1.00800000E+00  1.20100000E+01  1.20100000E+01
  1.20100000E+01  1.20100000E+01  1.20100000E+01  1.20100000E+01  1.00800000E+00
  1.40100000E+01  1.20100000E+01  1.20100000E+01  1.20100000E+01  1.20100000E+01
  1.60000000E+01  1.20100000E+01  1.20100000E+01  1.60000000E+01  1.20100000E+01
  1.20100000E+01  1.60000000E+01  1.60000000E+01  1.20100000E+01  1.60000000E+01
  1.20100000E+01  1.60000000E+01  1.20100000E+01  1.60000000E+01  1.00800000E+00
  1.00800000E+00  1.00800000E+00  1.00800000E+00  1.00800000E+00  1.00800000E+00
  1.00800000E+00  1.00800000E+00  1.00800000E+00  1.00800000E+00  1.00800000E+00
  1.00800000E+00  1.00800000E+00  1.00800000E+00  1.00800000E+00  1.00800000E+00
  1.00800000E+00  1.00800000E+00  1.00800000E+00  1.00800000E+00  1.00800000E+00
  1.00800000E+00  1.00800000E+00  1.00800000E+00  1.00800000E+00  1.60000000E+01
  1.20100000E+01  1.20100000E+01  1.00800000E+00  1.20100000E+01  1.20100000E+01
  1.20100000E+01  1.20100000E+01  1.20100000E+01  1.20100000E+01  1.00800000E+00
  1.40100000E+01  1.20100000E+01  1.20100000E+01  1.20100000E+01  1.20100000E+01
  1.60000000E+01  1.20100000E+01  1.20100000E+01  1.60000000E+01  1.20100000E+01
  1.20100000E+01  1.60000000E+01  1.60000000E+01  1.20100000E+01  1.60000000E+01
  1.20100000E+01  1.60000000E+01  1.20100000E+01  1.60000000E+01  1.00800000E+00
  1.00800000E+00  1.00800000E+00  1.00800000E+00  1.00800000E+00  1.00800000E+00
  1.00800000E+00  1.00800000E+00  1.00800000E+00  1.00800000E+00  1.00800000E+00
  1.00800000E+00  1.00800000E+00  1.00800000E+00  1.00800000E+00  1.00800000E+00
  1.00800000E+00  1.00800000E+00  1.00800000E+00  1.00800000E+00  1.00800000E+00
  1.00800000E+00  1.00800000E+00  1.00800000E+00  1.00800000E+00  1.20100000E+01
  1.00800000E+00  1.00800000E+00  1.20100000E+01  1.00800000E+00  1.00800000E+00
  1.60000000E+01  1.20100000E+01  1.20100000E+01  1.00800000E+00  1.20100000E+01
  1.20100000E+01  1.20100000E+01  1.20100000E+01  1.20100000E+01  1.20100000E+01
  1.00800000E+00  1.40100000E+01  1.20100000E+01  1.20100000E+01  1.20100000E+01
  1.20100000E+01  1.60000000E+01  1.20100000E+01  1.20100000E+01  1.60000000E+01
  1.20100000E+01  1.20100000E+01  1.60000000E+01  1.60000000E+01  1.20100000E+01
  1.60000000E+01  1.20100000E+01  1.60000000E+01  1.20100000E+01  1.60000000E+01
  1.00800000E+00  1.00800000E+00  1.00800000E+00  1.00800000E+00  1.00800000E+00
  1.00800000E+00  1.00800000E+00  1.00800000E+00  1.00800000E+00  1.00800000E+00
  1.00800000E+00  1.00800000E+00  1.00800000E+00  1.00800000E+00  1.00800000E+00
  1.00800000E+00  1.00800000E+00  1.00800000E+00  1.00800000E+00  1.00800000E+00
  1.00800000E+00  1.00800000E+00  1.00800000E+00  1.00800000E+00  1.00800000E+00
  1.60000000E+01  1.20100000E+01  1.20100000E+01  1.00800000E+00  1.20100000E+01
  1.20100000E+01  1.20100000E+01  1.20100000E+01  1.20100000E+01  1.20100000E+01
  1.00800000E+00  1.40100000E+01  1.20100000E+01  1.20100000E+01  1.20100000E+01
  1.20100000E+01  1.60000000E+01  1.20100000E+01  1.20100000E+01  1.60000000E+01
  1.20100000E+01  1.20100000E+01  1.60000000E+01  1.60000000E+01  1.20100000E+01
  1.60000000E+01  1.20100000E+01  1.60000000E+01  1.20100000E+01  1.60000000E+01
  1.00800000E+00  1.00800000E+00  1.00800000E+00  1.00800000E+00  1.00800000E+00
  1.00800000E+00  1.00800000E+00  1.00800000E+00  1.00800000E+00  1.00800000E+00
  1.00800000E+00  1.00800000E+00  1.00800000E+00  1.00800000E+00  1.00800000E+00
  1.00800000E+00  1.00800000E+00  1.00800000E+00  1.00800000E+00  1.00800000E+00
  1.00800000E+00  1.00800000E+00  1.00800000E+00  1.00800000E+00  1.00800000E+00
  1.60000000E+01  1.20100000E+01  1.20100000E+01  1.00800000E+00  1.20100000E+01
  1.20100000E+01  1.20100000E+01  1.20100000E+01  1.20100000E+01  1.20100000E+01
  1.00800000E+00  1.40100000E+01  1.20100000E+01  1.20100000E+01  1.20100000E+01
  1.20100000E+01  1.60000000E+01  1.20100000E+01  1.20100000E+01  1.60000000E+01
  1.20100000E+01  1.20100000E+01  1.60000000E+01  1.60000000E+01  1.20100000E+01
  1.60000000E+01  1.20100000E+01  1.60000000E+01  1.20100000E+01  1.60000000E+01
  1.00800000E+00  1.00800000E+00  1.00800000E+00  1.00800000E+00  1.00800000E+00
  1.00800000E+00  1.00800000E+00  1.00800000E+00  1.00800000E+00  1.00800000E+00
  1.00800000E+00  1.00800000E+00  1.00800000E+00  1.00800000E+00  1.00800000E+00
  1.00800000E+00  1.00800000E+00  1.00800000E+00  1.00800000E+00  1.00800000E+00
  1.00800000E+00  1.00800000E+00  1.00800000E+00  1.00800000E+00  1.00800000E+00
  1.60000000E+01  1.20100000E+01  1.20100000E+01  1.00800000E+00  1.20100000E+01
  1.20100000E+01  1.20100000E+01  1.20100000E+01  1.20100000E+01  1.20100000E+01
  1.00800000E+00  1.40100000E+01  1.20100000E+01  1.20100000E+01  1.20100000E+01
  1.20100000E+01  1.60000000E+01  1.20100000E+01  1.20100000E+01  1.60000000E+01
  1.20100000E+01  1.20100000E+01  1.60000000E+01  1.60000000E+01  1.20100000E+01
  1.60000000E+01  1.20100000E+01  1.60000000E+01  1.20100000E+01  1.60000000E+01
  1.00800000E+00  1.00800000E+00  1.00800000E+00  1.00800000E+00  1.00800000E+00
  1.00800000E+00  1.00800000E+00  1.00800000E+00  1.00800000E+00  1.00800000E+00
  1.00800000E+00  1.00800000E+00  1.00800000E+00  1.00800000E+00  1.00800000E+00
  1.00800000E+00  1.00800000E+00  1.00800000E+00  1.00800000E+00  1.00800000E+00
  1.00800000E+00  1.00800000E+00  1.00800000E+00  1.00800000E+00  1.00800000E+00
  1.60000000E+01  1.20100000E+01  1.20100000E+01  1.00800000E+00  1.20100000E+01
  1.20100000E+01  1.20100000E+01  1.20100000E+01  1.20100000E+01  1.20100000E+01
  1.00800000E+00  1.40100000E+01  1.20100000E+01  1.20100000E+01  1.20100000E+01
  1.20100000E+01  1.60000000E+01  1.20100000E+01  1.20100000E+01  1.60000000E+01
  1.20100000E+01  1.20100000E+01  1.60000000E+01  1.60000000E+01  1.20100000E+01
  1.60000000E+01  1.20100000E+01  1.60000000E+01  1.20100000E+01  1.60000000E+01
  1.00800000E+00  1.00800000E+00  1.00800000E+00  1.00800000E+00  1.00800000E+00
  1.00800000E+00  1.00800000E+00  1.00800000E+00  1.00800000E+00  1.00800000E+00
  1.00800000E+00  1.00800000E+00  1.00800000E+00  1.00800000E+00  1.00800000E+00
  1.00800000E+00  1.00800000E+00  1.00800000E+00  1.00800000E+00  1.00800000E+00
  1.00800000E+00  1.00800000E+00  1.00800000E+00  1.00800000E+00  1.00800000E+00
  1.60000000E+01  1.20100000E+01  1.20100000E+01  1.00800000E+00  1.20100000E+01
  1.20100000E+01  1.20100000E+01  1.20100000E+01  1.20100000E+01  1.20100000E+01
  1.00800000E+00  1.40100000E+01  1.20100000E+01  1.20100000E+01  1.20100000E+01
  1.20100000E+01  1.60000000E+01  1.20100000E+01  1.20100000E+01  1.60000000E+01
  1.20100000E+01  1.20100000E+01  1.60000000E+01  1.60000000E+01  1.20100000E+01
  1.60000000E+01  1.20100000E+01  1.60000000E+01  1.20100000E+01  1.60000000E+01
  1.00800000E+00  1.00800000E+00  1.00800000E+00  1.00800000E+00  1.00800000E+00
  1.00800000E+00  1.00800000E+00  1.00800000E+00  1.00800000E+00  1.00800000E+00
  1.00800000E+00  1.00800000E+00  1.00800000E+00  1.00800000E+00  1.00800000E+00
  1.00800000E+00  1.00800000E+00  1.00800000E+00  1.00800000E+00  1.00800000E+00
  1.00800000E+00  1.00800000E+00  1.00800000E+00  1.00800000E+00  1.00800000E+00
  1.60000000E+01  1.20100000E+01  1.20100000E+01  1.00800000E+00  1.20100000E+01
  1.20100000E+01  1.20100000E+01  1.20100000E+01  1.20100000E+01  1.20100000E+01
  1.00800000E+00  1.40100000E+01  1.20100000E+01  1.20100000E+01  1.20100000E+01
  1.20100000E+01  1.60000000E+01  1.20100000E+01  1.20100000E+01  1.60000000E+01
  1.20100000E+01  1.20100000E+01  1.60000000E+01  1.60000000E+01  1.20100000E+01
  1.60000000E+01  1.20100000E+01  1.60000000E+01  1.20100000E+01  1.60000000E+01
  1.00800000E+00  1.00800000E+00  1.00800000E+00  1.00800000E+00  1.00800000E+00
  1.00800000E+00  1.00800000E+00  1.00800000E+00  1.00800000E+00  1.00800000E+00
  1.00800000E+00  1.00800000E+00  1.00800000E+00  1.00800000E+00  1.00800000E+00
  1.00800000E+00  1.00800000E+00  1.00800000E+00  1.00800000E+00  1.00800000E+00
  1.00800000E+00  1.00800000E+00  1.00800000E+00  1.00800000E+00  1.00800000E+00
  1.60000000E+01  1.20100000E+01  1.20100000E+01  1.00800000E+00  1.20100000E+01
  1.20100000E+01  1.20100000E+01  1.20100000E+01  1.20100000E+01  1.20100000E+01
  1.00800000E+00  1.40100000E+01  1.20100000E+01  1.20100000E+01  1.20100000E+01
  1.20100000E+01  1.60000000E+01  1.20100000E+01  1.20100000E+01  1.60000000E+01
  1.20100000E+01  1.20100000E+01  1.60000000E+01  1.60000000E+01  1.20100000E+01
  1.60000000E+01  1.20100000E+01  1.60000000E+01  1.20100000E+01  1.60000000E+01
  1.00800000E+00  1.00800000E+00  1.00800000E+00  1.00800000E+00  1.00800000E+00
  1.00800000E+00  1.00800000E+00  1.00800000E+00  1.00800000E+00  1.00800000E+00
  1.00800000E+00  1.00800000E+00  1.00800000E+00  1.00800000E+00  1.00800000E+00
  1.00800000E+00  1.00800000E+00  1.00800000E+00  1.00800000E+00  1.00800000E+00
  1.00800000E+00  1.00800000E+00  1.00800000E+00  1.00800000E+00  1.00800000E+00
  1.60000000E+01  1.20100000E+01  1.20100000E+01  1.00800000E+00  1.20100000E+01
  1.20100000E+01  1.20100000E+01  1.20100000E+01  1.20100000E+01  1.20100000E+01
  1.00800000E+00  1.40100000E+01  1.20100000E+01  1.20100000E+01  1.20100000E+01
  1.20100000E+01  1.60000000E+01  1.20100000E+01  1.20100000E+01  1.60000000E+01
  1.20100000E+01  1.20100000E+01  1.60000000E+01  1.60000000E+01  1.20100000E+01
  1.60000000E+01  1.20100000E+01  1.60000000E+01  1.20100000E+01  1.60000000E+01
  1.00800000E+00  1.00800000E+00  1.00800000E+00  1.00800000E+00  1.00800000E+00
  1.00800000E+00  1.00800000E+00  1.00800000E+00  1.00800000E+00  1.00800000E+00
  1.00800000E+00  1.00800000E+00  1.00800000E+00  1.00800000E+00  1.00800000E+00
  1.00800000E+00  1.00800000E+00  1.00800000E+00  1.00800000E+00  1.00800000E+00
  1.00800000E+00  1.00800000E+00  1.00800000E+00  1.00800000E+00  1.00800000E+00
  1.60000000E+01  1.20100000E+01  1.20100000E+01  1.00800000E+00  1.20100000E+01
  1.20100000E+01  1.20100000E+01  1.20100000E+01  1.20100000E+01  1.20100000E+01
  1.00800000E+00  1.40100000E+01  1.20100000E+01  1.20100000E+01  1.20100000E+01
  1.20100000E+01  1.60000000E+01  1.20100000E+01  1.20100000E+01  1.60000000E+01
  1.20100000E+01  1.20100000E+01  1.60000000E+01  1.60000000E+01  1.20100000E+01
  1.60000000E+01  1.20100000E+01  1.60000000E+01  1.20100000E+01  1.60000000E+01
  1.00800000E+00  1.00800000E+00  1.00800000E+00  1.00800000E+00  1.00800000E+00
  1.00800000E+00  1.00800000E+00  1.00800000E+00  1.00800000E+00  1.00800000E+00
  1.00800000E+00  1.00800000E+00  1.00800000E+00  1.00800000E+00  1.00800000E+00
  1.00800000E+00  1.00800000E+00  1.00800000E+00  1.00800000E+00  1.00800000E+00
  1.00800000E+00  1.00800000E+00  1.00800000E+00  1.00800000E+00  1.00800000E+00
  1.20100000E+01  1.00800000E+00  1.00800000E+00  1.60000000E+01  1.00800000E+00
  1.00800000E+00  1.60000000E+01  1.00800000E+00  1.00800000E+00  1.60000000E+01
  1.00800000E+00  1.00800000E+00  1.60000000E+01  1.00800000E+00  1.00800000E+00
  1.60000000E+01  1.00800000E+00  1.00800000E+00  1.60000000E+01  1.00800000E+00
  1.00800000E+00  1.60000000E+01  1.00800000E+00  1.00800000E+00  1.60000000E+01
  1.00800000E+00  1.00800000E+00  1.60000000E+01  1.00800000E+00  1.00800000E+00
  1.60000000E+01  1.00800000E+00  1.00800000E+00  1.60000000E+01  1.00800000E+00
  1.00800000E+00  1.60000000E+01  1.00800000E+00  1.00800000E+00  1.60000000E+01
  1.00800000E+00  1.00800000E+00  1.60000000E+01  1.00800000E+00  1.00800000E+00
  1.60000000E+01  1.00800000E+00  1.00800000E+00  1.60000000E+01  1.00800000E+00
  1.00800000E+00  1.60000000E+01  1.00800000E+00  1.00800000E+00  1.60000000E+01
  1.00800000E+00  1.00800000E+00  1.60000000E+01  1.00800000E+00  1.00800000E+00
  1.60000000E+01  1.00800000E+00  1.00800000E+00  1.60000000E+01  1.00800000E+00
  1.00800000E+00  1.60000000E+01  1.00800000E+00  1.00800000E+00  1.60000000E+01
  1.00800000E+00  1.00800000E+00  1.60000000E+01  1.00800000E+00  1.00800000E+00
  1.60000000E+01  1.00800000E+00  1.00800000E+00  1.60000000E+01  1.00800000E+00
  1.00800000E+00  1.60000000E+01  1.00800000E+00  1.00800000E+00  1.60000000E+01
  1.00800000E+00  1.00800000E+00  1.60000000E+01  1.00800000E+00  1.00800000E+00
  1.60000000E+01  1.00800000E+00  1.00800000E+00  1.60000000E+01  1.00800000E+00
  1.00800000E+00  1.60000000E+01  1.00800000E+00  1.00800000E+00  1.60000000E+01
  1.00800000E+00  1.00800000E+00  1.60000000E+01  1.00800000E+00  1.00800000E+00
  1.60000000E+01  1.00800000E+00  1.00800000E+00  1.60000000E+01  1.00800000E+00
  1.00800000E+00  1.60000000E+01  1.00800000E+00  1.00800000E+00  1.60000000E+01
  1.00800000E+00  1.00800000E+00  1.60000000E+01  1.00800000E+00  1.00800000E+00
  1.60000000E+01  1.00800000E+00  1.00800000E+00  1.60000000E+01  1.00800000E+00
  1.00800000E+00  1.60000000E+01  1.00800000E+00  1.00800000E+00  1.60000000E+01
  1.00800000E+00  1.00800000E+00  1.60000000E+01  1.00800000E+00  1.00800000E+00
  1.60000000E+01  1.00800000E+00  1.00800000E+00  1.60000000E+01  1.00800000E+00
  1.00800000E+00  1.60000000E+01  1.00800000E+00  1.00800000E+00  1.60000000E+01
  1.00800000E+00  1.00800000E+00  1.60000000E+01  1.00800000E+00  1.00800000E+00
  1.60000000E+01  1.00800000E+00  1.00800000E+00  1.60000000E+01  1.00800000E+00
  1.00800000E+00  1.60000000E+01  1.00800000E+00  1.00800000E+00  1.60000000E+01
  1.00800000E+00  1.00800000E+00  1.60000000E+01  1.00800000E+00  1.00800000E+00
  1.60000000E+01  1.00800000E+00  1.00800000E+00  1.60000000E+01  1.00800000E+00
  1.00800000E+00  1.60000000E+01  1.00800000E+00  1.00800000E+00  1.60000000E+01
  1.00800000E+00  1.00800000E+00  1.60000000E+01  1.00800000E+00  1.00800000E+00
  1.60000000E+01  1.00800000E+00  1.00800000E+00  1.60000000E+01  1.00800000E+00
  1.00800000E+00  1.60000000E+01  1.00800000E+00  1.00800000E+00  1.60000000E+01
  1.00800000E+00  1.00800000E+00  1.60000000E+01  1.00800000E+00  1.00800000E+00
  1.60000000E+01  1.00800000E+00  1.00800000E+00  1.60000000E+01  1.00800000E+00
  1.00800000E+00  1.60000000E+01  1.00800000E+00  1.00800000E+00  1.60000000E+01
  1.00800000E+00  1.00800000E+00  1.60000000E+01  1.00800000E+00  1.00800000E+00
  1.60000000E+01  1.00800000E+00  1.00800000E+00  1.60000000E+01  1.00800000E+00
  1.00800000E+00  1.60000000E+01  1.00800000E+00  1.00800000E+00  1.60000000E+01
  1.00800000E+00  1.00800000E+00  1.60000000E+01  1.00800000E+00  1.00800000E+00
  1.60000000E+01  1.00800000E+00  1.00800000E+00  1.60000000E+01  1.00800000E+00
  1.00800000E+00  1.60000000E+01  1.00800000E+00  1.00800000E+00  1.60000000E+01
  1.00800000E+00  1.00800000E+00  1.60000000E+01  1.00800000E+00  1.00800000E+00
  1.60000000E+01  1.00800000E+00  1.00800000E+00  1.60000000E+01  1.00800000E+00
  1.00800000E+00  1.60000000E+01  1.00800000E+00  1.00800000E+00  1.60000000E+01
  1.00800000E+00  1.00800000E+00  1.60000000E+01  1.00800000E+00  1.00800000E+00
  1.60000000E+01  1.00800000E+00  1.00800000E+00  1.60000000E+01  1.00800000E+00
  1.00800000E+00  1.60000000E+01  1.00800000E+00  1.00800000E+00  1.60000000E+01
  1.00800000E+00  1.00800000E+00  1.60000000E+01  1.00800000E+00  1.00800000E+00
  1.60000000E+01  1.00800000E+00  1.00800000E+00  1.60000000E+01  1.00800000E+00
  1.00800000E+00  1.60000000E+01  1.00800000E+00  1.00800000E+00  1.60000000E+01
  1.00800000E+00  1.00800000E+00  1.60000000E+01  1.00800000E+00  1.00800000E+00
  1.60000000E+01  1.00800000E+00  1.00800000E+00  1.60000000E+01  1.00800000E+00
  1.00800000E+00  1.60000000E+01  1.00800000E+00  1.00800000E+00  1.60000000E+01
  1.00800000E+00  1.00800000E+00  1.60000000E+01  1.00800000E+00  1.00800000E+00
  1.60000000E+01  1.00800000E+00  1.00800000E+00  1.60000000E+01  1.00800000E+00
  1.00800000E+00  1.60000000E+01  1.00800000E+00  1.00800000E+00  1.60000000E+01
  1.00800000E+00  1.00800000E+00  1.60000000E+01  1.00800000E+00  1.00800000E+00
  1.60000000E+01  1.00800000E+00  1.00800000E+00  1.60000000E+01  1.00800000E+00
  1.00800000E+00  1.60000000E+01  1.00800000E+00  1.00800000E+00  1.60000000E+01
  1.00800000E+00  1.00800000E+00  1.60000000E+01  1.00800000E+00  1.00800000E+00
  1.60000000E+01  1.00800000E+00  1.00800000E+00  1.60000000E+01  1.00800000E+00
  1.00800000E+00  1.60000000E+01  1.00800000E+00  1.00800000E+00  1.60000000E+01
  1.00800000E+00  1.00800000E+00  1.60000000E+01  1.00800000E+00  1.00800000E+00
  1.60000000E+01  1.00800000E+00  1.00800000E+00  1.60000000E+01  1.00800000E+00
  1.00800000E+00  1.60000000E+01  1.00800000E+00  1.00800000E+00  1.60000000E+01
  1.00800000E+00  1.00800000E+00  1.60000000E+01  1.00800000E+00  1.00800000E+00
  1.60000000E+01  1.00800000E+00  1.00800000E+00  1.60000000E+01  1.00800000E+00
  1.00800000E+00  1.60000000E+01  1.00800000E+00  1.00800000E+00  1.60000000E+01
  1.00800000E+00  1.00800000E+00  1.60000000E+01  1.00800000E+00  1.00800000E+00
  1.60000000E+01  1.00800000E+00  1.00800000E+00  1.60000000E+01  1.00800000E+00
  1.00800000E+00  1.60000000E+01  1.00800000E+00  1.00800000E+00  1.60000000E+01
  1.00800000E+00  1.00800000E+00  1.60000000E+01  1.00800000E+00  1.00800000E+00
  1.60000000E+01  1.00800000E+00  1.00800000E+00  1.60000000E+01  1.00800000E+00
  1.00800000E+00  1.60000000E+01  1.00800000E+00  1.00800000E+00  1.60000000E+01
  1.00800000E+00  1.00800000E+00  1.60000000E+01  1.00800000E+00  1.00800000E+00
  1.60000000E+01  1.00800000E+00  1.00800000E+00  1.60000000E+01  1.00800000E+00
  1.00800000E+00  1.60000000E+01  1.00800000E+00  1.00800000E+00  1.60000000E+01
  1.00800000E+00  1.00800000E+00  1.60000000E+01  1.00800000E+00  1.00800000E+00
  1.60000000E+01  1.00800000E+00  1.00800000E+00  1.60000000E+01  1.00800000E+00
  1.00800000E+00  1.60000000E+01  1.00800000E+00  1.00800000E+00  1.60000000E+01
  1.00800000E+00  1.00800000E+00  1.60000000E+01  1.00800000E+00  1.00800000E+00
  1.60000000E+01  1.00800000E+00  1.00800000E+00  1.60000000E+01  1.00800000E+00
  1.00800000E+00  1.60000000E+01  1.00800000E+00  1.00800000E+00  1.60000000E+01
  1.00800000E+00  1.00800000E+00  1.60000000E+01  1.00800000E+00  1.00800000E+00
  1.60000000E+01  1.00800000E+00  1.00800000E+00  1.60000000E+01  1.00800000E+00
  1.00800000E+00  1.60000000E+01  1.00800000E+00  1.00800000E+00  1.60000000E+01
  1.00800000E+00  1.00800000E+00  1.60000000E+01  1.00800000E+00  1.00800000E+00
  1.60000000E+01  1.00800000E+00  1.00800000E+00  1.60000000E+01  1.00800000E+00
  1.00800000E+00  1.60000000E+01  1.00800000E+00  1.00800000E+00  1.60000000E+01
  1.00800000E+00  1.00800000E+00  1.60000000E+01  1.00800000E+00  1.00800000E+00
  1.60000000E+01  1.00800000E+00  1.00800000E+00  1.60000000E+01  1.00800000E+00
  1.00800000E+00  1.60000000E+01  1.00800000E+00  1.00800000E+00  1.60000000E+01
  1.00800000E+00  1.00800000E+00  1.60000000E+01  1.00800000E+00  1.00800000E+00
  1.60000000E+01  1.00800000E+00  1.00800000E+00  1.60000000E+01  1.00800000E+00
  1.00800000E+00  1.60000000E+01  1.00800000E+00  1.00800000E+00  1.60000000E+01
  1.00800000E+00  1.00800000E+00  1.60000000E+01  1.00800000E+00  1.00800000E+00
  1.60000000E+01  1.00800000E+00  1.00800000E+00  1.60000000E+01  1.00800000E+00
  1.00800000E+00  1.60000000E+01  1.00800000E+00  1.00800000E+00  1.60000000E+01
  1.00800000E+00  1.00800000E+00  1.60000000E+01  1.00800000E+00  1.00800000E+00
  1.60000000E+01  1.00800000E+00  1.00800000E+00  1.60000000E+01  1.00800000E+00
  1.00800000E+00  1.60000000E+01  1.00800000E+00  1.00800000E+00  1.60000000E+01
  1.00800000E+00  1.00800000E+00  1.60000000E+01  1.00800000E+00  1.00800000E+00
  1.60000000E+01  1.00800000E+00  1.00800000E+00  1.60000000E+01  1.00800000E+00
  1.00800000E+00  1.60000000E+01  1.00800000E+00  1.00800000E+00  1.60000000E+01
  1.00800000E+00  1.00800000E+00  1.60000000E+01  1.00800000E+00  1.00800000E+00
  1.60000000E+01  1.00800000E+00  1.00800000E+00  1.60000000E+01  1.00800000E+00
  1.00800000E+00  1.60000000E+01  1.00800000E+00  1.00800000E+00  1.60000000E+01
  1.00800000E+00  1.00800000E+00  1.60000000E+01  1.00800000E+00  1.00800000E+00
  1.60000000E+01  1.00800000E+00  1.00800000E+00  1.60000000E+01  1.00800000E+00
  1.00800000E+00  1.60000000E+01  1.00800000E+00  1.00800000E+00  1.60000000E+01
  1.00800000E+00  1.00800000E+00  1.60000000E+01  1.00800000E+00  1.00800000E+00
  1.60000000E+01  1.00800000E+00  1.00800000E+00  1.60000000E+01  1.00800000E+00
  1.00800000E+00  1.60000000E+01  1.00800000E+00  1.00800000E+00  1.60000000E+01
  1.00800000E+00  1.00800000E+00  1.60000000E+01  1.00800000E+00  1.00800000E+00
  1.60000000E+01  1.00800000E+00  1.00800000E+00  1.60000000E+01  1.00800000E+00
  1.00800000E+00  1.60000000E+01  1.00800000E+00  1.00800000E+00  1.60000000E+01
  1.00800000E+00  1.00800000E+00  1.60000000E+01  1.00800000E+00  1.00800000E+00
  1.60000000E+01  1.00800000E+00  1.00800000E+00  1.60000000E+01  1.00800000E+00
  1.00800000E+00  1.60000000E+01  1.00800000E+00  1.00800000E+00  1.60000000E+01
  1.00800000E+00  1.00800000E+00  1.60000000E+01  1.00800000E+00  1.00800000E+00
  1.60000000E+01  1.00800000E+00  1.00800000E+00  1.60000000E+01  1.00800000E+00
  1.00800000E+00  1.60000000E+01  1.00800000E+00  1.00800000E+00  1.60000000E+01
  1.00800000E+00  1.00800000E+00  1.60000000E+01  1.00800000E+00  1.00800000E+00
  1.60000000E+01  1.00800000E+00  1.00800000E+00  1.60000000E+01  1.00800000E+00
  1.00800000E+00  1.60000000E+01  1.00800000E+00  1.00800000E+00  1.60000000E+01
  1.00800000E+00  1.00800000E+00  1.60000000E+01  1.00800000E+00  1.00800000E+00
  1.60000000E+01  1.00800000E+00  1.00800000E+00  1.60000000E+01  1.00800000E+00
  1.00800000E+00  1.60000000E+01  1.00800000E+00  1.00800000E+00  1.60000000E+01
  1.00800000E+00  1.00800000E+00  1.60000000E+01  1.00800000E+00  1.00800000E+00
  1.60000000E+01  1.00800000E+00  1.00800000E+00  1.60000000E+01  1.00800000E+00
  1.00800000E+00  1.60000000E+01  1.00800000E+00  1.00800000E+00  1.60000000E+01
  1.00800000E+00  1.00800000E+00  1.60000000E+01  1.00800000E+00  1.00800000E+00
  1.60000000E+01  1.00800000E+00  1.00800000E+00  1.60000000E+01  1.00800000E+00
  1.00800000E+00  1.60000000E+01  1.00800000E+00  1.00800000E+00  1.60000000E+01
  1.00800000E+00  1.00800000E+00  1.60000000E+01  1.00800000E+00  1.00800000E+00
  1.60000000E+01  1.00800000E+00  1.00800000E+00  1.60000000E+01  1.00800000E+00
  1.00800000E+00  1.60000000E+01  1.00800000E+00  1.00800000E+00  1.60000000E+01
  1.00800000E+00  1.00800000E+00  1.60000000E+01  1.00800000E+00  1.00800000E+00
  1.60000000E+01  1.00800000E+00  1.00800000E+00  1.60000000E+01  1.00800000E+00
  1.00800000E+00  1.60000000E+01  1.00800000E+00  1.00800000E+00  1.60000000E+01
  1.00800000E+00  1.00800000E+00  1.60000000E+01  1.00800000E+00  1.00800000E+00
  1.60000000E+01  1.00800000E+00  1.00800000E+00  1.60000000E+01  1.00800000E+00
  1.00800000E+00  1.60000000E+01  1.00800000E+00  1.00800000E+00  1.60000000E+01
  1.00800000E+00  1.00800000E+00  1.60000000E+01  1.00800000E+00  1.00800000E+00
  1.60000000E+01  1.00800000E+00  1.00800000E+00  1.60000000E+01  1.00800000E+00
  1.00800000E+00  1.60000000E+01  1.00800000E+00  1.00800000E+00  1.60000000E+01
  1.00800000E+00  1.00800000E+00  1.60000000E+01  1.00800000E+00  1.00800000E+00
  1.60000000E+01  1.00800000E+00  1.00800000E+00  1.60000000E+01  1.00800000E+00
  1.00800000E+00  1.60000000E+01  1.00800000E+00  1.00800000E+00  1.60000000E+01
  1.00800000E+00  1.00800000E+00  1.60000000E+01  1.00800000E+00  1.00800000E+00
  1.60000000E+01  1.00800000E+00  1.00800000E+00  1.60000000E+01  1.00800000E+00
  1.00800000E+00  1.60000000E+01  1.00800000E+00  1.00800000E+00  1.60000000E+01
  1.00800000E+00  1.00800000E+00  1.60000000E+01  1.00800000E+00  1.00800000E+00
  1.60000000E+01  1.00800000E+00  1.00800000E+00  1.60000000E+01  1.00800000E+00
  1.00800000E+00  1.60000000E+01  1.00800000E+00  1.00800000E+00  1.60000000E+01
  1.00800000E+00  1.00800000E+00  1.60000000E+01  1.00800000E+00  1.00800000E+00
  1.60000000E+01  1.00800000E+00  1.00800000E+00  1.60000000E+01  1.00800000E+00
  1.00800000E+00  1.60000000E+01  1.00800000E+00  1.00800000E+00  1.60000000E+01
  1.00800000E+00  1.00800000E+00  1.60000000E+01  1.00800000E+00  1.00800000E+00
  1.60000000E+01  1.00800000E+00  1.00800000E+00  1.60000000E+01  1.00800000E+00
  1.00800000E+00  1.60000000E+01  1.00800000E+00  1.00800000E+00  1.60000000E+01
  1.00800000E+00  1.00800000E+00  1.60000000E+01  1.00800000E+00  1.00800000E+00
  1.60000000E+01  1.00800000E+00  1.00800000E+00  1.60000000E+01  1.00800000E+00
  1.00800000E+00  1.60000000E+01  1.00800000E+00  1.00800000E+00  1.60000000E+01
  1.00800000E+00  1.00800000E+00  1.60000000E+01  1.00800000E+00  1.00800000E+00
  1.60000000E+01  1.00800000E+00  1.00800000E+00  1.60000000E+01  1.00800000E+00
  1.00800000E+00  1.60000000E+01  1.00800000E+00  1.00800000E+00  1.60000000E+01
  1.00800000E+00  1.00800000E+00  1.60000000E+01  1.00800000E+00  1.00800000E+00
  1.60000000E+01  1.00800000E+00  1.00800000E+00  1.60000000E+01  1.00800000E+00
  1.00800000E+00  1.60000000E+01  1.00800000E+00  1.00800000E+00  1.60000000E+01
  1.00800000E+00  1.00800000E+00  1.60000000E+01  1.00800000E+00  1.00800000E+00
  1.60000000E+01  1.00800000E+00  1.00800000E+00  1.60000000E+01  1.00800000E+00
  1.00800000E+00  1.60000000E+01  1.00800000E+00  1.00800000E+00  1.60000000E+01
  1.00800000E+00  1.00800000E+00  1.60000000E+01  1.00800000E+00  1.00800000E+00
  1.60000000E+01  1.00800000E+00  1.00800000E+00  1.60000000E+01  1.00800000E+00
  1.00800000E+00  1.60000000E+01  1.00800000E+00  1.00800000E+00  1.60000000E+01
  1.00800000E+00  1.00800000E+00  1.60000000E+01  1.00800000E+00  1.00800000E+00
  1.60000000E+01  1.00800000E+00  1.00800000E+00  1.60000000E+01  1.00800000E+00
  1.00800000E+00  1.60000000E+01  1.00800000E+00  1.00800000E+00  1.60000000E+01
  1.00800000E+00  1.00800000E+00  1.60000000E+01  1.00800000E+00  1.00800000E+00
  1.60000000E+01  1.00800000E+00  1.00800000E+00  1.60000000E+01  1.00800000E+00
  1.00800000E+00  1.60000000E+01  1.00800000E+00  1.00800000E+00  1.60000000E+01
  1.00800000E+00  1.00800000E+00  1.60000000E+01  1.00800000E+00  1.00800000E+00
  1.60000000E+01  1.00800000E+00  1.00800000E+00  1.60000000E+01  1.00800000E+00
  1.00800000E+00  1.60000000E+01  1.00800000E+00  1.00800000E+00  1.60000000E+01
  1.00800000E+00  1.00800000E+00  1.60000000E+01  1.00800000E+00  1.00800000E+00
  1.60000000E+01  1.00800000E+00  1.00800000E+00  1.60000000E+01  1.00800000E+00
  1.00800000E+00  1.60000000E+01  1.00800000E+00  1.00800000E+00  1.60000000E+01
  1.00800000E+00  1.00800000E+00  1.60000000E+01  1.00800000E+00  1.00800000E+00
  1.60000000E+01  1.00800000E+00  1.00800000E+00  1.60000000E+01  1.00800000E+00
  1.00800000E+00  1.60000000E+01  1.00800000E+00  1.00800000E+00  1.60000000E+01
  1.00800000E+00  1.00800000E+00  1.60000000E+01  1.00800000E+00  1.00800000E+00
  1.60000000E+01  1.00800000E+00  1.00800000E+00  1.60000000E+01  1.00800000E+00
  1.00800000E+00  1.60000000E+01  1.00800000E+00  1.00800000E+00  1.60000000E+01
  1.00800000E+00  1.00800000E+00  1.60000000E+01  1.00800000E+00  1.00800000E+00
  1.60000000E+01  1.00800000E+00  1.00800000E+00  1.60000000E+01  1.00800000E+00
  1.00800000E+00  1.60000000E+01  1.00800000E+00  1.00800000E+00  1.60000000E+01
  1.00800000E+00  1.00800000E+00  1.60000000E+01  1.00800000E+00  1.00800000E+00
  1.60000000E+01  1.00800000E+00  1.00800000E+00  1.60000000E+01  1.00800000E+00
  1.00800000E+00  1.60000000E+01  1.00800000E+00  1.00800000E+00  1.60000000E+01
  1.00800000E+00  1.00800000E+00  1.60000000E+01  1.00800000E+00  1.00800000E+00
  1.60000000E+01  1.00800000E+00  1.00800000E+00  1.60000000E+01  1.00800000E+00
  1.00800000E+00  1.60000000E+01  1.00800000E+00  1.00800000E+00  1.60000000E+01
  1.00800000E+00  1.00800000E+00  1.60000000E+01  1.00800000E+00  1.00800000E+00
  1.60000000E+01  1.00800000E+00  1.00800000E+00  1.60000000E+01  1.00800000E+00
  1.00800000E+00  1.60000000E+01  1.00800000E+00  1.00800000E+00  1.60000000E+01
  1.00800000E+00  1.00800000E+00  1.60000000E+01  1.00800000E+00  1.00800000E+00
  1.60000000E+01  1.00800000E+00  1.00800000E+00  1.60000000E+01  1.00800000E+00
  1.00800000E+00  1.60000000E+01  1.00800000E+00  1.00800000E+00  1.60000000E+01
  1.00800000E+00  1.00800000E+00  1.60000000E+01  1.00800000E+00  1.00800000E+00
  1.60000000E+01  1.00800000E+00  1.00800000E+00  1.60000000E+01  1.00800000E+00
  1.00800000E+00  1.60000000E+01  1.00800000E+00  1.00800000E+00  1.60000000E+01
  1.00800000E+00  1.00800000E+00  1.60000000E+01  1.00800000E+00  1.00800000E+00
  1.60000000E+01  1.00800000E+00  1.00800000E+00  1.60000000E+01  1.00800000E+00
  1.00800000E+00  1.60000000E+01  1.00800000E+00  1.00800000E+00  1.60000000E+01
  1.00800000E+00  1.00800000E+00  1.60000000E+01  1.00800000E+00  1.00800000E+00
  1.60000000E+01  1.00800000E+00  1.00800000E+00  1.60000000E+01  1.00800000E+00
  1.00800000E+00  1.60000000E+01  1.00800000E+00  1.00800000E+00  1.60000000E+01
  1.00800000E+00  1.00800000E+00  1.60000000E+01  1.00800000E+00  1.00800000E+00
  1.60000000E+01  1.00800000E+00  1.00800000E+00  1.60000000E+01  1.00800000E+00
  1.00800000E+00  1.60000000E+01  1.00800000E+00  1.00800000E+00  1.60000000E+01
  1.00800000E+00  1.00800000E+00  1.60000000E+01  1.00800000E+00  1.00800000E+00
  1.60000000E+01  1.00800000E+00  1.00800000E+00  1.60000000E+01  1.00800000E+00
  1.00800000E+00  1.60000000E+01  1.00800000E+00  1.00800000E+00  1.60000000E+01
  1.00800000E+00  1.00800000E+00  1.60000000E+01  1.00800000E+00  1.00800000E+00
  1.60000000E+01  1.00800000E+00  1.00800000E+00  1.60000000E+01  1.00800000E+00
  1.00800000E+00  1.60000000E+01  1.00800000E+00  1.00800000E+00  1.60000000E+01
  1.00800000E+00  1.00800000E+00  1.60000000E+01  1.00800000E+00  1.00800000E+00
  1.60000000E+01  1.00800000E+00  1.00800000E+00  1.60000000E+01  1.00800000E+00
  1.00800000E+00  1.60000000E+01  1.00800000E+00  1.00800000E+00  1.60000000E+01
  1.00800000E+00  1.00800000E+00  1.60000000E+01  1.00800000E+00  1.00800000E+00
  1.60000000E+01  1.00800000E+00  1.00800000E+00  1.60000000E+01  1.00800000E+00
  1.00800000E+00  1.60000000E+01  1.00800000E+00  1.00800000E+00  1.60000000E+01
  1.00800000E+00  1.00800000E+00  1.60000000E+01  1.00800000E+00  1.00800000E+00
  1.60000000E+01  1.00800000E+00  1.00800000E+00  1.60000000E+01  1.00800000E+00
  1.00800000E+00  1.60000000E+01  1.00800000E+00  1.00800000E+00  1.60000000E+01
  1.00800000E+00  1.00800000E+00  1.60000000E+01  1.00800000E+00  1.00800000E+00
  1.60000000E+01  1.00800000E+00  1.00800000E+00  1.60000000E+01  1.00800000E+00
  1.00800000E+00  1.60000000E+01  1.00800000E+00  1.00800000E+00  1.60000000E+01
  1.00800000E+00  1.00800000E+00  1.60000000E+01  1.00800000E+00  1.00800000E+00
  1.60000000E+01  1.00800000E+00  1.00800000E+00  1.60000000E+01  1.00800000E+00
  1.00800000E+00  1.60000000E+01  1.00800000E+00  1.00800000E+00  1.60000000E+01
  1.00800000E+00  1.00800000E+00  1.60000000E+01  1.00800000E+00  1.00800000E+00
  1.60000000E+01  1.00800000E+00  1.00800000E+00  1.60000000E+01  1.00800000E+00
  1.00800000E+00  1.60000000E+01  1.00800000E+00  1.00800000E+00  1.60000000E+01
  1.00800000E+00  1.00800000E+00  1.60000000E+01  1.00800000E+00  1.00800000E+00
  1.60000000E+01  1.00800000E+00  1.00800000E+00  1.60000000E+01  1.00800000E+00
  1.00800000E+00  1.60000000E+01  1.00800000E+00  1.00800000E+00  1.60000000E+01
  1.00800000E+00  1.00800000E+00  1.60000000E+01  1.00800000E+00  1.00800000E+00
  1.60000000E+01  1.00800000E+00  1.00800000E+00  1.60000000E+01  1.00800000E+00
  1.00800000E+00  1.60000000E+01  1.00800000E+00  1.00800000E+00  1.60000000E+01
  1.00800000E+00  1.00800000E+00  1.60000000E+01  1.00800000E+00  1.00800000E+00
  1.60000000E+01  1.00800000E+00  1.00800000E+00  1.60000000E+01  1.00800000E+00
  1.00800000E+00  1.60000000E+01  1.00800000E+00  1.00800000E+00  1.60000000E+01
  1.00800000E+00  1.00800000E+00  1.60000000E+01  1.00800000E+00  1.00800000E+00
  1.60000000E+01  1.00800000E+00  1.00800000E+00  1.60000000E+01  1.00800000E+00
  1.00800000E+00  1.60000000E+01  1.00800000E+00  1.00800000E+00  1.60000000E+01
  1.00800000E+00  1.00800000E+00  1.60000000E+01  1.00800000E+00  1.00800000E+00
  1.60000000E+01  1.00800000E+00  1.00800000E+00  1.60000000E+01  1.00800000E+00
  1.00800000E+00  1.60000000E+01  1.00800000E+00  1.00800000E+00  1.60000000E+01
  1.00800000E+00  1.00800000E+00  1.60000000E+01  1.00800000E+00  1.00800000E+00
  1.60000000E+01  1.00800000E+00  1.00800000E+00  1.60000000E+01  1.00800000E+00
  1.00800000E+00  1.60000000E+01  1.00800000E+00  1.00800000E+00  1.60000000E+01
  1.00800000E+00  1.00800000E+00  1.60000000E+01  1.00800000E+00  1.00800000E+00
  1.60000000E+01  1.00800000E+00  1.00800000E+00  1.60000000E+01  1.00800000E+00
  1.00800000E+00  1.60000000E+01  1.00800000E+00  1.00800000E+00  1.60000000E+01
  1.00800000E+00  1.00800000E+00  1.60000000E+01  1.00800000E+00  1.00800000E+00
  1.60000000E+01  1.00800000E+00  1.00800000E+00  1.60000000E+01  1.00800000E+00
  1.00800000E+00  1.60000000E+01  1.00800000E+00  1.00800000E+00  1.60000000E+01
  1.00800000E+00  1.00800000E+00  1.60000000E+01  1.00800000E+00  1.00800000E+00
  1.60000000E+01  1.00800000E+00  1.00800000E+00  1.60000000E+01  1.00800000E+00
  1.00800000E+00  1.60000000E+01  1.00800000E+00  1.00800000E+00  1.60000000E+01
  1.00800000E+00  1.00800000E+00  1.60000000E+01  1.00800000E+00  1.00800000E+00
  1.60000000E+01  1.00800000E+00  1.00800000E+00  1.60000000E+01  1.00800000E+00
  1.00800000E+00  1.60000000E+01  1.00800000E+00  1.00800000E+00  1.60000000E+01
  1.00800000E+00  1.00800000E+00  1.60000000E+01  1.00800000E+00  1.00800000E+00
  1.60000000E+01  1.00800000E+00  1.00800000E+00  1.60000000E+01  1.00800000E+00
  1.00800000E+00  1.60000000E+01  1.00800000E+00  1.00800000E+00  1.60000000E+01
  1.00800000E+00  1.00800000E+00  1.60000000E+01  1.00800000E+00  1.00800000E+00
  1.60000000E+01  1.00800000E+00  1.00800000E+00  1.60000000E+01  1.00800000E+00
  1.00800000E+00  1.60000000E+01  1.00800000E+00  1.00800000E+00  1.60000000E+01
  1.00800000E+00  1.00800000E+00  1.60000000E+01  1.00800000E+00  1.00800000E+00
  1.60000000E+01  1.00800000E+00  1.00800000E+00  1.60000000E+01  1.00800000E+00
  1.00800000E+00  1.60000000E+01  1.00800000E+00  1.00800000E+00  1.60000000E+01
  1.00800000E+00  1.00800000E+00  1.60000000E+01  1.00800000E+00  1.00800000E+00
  1.60000000E+01  1.00800000E+00  1.00800000E+00  1.60000000E+01  1.00800000E+00
  1.00800000E+00  1.60000000E+01  1.00800000E+00  1.00800000E+00  1.60000000E+01
  1.00800000E+00  1.00800000E+00  1.60000000E+01  1.00800000E+00  1.00800000E+00
  1.60000000E+01  1.00800000E+00  1.00800000E+00  1.60000000E+01  1.00800000E+00
  1.00800000E+00  1.60000000E+01  1.00800000E+00  1.00800000E+00  1.60000000E+01
  1.00800000E+00  1.00800000E+00  1.60000000E+01  1.00800000E+00  1.00800000E+00
  1.60000000E+01  1.00800000E+00  1.00800000E+00  1.60000000E+01  1.00800000E+00
  1.00800000E+00  1.60000000E+01  1.00800000E+00  1.00800000E+00  1.60000000E+01
  1.00800000E+00  1.00800000E+00  1.60000000E+01  1.00800000E+00  1.00800000E+00
  1.60000000E+01  1.00800000E+00  1.00800000E+00  1.60000000E+01  1.00800000E+00
  1.00800000E+00  1.60000000E+01  1.00800000E+00  1.00800000E+00  1.60000000E+01
  1.00800000E+00  1.00800000E+00  1.60000000E+01  1.00800000E+00  1.00800000E+00
  1.60000000E+01  1.00800000E+00  1.00800000E+00  1.60000000E+01  1.00800000E+00
  1.00800000E+00  1.60000000E+01  1.00800000E+00  1.00800000E+00  1.60000000E+01
  1.00800000E+00  1.00800000E+00  1.60000000E+01  1.00800000E+00  1.00800000E+00
  1.60000000E+01  1.00800000E+00  1.00800000E+00  1.60000000E+01  1.00800000E+00
  1.00800000E+00  1.60000000E+01  1.00800000E+00  1.00800000E+00  1.60000000E+01
  1.00800000E+00  1.00800000E+00  1.60000000E+01  1.00800000E+00  1.00800000E+00
  1.60000000E+01  1.00800000E+00  1.00800000E+00  1.60000000E+01  1.00800000E+00
  1.00800000E+00  1.60000000E+01  1.00800000E+00  1.00800000E+00  1.60000000E+01
  1.00800000E+00  1.00800000E+00  1.60000000E+01  1.00800000E+00  1.00800000E+00
  1.60000000E+01  1.00800000E+00  1.00800000E+00  1.60000000E+01  1.00800000E+00
  1.00800000E+00  1.60000000E+01  1.00800000E+00  1.00800000E+00  1.60000000E+01
  1.00800000E+00  1.00800000E+00  1.60000000E+01  1.00800000E+00  1.00800000E+00
  1.60000000E+01  1.00800000E+00  1.00800000E+00  1.60000000E+01  1.00800000E+00
  1.00800000E+00  1.60000000E+01  1.00800000E+00  1.00800000E+00  1.60000000E+01
  1.00800000E+00  1.00800000E+00  1.60000000E+01  1.00800000E+00  1.00800000E+00
  1.60000000E+01  1.00800000E+00  1.00800000E+00  1.60000000E+01  1.00800000E+00
  1.00800000E+00  1.60000000E+01  1.00800000E+00  1.00800000E+00  1.60000000E+01
  1.00800000E+00  1.00800000E+00  1.60000000E+01  1.00800000E+00  1.00800000E+00
  1.60000000E+01  1.00800000E+00  1.00800000E+00  1.60000000E+01  1.00800000E+00
  1.00800000E+00  1.60000000E+01  1.00800000E+00  1.00800000E+00  1.60000000E+01
  1.00800000E+00  1.00800000E+00  1.60000000E+01  1.00800000E+00  1.00800000E+00
  1.60000000E+01  1.00800000E+00  1.00800000E+00  1.60000000E+01  1.00800000E+00
  1.00800000E+00  1.60000000E+01  1.00800000E+00  1.00800000E+00  1.60000000E+01
  1.00800000E+00  1.00800000E+00  1.60000000E+01  1.00800000E+00  1.00800000E+00
  1.60000000E+01  1.00800000E+00  1.00800000E+00  1.60000000E+01  1.00800000E+00
  1.00800000E+00  1.60000000E+01  1.00800000E+00  1.00800000E+00  1.60000000E+01
  1.00800000E+00  1.00800000E+00  1.60000000E+01  1.00800000E+00  1.00800000E+00
  1.60000000E+01  1.00800000E+00  1.00800000E+00  1.60000000E+01  1.00800000E+00
  1.00800000E+00  1.60000000E+01  1.00800000E+00  1.00800000E+00  1.60000000E+01
  1.00800000E+00  1.00800000E+00  1.60000000E+01  1.00800000E+00  1.00800000E+00
  1.60000000E+01  1.00800000E+00  1.00800000E+00  1.60000000E+01  1.00800000E+00
  1.00800000E+00  1.60000000E+01  1.00800000E+00  1.00800000E+00  1.60000000E+01
  1.00800000E+00  1.00800000E+00  1.60000000E+01  1.00800000E+00  1.00800000E+00
  1.60000000E+01  1.00800000E+00  1.00800000E+00  1.60000000E+01  1.00800000E+00
  1.00800000E+00  1.60000000E+01  1.00800000E+00  1.00800000E+00  1.60000000E+01
  1.00800000E+00  1.00800000E+00  1.60000000E+01  1.00800000E+00  1.00800000E+00
  1.60000000E+01  1.00800000E+00  1.00800000E+00  1.60000000E+01  1.00800000E+00
  1.00800000E+00  1.60000000E+01  1.00800000E+00  1.00800000E+00  1.60000000E+01
  1.00800000E+00  1.00800000E+00  1.60000000E+01  1.00800000E+00  1.00800000E+00
  1.60000000E+01  1.00800000E+00  1.00800000E+00  1.60000000E+01  1.00800000E+00
  1.00800000E+00  1.60000000E+01  1.00800000E+00  1.00800000E+00  1.60000000E+01
  1.00800000E+00  1.00800000E+00  1.60000000E+01  1.00800000E+00  1.00800000E+00
  1.60000000E+01  1.00800000E+00  1.00800000E+00  1.60000000E+01  1.00800000E+00
  1.00800000E+00  1.60000000E+01  1.00800000E+00  1.00800000E+00  1.60000000E+01
  1.00800000E+00  1.00800000E+00  1.60000000E+01  1.00800000E+00  1.00800000E+00
  1.60000000E+01  1.00800000E+00  1.00800000E+00  1.60000000E+01  1.00800000E+00
  1.00800000E+00  1.60000000E+01  1.00800000E+00  1.00800000E+00  1.60000000E+01
  1.00800000E+00  1.00800000E+00  1.60000000E+01  1.00800000E+00  1.00800000E+00
  1.60000000E+01  1.00800000E+00  1.00800000E+00  1.60000000E+01  1.00800000E+00
  1.00800000E+00  1.60000000E+01  1.00800000E+00  1.00800000E+00  1.60000000E+01
  1.00800000E+00  1.00800000E+00  1.60000000E+01  1.00800000E+00  1.00800000E+00
  1.60000000E+01  1.00800000E+00  1.00800000E+00  1.60000000E+01  1.00800000E+00
  1.00800000E+00  1.60000000E+01  1.00800000E+00  1.00800000E+00  1.60000000E+01
  1.00800000E+00  1.00800000E+00  1.60000000E+01  1.00800000E+00  1.00800000E+00
  1.60000000E+01  1.00800000E+00  1.00800000E+00  1.60000000E+01  1.00800000E+00
  1.00800000E+00  1.60000000E+01  1.00800000E+00  1.00800000E+00  1.60000000E+01
  1.00800000E+00  1.00800000E+00  1.60000000E+01  1.00800000E+00  1.00800000E+00
  1.60000000E+01  1.00800000E+00  1.00800000E+00  1.60000000E+01  1.00800000E+00
  1.00800000E+00  1.60000000E+01  1.00800000E+00  1.00800000E+00  1.60000000E+01
  1.00800000E+00  1.00800000E+00  1.60000000E+01  1.00800000E+00  1.00800000E+00
  1.60000000E+01  1.00800000E+00  1.00800000E+00  1.60000000E+01  1.00800000E+00
  1.00800000E+00  1.60000000E+01  1.00800000E+00  1.00800000E+00  1.60000000E+01
  1.00800000E+00  1.00800000E+00  1.60000000E+01  1.00800000E+00  1.00800000E+00
  1.60000000E+01  1.00800000E+00  1.00800000E+00  1.60000000E+01  1.00800000E+00
  1.00800000E+00  1.60000000E+01  1.00800000E+00  1.00800000E+00  1.60000000E+01
  1.00800000E+00  1.00800000E+00  1.60000000E+01  1.00800000E+00  1.00800000E+00
  1.60000000E+01  1.00800000E+00  1.00800000E+00  1.60000000E+01  1.00800000E+00
  1.00800000E+00  1.60000000E+01  1.00800000E+00  1.00800000E+00  1.60000000E+01
  1.00800000E+00  1.00800000E+00  1.60000000E+01  1.00800000E+00  1.00800000E+00
  1.60000000E+01  1.00800000E+00  1.00800000E+00  1.60000000E+01  1.00800000E+00
  1.00800000E+00  1.60000000E+01  1.00800000E+00  1.00800000E+00  1.60000000E+01
  1.00800000E+00  1.00800000E+00  1.60000000E+01  1.00800000E+00  1.00800000E+00
  1.60000000E+01  1.00800000E+00  1.00800000E+00  1.60000000E+01  1.00800000E+00
  1.00800000E+00  1.60000000E+01  1.00800000E+00  1.00800000E+00  1.60000000E+01
  1.00800000E+00  1.00800000E+00  1.60000000E+01  1.00800000E+00  1.00800000E+00
  1.60000000E+01  1.00800000E+00  1.00800000E+00  1.60000000E+01  1.00800000E+00
  1.00800000E+00  1.60000000E+01  1.00800000E+00  1.00800000E+00  1.60000000E+01
  1.00800000E+00  1.00800000E+00  1.60000000E+01  1.00800000E+00  1.00800000E+00
  1.60000000E+01  1.00800000E+00  1.00800000E+00  1.60000000E+01  1.00800000E+00
  1.00800000E+00  1.60000000E+01  1.00800000E+00  1.00800000E+00  1.60000000E+01
  1.00800000E+00  1.00800000E+00  1.60000000E+01  1.00800000E+00  1.00800000E+00
  1.60000000E+01  1.00800000E+00  1.00800000E+00  1.60000000E+01  1.00800000E+00
  1.00800000E+00  1.60000000E+01  1.00800000E+00  1.00800000E+00  1.60000000E+01
  1.00800000E+00  1.00800000E+00  1.60000000E+01  1.00800000E+00  1.00800000E+00
  1.60000000E+01  1.00800000E+00  1.00800000E+00  1.60000000E+01  1.00800000E+00
  1.00800000E+00  1.60000000E+01  1.00800000E+00  1.00800000E+00  1.60000000E+01
  1.00800000E+00  1.00800000E+00  1.60000000E+01  1.00800000E+00  1.00800000E+00
  1.60000000E+01  1.00800000E+00  1.00800000E+00  1.60000000E+01  1.00800000E+00
  1.00800000E+00  1.60000000E+01  1.00800000E+00  1.00800000E+00  1.60000000E+01
  1.00800000E+00  1.00800000E+00  1.60000000E+01  1.00800000E+00  1.00800000E+00
  1.60000000E+01  1.00800000E+00  1.00800000E+00  1.60000000E+01  1.00800000E+00
  1.00800000E+00  1.60000000E+01  1.00800000E+00  1.00800000E+00  1.60000000E+01
  1.00800000E+00  1.00800000E+00  1.60000000E+01  1.00800000E+00  1.00800000E+00
  1.60000000E+01  1.00800000E+00  1.00800000E+00  1.60000000E+01  1.00800000E+00
  1.00800000E+00  1.60000000E+01  1.00800000E+00  1.00800000E+00  1.60000000E+01
  1.00800000E+00  1.00800000E+00  1.60000000E+01  1.00800000E+00  1.00800000E+00
  1.60000000E+01  1.00800000E+00  1.00800000E+00  1.60000000E+01  1.00800000E+00
  1.00800000E+00  1.60000000E+01  1.00800000E+00  1.00800000E+00  1.60000000E+01
  1.00800000E+00  1.00800000E+00  1.60000000E+01  1.00800000E+00  1.00800000E+00
  1.60000000E+01  1.00800000E+00  1.00800000E+00  1.60000000E+01  1.00800000E+00
  1.00800000E+00  1.60000000E+01  1.00800000E+00  1.00800000E+00  1.60000000E+01
  1.00800000E+00  1.00800000E+00  1.60000000E+01  1.00800000E+00  1.00800000E+00
  1.60000000E+01  1.00800000E+00  1.00800000E+00  1.60000000E+01  1.00800000E+00
  1.00800000E+00  1.60000000E+01  1.00800000E+00  1.00800000E+00  1.60000000E+01
  1.00800000E+00  1.00800000E+00  1.60000000E+01  1.00800000E+00  1.00800000E+00
  1.60000000E+01  1.00800000E+00  1.00800000E+00  1.60000000E+01  1.00800000E+00
  1.00800000E+00  1.60000000E+01  1.00800000E+00  1.00800000E+00  1.60000000E+01
  1.00800000E+00  1.00800000E+00  1.60000000E+01  1.00800000E+00  1.00800000E+00
  1.60000000E+01  1.00800000E+00  1.00800000E+00  1.60000000E+01  1.00800000E+00
  1.00800000E+00  1.60000000E+01  1.00800000E+00  1.00800000E+00  1.60000000E+01
  1.00800000E+00  1.00800000E+00  1.60000000E+01  1.00800000E+00  1.00800000E+00
  1.60000000E+01  1.00800000E+00  1.00800000E+00  1.60000000E+01  1.00800000E+00
  1.00800000E+00  1.60000000E+01  1.00800000E+00  1.00800000E+00  1.60000000E+01
  1.00800000E+00  1.00800000E+00  1.60000000E+01  1.00800000E+00  1.00800000E+00
  1.60000000E+01  1.00800000E+00  1.00800000E+00  1.60000000E+01  1.00800000E+00
  1.00800000E+00  1.60000000E+01  1.00800000E+00  1.00800000E+00  1.60000000E+01
  1.00800000E+00  1.00800000E+00  1.60000000E+01  1.00800000E+00  1.00800000E+00
  1.60000000E+01  1.00800000E+00  1.00800000E+00  1.60000000E+01  1.00800000E+00
  1.00800000E+00  1.60000000E+01  1.00800000E+00  1.00800000E+00  1.60000000E+01
  1.00800000E+00  1.00800000E+00  1.60000000E+01  1.00800000E+00  1.00800000E+00
  1.60000000E+01  1.00800000E+00  1.00800000E+00  1.60000000E+01  1.00800000E+00
  1.00800000E+00  1.60000000E+01  1.00800000E+00  1.00800000E+00  1.60000000E+01
  1.00800000E+00  1.00800000E+00  1.60000000E+01  1.00800000E+00  1.00800000E+00
  1.60000000E+01  1.00800000E+00  1.00800000E+00  1.60000000E+01  1.00800000E+00
  1.00800000E+00  1.60000000E+01  1.00800000E+00  1.00800000E+00  1.60000000E+01
  1.00800000E+00  1.00800000E+00  1.60000000E+01  1.00800000E+00  1.00800000E+00
  1.60000000E+01  1.00800000E+00  1.00800000E+00  1.60000000E+01  1.00800000E+00
  1.00800000E+00  1.60000000E+01  1.00800000E+00  1.00800000E+00  1.60000000E+01
  1.00800000E+00  1.00800000E+00  1.60000000E+01  1.00800000E+00  1.00800000E+00
  1.60000000E+01  1.00800000E+00  1.00800000E+00  1.60000000E+01  1.00800000E+00
  1.00800000E+00  1.60000000E+01  1.00800000E+00  1.00800000E+00  1.60000000E+01
  1.00800000E+00  1.00800000E+00  1.60000000E+01  1.00800000E+00  1.00800000E+00
  1.60000000E+01  1.00800000E+00  1.00800000E+00  1.60000000E+01  1.00800000E+00
  1.00800000E+00  1.60000000E+01  1.00800000E+00  1.00800000E+00  1.60000000E+01
  1.00800000E+00  1.00800000E+00  1.60000000E+01  1.00800000E+00  1.00800000E+00
  1.60000000E+01  1.00800000E+00  1.00800000E+00  1.60000000E+01  1.00800000E+00
  1.00800000E+00  1.60000000E+01  1.00800000E+00  1.00800000E+00  1.60000000E+01
  1.00800000E+00  1.00800000E+00  1.60000000E+01  1.00800000E+00  1.00800000E+00
  1.60000000E+01  1.00800000E+00  1.00800000E+00  1.60000000E+01  1.00800000E+00
  1.00800000E+00  1.60000000E+01  1.00800000E+00  1.00800000E+00  1.60000000E+01
  1.00800000E+00  1.00800000E+00  1.60000000E+01  1.00800000E+00  1.00800000E+00
  1.60000000E+01  1.00800000E+00  1.00800000E+00  1.60000000E+01  1.00800000E+00
  1.00800000E+00  1.60000000E+01  1.00800000E+00  1.00800000E+00  1.60000000E+01
  1.00800000E+00  1.00800000E+00  1.60000000E+01  1.00800000E+00  1.00800000E+00
  1.60000000E+01  1.00800000E+00  1.00800000E+00  1.60000000E+01  1.00800000E+00
  1.00800000E+00  1.60000000E+01  1.00800000E+00  1.00800000E+00  1.60000000E+01
  1.00800000E+00  1.00800000E+00  1.60000000E+01  1.00800000E+00  1.00800000E+00
  1.60000000E+01  1.00800000E+00  1.00800000E+00  1.60000000E+01  1.00800000E+00
  1.00800000E+00  1.60000000E+01  1.00800000E+00  1.00800000E+00  1.60000000E+01
  1.00800000E+00  1.00800000E+00  1.60000000E+01  1.00800000E+00  1.00800000E+00
  1.60000000E+01  1.00800000E+00  1.00800000E+00  1.60000000E+01  1.00800000E+00
  1.00800000E+00  1.60000000E+01  1.00800000E+00  1.00800000E+00  1.60000000E+01
  1.00800000E+00  1.00800000E+00  1.60000000E+01  1.00800000E+00  1.00800000E+00
  1.60000000E+01  1.00800000E+00  1.00800000E+00  1.60000000E+01  1.00800000E+00
  1.00800000E+00  1.60000000E+01  1.00800000E+00  1.00800000E+00  1.60000000E+01
  1.00800000E+00  1.00800000E+00  1.60000000E+01  1.00800000E+00  1.00800000E+00
  1.60000000E+01  1.00800000E+00  1.00800000E+00  1.60000000E+01  1.00800000E+00
  1.00800000E+00  1.60000000E+01  1.00800000E+00  1.00800000E+00  1.60000000E+01
  1.00800000E+00  1.00800000E+00  1.60000000E+01  1.00800000E+00  1.00800000E+00
  1.60000000E+01  1.00800000E+00  1.00800000E+00  1.60000000E+01  1.00800000E+00
  1.00800000E+00  1.60000000E+01  1.00800000E+00  1.00800000E+00  1.60000000E+01
  1.00800000E+00  1.00800000E+00  1.60000000E+01  1.00800000E+00  1.00800000E+00
  1.60000000E+01  1.00800000E+00  1.00800000E+00  1.60000000E+01  1.00800000E+00
  1.00800000E+00  1.60000000E+01  1.00800000E+00  1.00800000E+00  1.60000000E+01
  1.00800000E+00  1.00800000E+00  1.60000000E+01  1.00800000E+00  1.00800000E+00
  1.60000000E+01  1.00800000E+00  1.00800000E+00  1.60000000E+01  1.00800000E+00
  1.00800000E+00  1.60000000E+01  1.00800000E+00  1.00800000E+00  1.60000000E+01
  1.00800000E+00  1.00800000E+00  1.60000000E+01  1.00800000E+00  1.00800000E+00
  1.60000000E+01  1.00800000E+00  1.00800000E+00  1.60000000E+01  1.00800000E+00
  1.00800000E+00  1.60000000E+01  1.00800000E+00  1.00800000E+00  1.60000000E+01
  1.00800000E+00  1.00800000E+00  1.60000000E+01  1.00800000E+00  1.00800000E+00
  1.60000000E+01  1.00800000E+00  1.00800000E+00  1.60000000E+01  1.00800000E+00
  1.00800000E+00  1.60000000E+01  1.00800000E+00  1.00800000E+00  1.60000000E+01
  1.00800000E+00  1.00800000E+00  1.60000000E+01  1.00800000E+00  1.00800000E+00
  1.60000000E+01  1.00800000E+00  1.00800000E+00  1.60000000E+01  1.00800000E+00
  1.00800000E+00  1.60000000E+01  1.00800000E+00  1.00800000E+00  1.60000000E+01
  1.00800000E+00  1.00800000E+00  1.60000000E+01  1.00800000E+00  1.00800000E+00
  1.60000000E+01  1.00800000E+00  1.00800000E+00  1.60000000E+01  1.00800000E+00
  1.00800000E+00  1.60000000E+01  1.00800000E+00  1.00800000E+00  1.60000000E+01
  1.00800000E+00  1.00800000E+00  1.60000000E+01  1.00800000E+00  1.00800000E+00
  1.60000000E+01  1.00800000E+00  1.00800000E+00  1.60000000E+01  1.00800000E+00
  1.00800000E+00  1.60000000E+01  1.00800000E+00  1.00800000E+00  1.60000000E+01
  1.00800000E+00  1.00800000E+00  1.60000000E+01  1.00800000E+00  1.00800000E+00
  1.60000000E+01  1.00800000E+00  1.00800000E+00  1.60000000E+01  1.00800000E+00
  1.00800000E+00  1.60000000E+01  1.00800000E+00  1.00800000E+00  1.60000000E+01
  1.00800000E+00  1.00800000E+00  1.60000000E+01  1.00800000E+00  1.00800000E+00
  1.60000000E+01  1.00800000E+00  1.00800000E+00  1.60000000E+01  1.00800000E+00
  1.00800000E+00  1.60000000E+01  1.00800000E+00  1.00800000E+00  1.60000000E+01
  1.00800000E+00  1.00800000E+00  1.60000000E+01  1.00800000E+00  1.00800000E+00
  1.60000000E+01  1.00800000E+00  1.00800000E+00  1.60000000E+01  1.00800000E+00
  1.00800000E+00  1.60000000E+01  1.00800000E+00  1.00800000E+00  1.60000000E+01
  1.00800000E+00  1.00800000E+00  1.60000000E+01  1.00800000E+00  1.00800000E+00
  1.60000000E+01  1.00800000E+00  1.00800000E+00  1.60000000E+01  1.00800000E+00
  1.00800000E+00  1.60000000E+01  1.00800000E+00  1.00800000E+00  1.60000000E+01
  1.00800000E+00  1.00800000E+00  1.60000000E+01  1.00800000E+00  1.00800000E+00
  1.60000000E+01  1.00800000E+00  1.00800000E+00  1.60000000E+01  1.00800000E+00
  1.00800000E+00  1.60000000E+01  1.00800000E+00  1.00800000E+00  1.60000000E+01
  1.00800000E+00  1.00800000E+00  1.60000000E+01  1.00800000E+00  1.00800000E+00
  1.60000000E+01  1.00800000E+00  1.00800000E+00  1.60000000E+01  1.00800000E+00
  1.00800000E+00  1.60000000E+01  1.00800000E+00  1.00800000E+00  1.60000000E+01
  1.00800000E+00  1.00800000E+00  1.60000000E+01  1.00800000E+00  1.00800000E+00
  1.60000000E+01  1.00800000E+00  1.00800000E+00  1.60000000E+01  1.00800000E+00
  1.00800000E+00  1.60000000E+01  1.00800000E+00  1.00800000E+00  1.60000000E+01
  1.00800000E+00  1.00800000E+00  1.60000000E+01  1.00800000E+00  1.00800000E+00
  1.60000000E+01  1.00800000E+00  1.00800000E+00  1.60000000E+01  1.00800000E+00
  1.00800000E+00  1.60000000E+01  1.00800000E+00  1.00800000E+00  1.60000000E+01
  1.00800000E+00  1.00800000E+00  1.60000000E+01  1.00800000E+00  1.00800000E+00
  1.60000000E+01  1.00800000E+00  1.00800000E+00  1.60000000E+01  1.00800000E+00
  1.00800000E+00  1.60000000E+01  1.00800000E+00  1.00800000E+00  1.60000000E+01
  1.00800000E+00  1.00800000E+00  1.60000000E+01  1.00800000E+00  1.00800000E+00
  1.60000000E+01  1.00800000E+00  1.00800000E+00  1.60000000E+01  1.00800000E+00
  1.00800000E+00  1.60000000E+01  1.00800000E+00  1.00800000E+00  1.60000000E+01
  1.00800000E+00  1.00800000E+00  1.60000000E+01  1.00800000E+00  1.00800000E+00
  1.60000000E+01  1.00800000E+00  1.00800000E+00  1.60000000E+01  1.00800000E+00
  1.00800000E+00  1.60000000E+01  1.00800000E+00  1.00800000E+00  1.60000000E+01
  1.00800000E+00  1.00800000E+00  1.60000000E+01  1.00800000E+00  1.00800000E+00
  1.60000000E+01  1.00800000E+00  1.00800000E+00  1.60000000E+01  1.00800000E+00
  1.00800000E+00  1.60000000E+01  1.00800000E+00  1.00800000E+00  1.60000000E+01
  1.00800000E+00  1.00800000E+00  1.60000000E+01  1.00800000E+00  1.00800000E+00
  1.60000000E+01  1.00800000E+00  1.00800000E+00  1.60000000E+01  1.00800000E+00
  1.00800000E+00  1.60000000E+01  1.00800000E+00  1.00800000E+00  1.60000000E+01
  1.00800000E+00  1.00800000E+00  1.60000000E+01  1.00800000E+00  1.00800000E+00
  1.60000000E+01  1.00800000E+00  1.00800000E+00  1.60000000E+01  1.00800000E+00
  1.00800000E+00  1.60000000E+01  1.00800000E+00  1.00800000E+00  1.60000000E+01
  1.00800000E+00  1.00800000E+00  1.60000000E+01  1.00800000E+00  1.00800000E+00
  1.60000000E+01  1.00800000E+00  1.00800000E+00  1.60000000E+01  1.00800000E+00
  1.00800000E+00  1.60000000E+01  1.00800000E+00  1.00800000E+00  1.60000000E+01
  1.00800000E+00  1.00800000E+00  1.60000000E+01  1.00800000E+00  1.00800000E+00
  1.60000000E+01  1.00800000E+00  1.00800000E+00  1.60000000E+01  1.00800000E+00
  1.00800000E+00  1.60000000E+01  1.00800000E+00  1.00800000E+00  1.60000000E+01
  1.00800000E+00  1.00800000E+00  1.60000000E+01  1.00800000E+00  1.00800000E+00
  1.60000000E+01  1.00800000E+00  1.00800000E+00  1.60000000E+01  1.00800000E+00
  1.00800000E+00  1.60000000E+01  1.00800000E+00  1.00800000E+00  1.60000000E+01
  1.00800000E+00  1.00800000E+00  1.60000000E+01  1.00800000E+00  1.00800000E+00
  1.60000000E+01  1.00800000E+00  1.00800000E+00  1.60000000E+01  1.00800000E+00
  1.00800000E+00  1.60000000E+01  1.00800000E+00  1.00800000E+00  1.60000000E+01
  1.00800000E+00  1.00800000E+00  1.60000000E+01  1.00800000E+00  1.00800000E+00
  1.60000000E+01  1.00800000E+00  1.00800000E+00  1.60000000E+01  1.00800000E+00
  1.00800000E+00  1.60000000E+01  1.00800000E+00  1.00800000E+00  1.60000000E+01
  1.00800000E+00  1.00800000E+00  1.60000000E+01  1.00800000E+00  1.00800000E+00
  1.60000000E+01  1.00800000E+00  1.00800000E+00  1.60000000E+01  1.00800000E+00
  1.00800000E+00  1.60000000E+01  1.00800000E+00  1.00800000E+00  1.60000000E+01
  1.00800000E+00  1.00800000E+00  1.60000000E+01  1.00800000E+00  1.00800000E+00
  1.60000000E+01  1.00800000E+00  1.00800000E+00  1.60000000E+01  1.00800000E+00
  1.00800000E+00  1.60000000E+01  1.00800000E+00  1.00800000E+00  1.60000000E+01
  1.00800000E+00  1.00800000E+00  1.60000000E+01  1.00800000E+00  1.00800000E+00
  1.60000000E+01  1.00800000E+00  1.00800000E+00  1.60000000E+01  1.00800000E+00
  1.00800000E+00  1.60000000E+01  1.00800000E+00  1.00800000E+00  1.60000000E+01
  1.00800000E+00  1.00800000E+00  1.60000000E+01  1.00800000E+00  1.00800000E+00
  1.60000000E+01  1.00800000E+00  1.00800000E+00  1.60000000E+01  1.00800000E+00
  1.00800000E+00  1.60000000E+01  1.00800000E+00  1.00800000E+00  1.60000000E+01
  1.00800000E+00  1.00800000E+00  1.60000000E+01  1.00800000E+00  1.00800000E+00
  1.60000000E+01  1.00800000E+00  1.00800000E+00  1.60000000E+01  1.00800000E+00
  1.00800000E+00  1.60000000E+01  1.00800000E+00  1.00800000E+00  1.60000000E+01
  1.00800000E+00  1.00800000E+00  1.60000000E+01  1.00800000E+00  1.00800000E+00
  1.60000000E+01  1.00800000E+00  1.00800000E+00  1.60000000E+01  1.00800000E+00
  1.00800000E+00  1.60000000E+01  1.00800000E+00  1.00800000E+00  1.60000000E+01
  1.00800000E+00  1.00800000E+00  1.60000000E+01  1.00800000E+00  1.00800000E+00
  1.60000000E+01  1.00800000E+00  1.00800000E+00  1.60000000E+01  1.00800000E+00
  1.00800000E+00  1.60000000E+01  1.00800000E+00  1.00800000E+00  1.60000000E+01
  1.00800000E+00  1.00800000E+00  1.60000000E+01  1.00800000E+00  1.00800000E+00
  1.60000000E+01  1.00800000E+00  1.00800000E+00  1.60000000E+01  1.00800000E+00
  1.00800000E+00  1.60000000E+01  1.00800000E+00  1.00800000E+00  1.60000000E+01
  1.00800000E+00  1.00800000E+00  1.60000000E+01  1.00800000E+00  1.00800000E+00
  1.60000000E+01  1.00800000E+00  1.00800000E+00  1.60000000E+01  1.00800000E+00
  1.00800000E+00  1.60000000E+01  1.00800000E+00  1.00800000E+00  1.60000000E+01
  1.00800000E+00  1.00800000E+00  1.60000000E+01  1.00800000E+00  1.00800000E+00
  1.60000000E+01  1.00800000E+00  1.00800000E+00  1.60000000E+01  1.00800000E+00
  1.00800000E+00  1.60000000E+01  1.00800000E+00  1.00800000E+00  1.60000000E+01
  1.00800000E+00  1.00800000E+00  1.60000000E+01  1.00800000E+00  1.00800000E+00
  1.60000000E+01  1.00800000E+00  1.00800000E+00  1.60000000E+01  1.00800000E+00
  1.00800000E+00  1.60000000E+01  1.00800000E+00  1.00800000E+00  1.60000000E+01
  1.00800000E+00  1.00800000E+00  1.60000000E+01  1.00800000E+00  1.00800000E+00
  1.60000000E+01  1.00800000E+00  1.00800000E+00  1.60000000E+01  1.00800000E+00
  1.00800000E+00  1.60000000E+01  1.00800000E+00  1.00800000E+00  1.60000000E+01
  1.00800000E+00  1.00800000E+00  1.60000000E+01  1.00800000E+00  1.00800000E+00
  1.60000000E+01  1.00800000E+00  1.00800000E+00  1.60000000E+01  1.00800000E+00
  1.00800000E+00  1.60000000E+01  1.00800000E+00  1.00800000E+00  1.60000000E+01
  1.00800000E+00  1.00800000E+00  1.60000000E+01  1.00800000E+00  1.00800000E+00
  1.60000000E+01  1.00800000E+00  1.00800000E+00  1.60000000E+01  1.00800000E+00
  1.00800000E+00  1.60000000E+01  1.00800000E+00  1.00800000E+00  1.60000000E+01
  1.00800000E+00  1.00800000E+00  1.60000000E+01  1.00800000E+00  1.00800000E+00
  1.60000000E+01  1.00800000E+00  1.00800000E+00  1.60000000E+01  1.00800000E+00
  1.00800000E+00  1.60000000E+01  1.00800000E+00  1.00800000E+00  1.60000000E+01
  1.00800000E+00  1.00800000E+00  1.60000000E+01  1.00800000E+00  1.00800000E+00
  1.60000000E+01  1.00800000E+00  1.00800000E+00  1.60000000E+01  1.00800000E+00
  1.00800000E+00  1.60000000E+01  1.00800000E+00  1.00800000E+00  1.60000000E+01
  1.00800000E+00  1.00800000E+00  1.60000000E+01  1.00800000E+00  1.00800000E+00
  1.60000000E+01  1.00800000E+00  1.00800000E+00  1.60000000E+01  1.00800000E+00
  1.00800000E+00  1.60000000E+01  1.00800000E+00  1.00800000E+00  1.60000000E+01
  1.00800000E+00  1.00800000E+00  1.60000000E+01  1.00800000E+00  1.00800000E+00
  1.60000000E+01  1.00800000E+00  1.00800000E+00  1.60000000E+01  1.00800000E+00
  1.00800000E+00  1.60000000E+01  1.00800000E+00  1.00800000E+00  1.60000000E+01
  1.00800000E+00  1.00800000E+00  1.60000000E+01  1.00800000E+00  1.00800000E+00
  1.60000000E+01  1.00800000E+00  1.00800000E+00  1.60000000E+01  1.00800000E+00
  1.00800000E+00  1.60000000E+01  1.00800000E+00  1.00800000E+00  1.60000000E+01
  1.00800000E+00  1.00800000E+00  1.60000000E+01  1.00800000E+00  1.00800000E+00
  1.60000000E+01  1.00800000E+00  1.00800000E+00  1.60000000E+01  1.00800000E+00
  1.00800000E+00  1.60000000E+01  1.00800000E+00  1.00800000E+00  1.60000000E+01
  1.00800000E+00  1.00800000E+00  1.60000000E+01  1.00800000E+00  1.00800000E+00
  1.60000000E+01  1.00800000E+00  1.00800000E+00  1.60000000E+01  1.00800000E+00
  1.00800000E+00  1.60000000E+01  1.00800000E+00  1.00800000E+00  1.60000000E+01
  1.00800000E+00  1.00800000E+00  1.60000000E+01  1.00800000E+00  1.00800000E+00
  1.60000000E+01  1.00800000E+00  1.00800000E+00  1.60000000E+01  1.00800000E+00
  1.00800000E+00  1.60000000E+01  1.00800000E+00  1.00800000E+00  1.60000000E+01
  1.00800000E+00  1.00800000E+00  1.60000000E+01  1.00800000E+00  1.00800000E+00
  1.60000000E+01  1.00800000E+00  1.00800000E+00  1.60000000E+01  1.00800000E+00
  1.00800000E+00  1.60000000E+01  1.00800000E+00  1.00800000E+00  1.60000000E+01
  1.00800000E+00  1.00800000E+00  1.60000000E+01  1.00800000E+00  1.00800000E+00
  1.60000000E+01  1.00800000E+00  1.00800000E+00  1.60000000E+01  1.00800000E+00
  1.00800000E+00  1.60000000E+01  1.00800000E+00  1.00800000E+00  1.60000000E+01
  1.00800000E+00  1.00800000E+00  1.60000000E+01  1.00800000E+00  1.00800000E+00
  1.60000000E+01  1.00800000E+00  1.00800000E+00  1.60000000E+01  1.00800000E+00
  1.00800000E+00  1.60000000E+01  1.00800000E+00  1.00800000E+00  1.60000000E+01
  1.00800000E+00  1.00800000E+00  1.60000000E+01  1.00800000E+00  1.00800000E+00
  1.60000000E+01  1.00800000E+00  1.00800000E+00  1.60000000E+01  1.00800000E+00
  1.00800000E+00  1.60000000E+01  1.00800000E+00  1.00800000E+00  1.60000000E+01
  1.00800000E+00  1.00800000E+00  1.60000000E+01  1.00800000E+00  1.00800000E+00
  1.60000000E+01  1.00800000E+00  1.00800000E+00  1.60000000E+01  1.00800000E+00
  1.00800000E+00  1.60000000E+01  1.00800000E+00  1.00800000E+00  1.60000000E+01
  1.00800000E+00  1.00800000E+00  1.60000000E+01  1.00800000E+00  1.00800000E+00
  1.60000000E+01  1.00800000E+00  1.00800000E+00  1.60000000E+01  1.00800000E+00
  1.00800000E+00  1.60000000E+01  1.00800000E+00  1.00800000E+00  1.60000000E+01
  1.00800000E+00  1.00800000E+00  1.60000000E+01  1.00800000E+00  1.00800000E+00
  1.60000000E+01  1.00800000E+00  1.00800000E+00  1.60000000E+01  1.00800000E+00
  1.00800000E+00  1.60000000E+01  1.00800000E+00  1.00800000E+00  1.60000000E+01
  1.00800000E+00  1.00800000E+00  1.60000000E+01  1.00800000E+00  1.00800000E+00
  1.60000000E+01  1.00800000E+00  1.00800000E+00  1.60000000E+01  1.00800000E+00
  1.00800000E+00  1.60000000E+01  1.00800000E+00  1.00800000E+00  1.60000000E+01
  1.00800000E+00  1.00800000E+00  1.60000000E+01  1.00800000E+00  1.00800000E+00
  1.60000000E+01  1.00800000E+00  1.00800000E+00  1.60000000E+01  1.00800000E+00
  1.00800000E+00  1.60000000E+01  1.00800000E+00  1.00800000E+00  1.60000000E+01
  1.00800000E+00  1.00800000E+00  1.60000000E+01  1.00800000E+00  1.00800000E+00
  1.60000000E+01  1.00800000E+00  1.00800000E+00  1.60000000E+01  1.00800000E+00
  1.00800000E+00  1.60000000E+01  1.00800000E+00  1.00800000E+00  1.60000000E+01
  1.00800000E+00  1.00800000E+00  1.60000000E+01  1.00800000E+00  1.00800000E+00
  1.60000000E+01  1.00800000E+00  1.00800000E+00  1.60000000E+01  1.00800000E+00
  1.00800000E+00  1.60000000E+01  1.00800000E+00  1.00800000E+00  1.60000000E+01
  1.00800000E+00  1.00800000E+00  1.60000000E+01  1.00800000E+00  1.00800000E+00
  1.60000000E+01  1.00800000E+00  1.00800000E+00  1.60000000E+01  1.00800000E+00
  1.00800000E+00  1.60000000E+01  1.00800000E+00  1.00800000E+00  1.60000000E+01
  1.00800000E+00  1.00800000E+00  1.60000000E+01  1.00800000E+00  1.00800000E+00
  1.60000000E+01  1.00800000E+00  1.00800000E+00  1.60000000E+01  1.00800000E+00
  1.00800000E+00  1.60000000E+01  1.00800000E+00  1.00800000E+00  1.60000000E+01
  1.00800000E+00  1.00800000E+00  1.60000000E+01  1.00800000E+00  1.00800000E+00
  1.60000000E+01  1.00800000E+00  1.00800000E+00  1.60000000E+01  1.00800000E+00
  1.00800000E+00  1.60000000E+01  1.00800000E+00  1.00800000E+00  1.60000000E+01
  1.00800000E+00  1.00800000E+00  1.60000000E+01  1.00800000E+00  1.00800000E+00
  1.60000000E+01  1.00800000E+00  1.00800000E+00  1.60000000E+01  1.00800000E+00
  1.00800000E+00  1.60000000E+01  1.00800000E+00  1.00800000E+00  1.60000000E+01
  1.00800000E+00  1.00800000E+00  1.60000000E+01  1.00800000E+00  1.00800000E+00
  1.60000000E+01  1.00800000E+00  1.00800000E+00  1.60000000E+01  1.00800000E+00
  1.00800000E+00  1.60000000E+01  1.00800000E+00  1.00800000E+00  1.60000000E+01
  1.00800000E+00  1.00800000E+00  1.60000000E+01  1.00800000E+00  1.00800000E+00
  1.60000000E+01  1.00800000E+00  1.00800000E+00  1.60000000E+01  1.00800000E+00
  1.00800000E+00  1.60000000E+01  1.00800000E+00  1.00800000E+00  1.60000000E+01
  1.00800000E+00  1.00800000E+00  1.60000000E+01  1.00800000E+00  1.00800000E+00
  1.60000000E+01  1.00800000E+00  1.00800000E+00  1.60000000E+01  1.00800000E+00
  1.00800000E+00  1.60000000E+01  1.00800000E+00  1.00800000E+00  1.60000000E+01
  1.00800000E+00  1.00800000E+00  1.60000000E+01  1.00800000E+00  1.00800000E+00
  1.60000000E+01  1.00800000E+00  1.00800000E+00  1.60000000E+01  1.00800000E+00
  1.00800000E+00  1.60000000E+01  1.00800000E+00  1.00800000E+00  1.60000000E+01
  1.00800000E+00  1.00800000E+00  1.60000000E+01  1.00800000E+00  1.00800000E+00
  1.60000000E+01  1.00800000E+00  1.00800000E+00  1.60000000E+01  1.00800000E+00
  1.00800000E+00  1.60000000E+01  1.00800000E+00  1.00800000E+00  1.60000000E+01
  1.00800000E+00  1.00800000E+00  1.60000000E+01  1.00800000E+00  1.00800000E+00
  1.60000000E+01  1.00800000E+00  1.00800000E+00  1.60000000E+01  1.00800000E+00
  1.00800000E+00  1.60000000E+01  1.00800000E+00  1.00800000E+00  1.60000000E+01
  1.00800000E+00  1.00800000E+00  1.60000000E+01  1.00800000E+00  1.00800000E+00
  1.60000000E+01  1.00800000E+00  1.00800000E+00  1.60000000E+01  1.00800000E+00
  1.00800000E+00  1.60000000E+01  1.00800000E+00  1.00800000E+00  1.60000000E+01
  1.00800000E+00  1.00800000E+00  1.60000000E+01  1.00800000E+00  1.00800000E+00
  1.60000000E+01  1.00800000E+00  1.00800000E+00  1.60000000E+01  1.00800000E+00
  1.00800000E+00  1.60000000E+01  1.00800000E+00  1.00800000E+00  1.60000000E+01
  1.00800000E+00  1.00800000E+00  1.60000000E+01  1.00800000E+00  1.00800000E+00
  1.60000000E+01  1.00800000E+00  1.00800000E+00  1.60000000E+01  1.00800000E+00
  1.00800000E+00  1.60000000E+01  1.00800000E+00  1.00800000E+00  1.60000000E+01
  1.00800000E+00  1.00800000E+00  1.60000000E+01  1.00800000E+00  1.00800000E+00
  1.60000000E+01  1.00800000E+00  1.00800000E+00  1.60000000E+01  1.00800000E+00
  1.00800000E+00  1.60000000E+01  1.00800000E+00  1.00800000E+00  1.60000000E+01
  1.00800000E+00  1.00800000E+00  1.60000000E+01  1.00800000E+00  1.00800000E+00
  1.60000000E+01  1.00800000E+00  1.00800000E+00  1.60000000E+01  1.00800000E+00
  1.00800000E+00  1.60000000E+01  1.00800000E+00  1.00800000E+00  1.60000000E+01
  1.00800000E+00  1.00800000E+00  1.60000000E+01  1.00800000E+00  1.00800000E+00
  1.60000000E+01  1.00800000E+00  1.00800000E+00  1.60000000E+01  1.00800000E+00
  1.00800000E+00  1.60000000E+01  1.00800000E+00  1.00800000E+00  1.60000000E+01
  1.00800000E+00  1.00800000E+00  1.60000000E+01  1.00800000E+00  1.00800000E+00
  1.60000000E+01  1.00800000E+00  1.00800000E+00  1.60000000E+01  1.00800000E+00
  1.00800000E+00  1.60000000E+01  1.00800000E+00  1.00800000E+00  1.60000000E+01
  1.00800000E+00  1.00800000E+00  1.60000000E+01  1.00800000E+00  1.00800000E+00
  1.60000000E+01  1.00800000E+00  1.00800000E+00  1.60000000E+01  1.00800000E+00
  1.00800000E+00  1.60000000E+01  1.00800000E+00  1.00800000E+00  1.60000000E+01
  1.00800000E+00  1.00800000E+00  1.60000000E+01  1.00800000E+00  1.00800000E+00
  1.60000000E+01  1.00800000E+00  1.00800000E+00  1.60000000E+01  1.00800000E+00
  1.00800000E+00  1.60000000E+01  1.00800000E+00  1.00800000E+00  1.60000000E+01
  1.00800000E+00  1.00800000E+00  1.60000000E+01  1.00800000E+00  1.00800000E+00
  1.60000000E+01  1.00800000E+00  1.00800000E+00  1.60000000E+01  1.00800000E+00
  1.00800000E+00  1.60000000E+01  1.00800000E+00  1.00800000E+00  1.60000000E+01
  1.00800000E+00  1.00800000E+00  1.60000000E+01  1.00800000E+00  1.00800000E+00
  1.60000000E+01  1.00800000E+00  1.00800000E+00  1.60000000E+01  1.00800000E+00
  1.00800000E+00  1.60000000E+01  1.00800000E+00  1.00800000E+00  1.60000000E+01
  1.00800000E+00  1.00800000E+00  1.60000000E+01  1.00800000E+00  1.00800000E+00
  1.60000000E+01  1.00800000E+00  1.00800000E+00  1.60000000E+01  1.00800000E+00
  1.00800000E+00  1.60000000E+01  1.00800000E+00  1.00800000E+00  1.60000000E+01
  1.00800000E+00  1.00800000E+00  1.60000000E+01  1.00800000E+00  1.00800000E+00
  1.60000000E+01  1.00800000E+00  1.00800000E+00  1.60000000E+01  1.00800000E+00
  1.00800000E+00  1.60000000E+01  1.00800000E+00  1.00800000E+00  1.60000000E+01
  1.00800000E+00  1.00800000E+00  1.60000000E+01  1.00800000E+00  1.00800000E+00
  1.60000000E+01  1.00800000E+00  1.00800000E+00  1.60000000E+01  1.00800000E+00
  1.00800000E+00  1.60000000E+01  1.00800000E+00  1.00800000E+00  1.60000000E+01
  1.00800000E+00  1.00800000E+00  1.60000000E+01  1.00800000E+00  1.00800000E+00
  1.60000000E+01  1.00800000E+00  1.00800000E+00  1.60000000E+01  1.00800000E+00
  1.00800000E+00  1.60000000E+01  1.00800000E+00  1.00800000E+00  1.60000000E+01
  1.00800000E+00  1.00800000E+00  1.60000000E+01  1.00800000E+00  1.00800000E+00
  1.60000000E+01  1.00800000E+00  1.00800000E+00  1.60000000E+01  1.00800000E+00
  1.00800000E+00  1.60000000E+01  1.00800000E+00  1.00800000E+00  1.60000000E+01
  1.00800000E+00  1.00800000E+00  1.60000000E+01  1.00800000E+00  1.00800000E+00
  1.60000000E+01  1.00800000E+00  1.00800000E+00  1.60000000E+01  1.00800000E+00
  1.00800000E+00  1.60000000E+01  1.00800000E+00  1.00800000E+00  1.60000000E+01
  1.00800000E+00  1.00800000E+00  1.60000000E+01  1.00800000E+00  1.00800000E+00
  1.60000000E+01  1.00800000E+00  1.00800000E+00  1.60000000E+01  1.00800000E+00
  1.00800000E+00  1.60000000E+01  1.00800000E+00  1.00800000E+00  1.60000000E+01
  1.00800000E+00  1.00800000E+00  1.60000000E+01  1.00800000E+00  1.00800000E+00
  1.60000000E+01  1.00800000E+00  1.00800000E+00  1.60000000E+01  1.00800000E+00
  1.00800000E+00  1.60000000E+01  1.00800000E+00  1.00800000E+00  1.60000000E+01
  1.00800000E+00  1.00800000E+00  1.60000000E+01  1.00800000E+00  1.00800000E+00
  1.60000000E+01  1.00800000E+00  1.00800000E+00  1.60000000E+01  1.00800000E+00
  1.00800000E+00  1.60000000E+01  1.00800000E+00  1.00800000E+00  1.60000000E+01
  1.00800000E+00  1.00800000E+00  1.60000000E+01  1.00800000E+00  1.00800000E+00
  1.60000000E+01  1.00800000E+00  1.00800000E+00  1.60000000E+01  1.00800000E+00
  1.00800000E+00  1.60000000E+01  1.00800000E+00  1.00800000E+00  1.60000000E+01
  1.00800000E+00  1.00800000E+00  1.60000000E+01  1.00800000E+00  1.00800000E+00
  1.60000000E+01  1.00800000E+00  1.00800000E+00  1.60000000E+01  1.00800000E+00
  1.00800000E+00  1.60000000E+01  1.00800000E+00  1.00800000E+00  1.60000000E+01
  1.00800000E+00  1.00800000E+00  1.60000000E+01  1.00800000E+00  1.00800000E+00
  1.60000000E+01  1.00800000E+00  1.00800000E+00  1.60000000E+01  1.00800000E+00
  1.00800000E+00  1.60000000E+01  1.00800000E+00  1.00800000E+00  1.60000000E+01
  1.00800000E+00  1.00800000E+00  1.60000000E+01  1.00800000E+00  1.00800000E+00
  1.60000000E+01  1.00800000E+00  1.00800000E+00  1.60000000E+01  1.00800000E+00
  1.00800000E+00  1.60000000E+01  1.00800000E+00  1.00800000E+00  1.60000000E+01
  1.00800000E+00  1.00800000E+00  1.60000000E+01  1.00800000E+00  1.00800000E+00
  1.60000000E+01  1.00800000E+00  1.00800000E+00  1.60000000E+01  1.00800000E+00
  1.00800000E+00  1.60000000E+01  1.00800000E+00  1.00800000E+00  1.60000000E+01
  1.00800000E+00  1.00800000E+00  1.60000000E+01  1.00800000E+00  1.00800000E+00
  1.60000000E+01  1.00800000E+00  1.00800000E+00  1.60000000E+01  1.00800000E+00
  1.00800000E+00  1.60000000E+01  1.00800000E+00  1.00800000E+00  1.60000000E+01
  1.00800000E+00  1.00800000E+00  1.60000000E+01  1.00800000E+00  1.00800000E+00
  1.60000000E+01  1.00800000E+00  1.00800000E+00  1.60000000E+01  1.00800000E+00
  1.00800000E+00  1.60000000E+01  1.00800000E+00  1.00800000E+00  1.60000000E+01
  1.00800000E+00  1.00800000E+00  1.60000000E+01  1.00800000E+00  1.00800000E+00
  1.60000000E+01  1.00800000E+00  1.00800000E+00  1.60000000E+01  1.00800000E+00
  1.00800000E+00  1.60000000E+01  1.00800000E+00  1.00800000E+00  1.60000000E+01
  1.00800000E+00  1.00800000E+00  1.60000000E+01  1.00800000E+00  1.00800000E+00
  1.60000000E+01  1.00800000E+00  1.00800000E+00  1.60000000E+01  1.00800000E+00
  1.00800000E+00  1.60000000E+01  1.00800000E+00  1.00800000E+00  1.60000000E+01
  1.00800000E+00  1.00800000E+00  1.60000000E+01  1.00800000E+00  1.00800000E+00
  1.60000000E+01  1.00800000E+00  1.00800000E+00  1.60000000E+01  1.00800000E+00
  1.00800000E+00  1.60000000E+01  1.00800000E+00  1.00800000E+00  1.60000000E+01
  1.00800000E+00  1.00800000E+00  1.60000000E+01  1.00800000E+00  1.00800000E+00
  1.60000000E+01  1.00800000E+00  1.00800000E+00  1.60000000E+01  1.00800000E+00
  1.00800000E+00  1.60000000E+01  1.00800000E+00  1.00800000E+00  1.60000000E+01
  1.00800000E+00  1.00800000E+00  1.60000000E+01  1.00800000E+00  1.00800000E+00
  1.60000000E+01  1.00800000E+00  1.00800000E+00  1.60000000E+01  1.00800000E+00
  1.00800000E+00  1.60000000E+01  1.00800000E+00  1.00800000E+00  1.60000000E+01
  1.00800000E+00  1.00800000E+00  1.60000000E+01  1.00800000E+00  1.00800000E+00
  1.60000000E+01  1.00800000E+00  1.00800000E+00  1.60000000E+01  1.00800000E+00
  1.00800000E+00  1.60000000E+01  1.00800000E+00  1.00800000E+00  1.60000000E+01
  1.00800000E+00  1.00800000E+00  1.60000000E+01  1.00800000E+00  1.00800000E+00
  1.60000000E+01  1.00800000E+00  1.00800000E+00  1.60000000E+01  1.00800000E+00
  1.00800000E+00  1.60000000E+01  1.00800000E+00  1.00800000E+00  1.60000000E+01
  1.00800000E+00  1.00800000E+00  1.60000000E+01  1.00800000E+00  1.00800000E+00
  1.60000000E+01  1.00800000E+00  1.00800000E+00  1.60000000E+01  1.00800000E+00
  1.00800000E+00  1.60000000E+01  1.00800000E+00  1.00800000E+00  1.60000000E+01
  1.00800000E+00  1.00800000E+00  1.60000000E+01  1.00800000E+00  1.00800000E+00
  1.60000000E+01  1.00800000E+00  1.00800000E+00  1.60000000E+01  1.00800000E+00
  1.00800000E+00  1.60000000E+01  1.00800000E+00  1.00800000E+00  1.60000000E+01
  1.00800000E+00  1.00800000E+00  1.60000000E+01  1.00800000E+00  1.00800000E+00
  1.60000000E+01  1.00800000E+00  1.00800000E+00  1.60000000E+01  1.00800000E+00
  1.00800000E+00  1.60000000E+01  1.00800000E+00  1.00800000E+00  1.60000000E+01
  1.00800000E+00  1.00800000E+00  1.60000000E+01  1.00800000E+00  1.00800000E+00
  1.60000000E+01  1.00800000E+00  1.00800000E+00  1.60000000E+01  1.00800000E+00
  1.00800000E+00  1.60000000E+01  1.00800000E+00  1.00800000E+00  1.60000000E+01
  1.00800000E+00  1.00800000E+00  1.60000000E+01  1.00800000E+00  1.00800000E+00
  1.60000000E+01  1.00800000E+00  1.00800000E+00  1.60000000E+01  1.00800000E+00
  1.00800000E+00  1.60000000E+01  1.00800000E+00  1.00800000E+00  1.60000000E+01
  1.00800000E+00  1.00800000E+00  1.60000000E+01  1.00800000E+00  1.00800000E+00
  1.60000000E+01  1.00800000E+00  1.00800000E+00  1.60000000E+01  1.00800000E+00
  1.00800000E+00  1.60000000E+01  1.00800000E+00  1.00800000E+00  1.60000000E+01
  1.00800000E+00  1.00800000E+00  1.60000000E+01  1.00800000E+00  1.00800000E+00
  1.60000000E+01  1.00800000E+00  1.00800000E+00  1.60000000E+01  1.00800000E+00
  1.00800000E+00  1.60000000E+01  1.00800000E+00  1.00800000E+00  1.60000000E+01
  1.00800000E+00  1.00800000E+00  1.60000000E+01  1.00800000E+00  1.00800000E+00
  1.60000000E+01  1.00800000E+00  1.00800000E+00  1.60000000E+01  1.00800000E+00
  1.00800000E+00  1.60000000E+01  1.00800000E+00  1.00800000E+00  1.60000000E+01
  1.00800000E+00  1.00800000E+00  1.60000000E+01  1.00800000E+00  1.00800000E+00
  1.60000000E+01  1.00800000E+00  1.00800000E+00  1.60000000E+01  1.00800000E+00
  1.00800000E+00  1.60000000E+01  1.00800000E+00  1.00800000E+00  1.60000000E+01
  1.00800000E+00  1.00800000E+00  1.60000000E+01  1.00800000E+00  1.00800000E+00
  1.60000000E+01  1.00800000E+00  1.00800000E+00  1.60000000E+01  1.00800000E+00
  1.00800000E+00  1.60000000E+01  1.00800000E+00  1.00800000E+00  1.60000000E+01
  1.00800000E+00  1.00800000E+00  1.60000000E+01  1.00800000E+00  1.00800000E+00
  1.60000000E+01  1.00800000E+00  1.00800000E+00  1.60000000E+01  1.00800000E+00
  1.00800000E+00  1.60000000E+01  1.00800000E+00  1.00800000E+00  1.60000000E+01
  1.00800000E+00  1.00800000E+00  1.60000000E+01  1.00800000E+00  1.00800000E+00
  1.60000000E+01  1.00800000E+00  1.00800000E+00  1.60000000E+01  1.00800000E+00
  1.00800000E+00  1.60000000E+01  1.00800000E+00  1.00800000E+00  1.60000000E+01
  1.00800000E+00  1.00800000E+00  1.60000000E+01  1.00800000E+00  1.00800000E+00
  1.60000000E+01  1.00800000E+00  1.00800000E+00  1.60000000E+01  1.00800000E+00
  1.00800000E+00  1.60000000E+01  1.00800000E+00  1.00800000E+00  1.60000000E+01
  1.00800000E+00  1.00800000E+00  1.60000000E+01  1.00800000E+00  1.00800000E+00
  1.60000000E+01  1.00800000E+00  1.00800000E+00  1.60000000E+01  1.00800000E+00
  1.00800000E+00  1.60000000E+01  1.00800000E+00  1.00800000E+00  1.60000000E+01
  1.00800000E+00  1.00800000E+00  1.60000000E+01  1.00800000E+00  1.00800000E+00
  1.60000000E+01  1.00800000E+00  1.00800000E+00  1.60000000E+01  1.00800000E+00
  1.00800000E+00  1.60000000E+01  1.00800000E+00  1.00800000E+00  1.60000000E+01
  1.00800000E+00  1.00800000E+00  1.60000000E+01  1.00800000E+00  1.00800000E+00
  1.60000000E+01  1.00800000E+00  1.00800000E+00  1.60000000E+01  1.00800000E+00
  1.00800000E+00  1.60000000E+01  1.00800000E+00  1.00800000E+00  1.60000000E+01
  1.00800000E+00  1.00800000E+00  1.60000000E+01  1.00800000E+00  1.00800000E+00
  1.60000000E+01  1.00800000E+00  1.00800000E+00  1.60000000E+01  1.00800000E+00
  1.00800000E+00  1.60000000E+01  1.00800000E+00  1.00800000E+00  1.60000000E+01
  1.00800000E+00  1.00800000E+00  1.60000000E+01  1.00800000E+00  1.00800000E+00
  1.60000000E+01  1.00800000E+00  1.00800000E+00  1.60000000E+01  1.00800000E+00
  1.00800000E+00  1.60000000E+01  1.00800000E+00  1.00800000E+00  1.60000000E+01
  1.00800000E+00  1.00800000E+00  1.60000000E+01  1.00800000E+00  1.00800000E+00
  1.60000000E+01  1.00800000E+00  1.00800000E+00  1.60000000E+01  1.00800000E+00
  1.00800000E+00  1.60000000E+01  1.00800000E+00  1.00800000E+00  1.60000000E+01
  1.00800000E+00  1.00800000E+00  1.60000000E+01  1.00800000E+00  1.00800000E+00
  1.60000000E+01  1.00800000E+00  1.00800000E+00  1.60000000E+01  1.00800000E+00
  1.00800000E+00  1.60000000E+01  1.00800000E+00  1.00800000E+00  1.60000000E+01
  1.00800000E+00  1.00800000E+00  1.60000000E+01  1.00800000E+00  1.00800000E+00
  1.60000000E+01  1.00800000E+00  1.00800000E+00  1.60000000E+01  1.00800000E+00
  1.00800000E+00  1.60000000E+01  1.00800000E+00  1.00800000E+00  1.60000000E+01
  1.00800000E+00  1.00800000E+00  1.60000000E+01  1.00800000E+00  1.00800000E+00
  1.60000000E+01  1.00800000E+00  1.00800000E+00  1.60000000E+01  1.00800000E+00
  1.00800000E+00  1.60000000E+01  1.00800000E+00  1.00800000E+00  1.60000000E+01
  1.00800000E+00  1.00800000E+00  1.60000000E+01  1.00800000E+00  1.00800000E+00
  1.60000000E+01  1.00800000E+00  1.00800000E+00  1.60000000E+01  1.00800000E+00
  1.00800000E+00  1.60000000E+01  1.00800000E+00  1.00800000E+00  1.60000000E+01
  1.00800000E+00  1.00800000E+00  1.60000000E+01  1.00800000E+00  1.00800000E+00
  1.60000000E+01  1.00800000E+00  1.00800000E+00  1.60000000E+01  1.00800000E+00
  1.00800000E+00  1.60000000E+01  1.00800000E+00  1.00800000E+00  1.60000000E+01
  1.00800000E+00  1.00800000E+00  1.60000000E+01  1.00800000E+00  1.00800000E+00
  1.60000000E+01  1.00800000E+00  1.00800000E+00  1.60000000E+01  1.00800000E+00
  1.00800000E+00  1.60000000E+01  1.00800000E+00  1.00800000E+00  1.60000000E+01
  1.00800000E+00  1.00800000E+00  1.60000000E+01  1.00800000E+00  1.00800000E+00
  1.60000000E+01  1.00800000E+00  1.00800000E+00  1.60000000E+01  1.00800000E+00
  1.00800000E+00  1.60000000E+01  1.00800000E+00  1.00800000E+00  1.60000000E+01
  1.00800000E+00  1.00800000E+00  1.60000000E+01  1.00800000E+00  1.00800000E+00
  1.60000000E+01  1.00800000E+00  1.00800000E+00  1.60000000E+01  1.00800000E+00
  1.00800000E+00  1.60000000E+01  1.00800000E+00  1.00800000E+00  1.60000000E+01
  1.00800000E+00  1.00800000E+00  1.60000000E+01  1.00800000E+00  1.00800000E+00
  1.60000000E+01  1.00800000E+00  1.00800000E+00  1.60000000E+01  1.00800000E+00
  1.00800000E+00  1.60000000E+01  1.00800000E+00  1.00800000E+00  1.60000000E+01
  1.00800000E+00  1.00800000E+00  1.60000000E+01  1.00800000E+00  1.00800000E+00
  1.60000000E+01  1.00800000E+00  1.00800000E+00  1.60000000E+01  1.00800000E+00
  1.00800000E+00  1.60000000E+01  1.00800000E+00  1.00800000E+00  1.60000000E+01
  1.00800000E+00  1.00800000E+00  1.60000000E+01  1.00800000E+00  1.00800000E+00
  1.60000000E+01  1.00800000E+00  1.00800000E+00  1.60000000E+01  1.00800000E+00
  1.00800000E+00  1.60000000E+01  1.00800000E+00  1.00800000E+00  1.60000000E+01
  1.00800000E+00  1.00800000E+00  1.60000000E+01  1.00800000E+00  1.00800000E+00
  1.60000000E+01  1.00800000E+00  1.00800000E+00  1.60000000E+01  1.00800000E+00
  1.00800000E+00  1.60000000E+01  1.00800000E+00  1.00800000E+00  1.60000000E+01
  1.00800000E+00  1.00800000E+00  1.60000000E+01  1.00800000E+00  1.00800000E+00
  1.60000000E+01  1.00800000E+00  1.00800000E+00  1.60000000E+01  1.00800000E+00
  1.00800000E+00  1.60000000E+01  1.00800000E+00  1.00800000E+00  1.60000000E+01
  1.00800000E+00  1.00800000E+00  1.60000000E+01  1.00800000E+00  1.00800000E+00
  1.60000000E+01  1.00800000E+00  1.00800000E+00  1.60000000E+01  1.00800000E+00
  1.00800000E+00  1.60000000E+01  1.00800000E+00  1.00800000E+00  1.60000000E+01
  1.00800000E+00  1.00800000E+00  1.60000000E+01  1.00800000E+00  1.00800000E+00
  1.60000000E+01  1.00800000E+00  1.00800000E+00  1.60000000E+01  1.00800000E+00
  1.00800000E+00  1.60000000E+01  1.00800000E+00  1.00800000E+00  1.60000000E+01
  1.00800000E+00  1.00800000E+00  1.60000000E+01  1.00800000E+00  1.00800000E+00
  1.60000000E+01  1.00800000E+00  1.00800000E+00  1.60000000E+01  1.00800000E+00
  1.00800000E+00  1.60000000E+01  1.00800000E+00  1.00800000E+00  1.60000000E+01
  1.00800000E+00  1.00800000E+00  1.60000000E+01  1.00800000E+00  1.00800000E+00
  1.60000000E+01  1.00800000E+00  1.00800000E+00  1.60000000E+01  1.00800000E+00
  1.00800000E+00  1.60000000E+01  1.00800000E+00  1.00800000E+00  1.60000000E+01
  1.00800000E+00  1.00800000E+00  1.60000000E+01  1.00800000E+00  1.00800000E+00
  1.60000000E+01  1.00800000E+00  1.00800000E+00  1.60000000E+01  1.00800000E+00
  1.00800000E+00  1.60000000E+01  1.00800000E+00  1.00800000E+00  1.60000000E+01
  1.00800000E+00  1.00800000E+00  1.60000000E+01  1.00800000E+00  1.00800000E+00
  1.60000000E+01  1.00800000E+00  1.00800000E+00  1.60000000E+01  1.00800000E+00
  1.00800000E+00  1.60000000E+01  1.00800000E+00  1.00800000E+00  1.60000000E+01
  1.00800000E+00  1.00800000E+00  1.60000000E+01  1.00800000E+00  1.00800000E+00
  1.60000000E+01  1.00800000E+00  1.00800000E+00  1.60000000E+01  1.00800000E+00
  1.00800000E+00  1.60000000E+01  1.00800000E+00  1.00800000E+00  1.60000000E+01
  1.00800000E+00  1.00800000E+00  1.60000000E+01  1.00800000E+00  1.00800000E+00
  1.60000000E+01  1.00800000E+00  1.00800000E+00  1.60000000E+01  1.00800000E+00
  1.00800000E+00  1.60000000E+01  1.00800000E+00  1.00800000E+00  1.60000000E+01
  1.00800000E+00  1.00800000E+00  1.60000000E+01  1.00800000E+00  1.00800000E+00
  1.60000000E+01  1.00800000E+00  1.00800000E+00  1.60000000E+01  1.00800000E+00
  1.00800000E+00  1.60000000E+01  1.00800000E+00  1.00800000E+00  1.60000000E+01
  1.00800000E+00  1.00800000E+00  1.60000000E+01  1.00800000E+00  1.00800000E+00
  1.60000000E+01  1.00800000E+00  1.00800000E+00  1.60000000E+01  1.00800000E+00
  1.00800000E+00  1.60000000E+01  1.00800000E+00  1.00800000E+00  1.60000000E+01
  1.00800000E+00  1.00800000E+00  1.60000000E+01  1.00800000E+00  1.00800000E+00
  1.60000000E+01  1.00800000E+00  1.00800000E+00  1.60000000E+01  1.00800000E+00
  1.00800000E+00  1.60000000E+01  1.00800000E+00  1.00800000E+00  1.60000000E+01
  1.00800000E+00  1.00800000E+00  1.60000000E+01  1.00800000E+00  1.00800000E+00
  1.60000000E+01  1.00800000E+00  1.00800000E+00  1.60000000E+01  1.00800000E+00
  1.00800000E+00  1.60000000E+01  1.00800000E+00  1.00800000E+00  1.60000000E+01
  1.00800000E+00  1.00800000E+00  1.60000000E+01  1.00800000E+00  1.00800000E+00
  1.60000000E+01  1.00800000E+00  1.00800000E+00  1.60000000E+01  1.00800000E+00
  1.00800000E+00  1.60000000E+01  1.00800000E+00  1.00800000E+00  1.60000000E+01
  1.00800000E+00  1.00800000E+00  1.60000000E+01  1.00800000E+00  1.00800000E+00
  1.60000000E+01  1.00800000E+00  1.00800000E+00  1.60000000E+01  1.00800000E+00
  1.00800000E+00  1.60000000E+01  1.00800000E+00  1.00800000E+00  1.60000000E+01
  1.00800000E+00  1.00800000E+00  1.60000000E+01  1.00800000E+00  1.00800000E+00
  1.60000000E+01  1.00800000E+00  1.00800000E+00  1.60000000E+01  1.00800000E+00
  1.00800000E+00  1.60000000E+01  1.00800000E+00  1.00800000E+00  1.60000000E+01
  1.00800000E+00  1.00800000E+00  1.60000000E+01  1.00800000E+00  1.00800000E+00
  1.60000000E+01  1.00800000E+00  1.00800000E+00  1.60000000E+01  1.00800000E+00
  1.00800000E+00  1.60000000E+01  1.00800000E+00  1.00800000E+00  1.60000000E+01
  1.00800000E+00  1.00800000E+00  1.60000000E+01  1.00800000E+00  1.00800000E+00
  1.60000000E+01  1.00800000E+00  1.00800000E+00  1.60000000E+01  1.00800000E+00
  1.00800000E+00  1.60000000E+01  1.00800000E+00  1.00800000E+00  1.60000000E+01
  1.00800000E+00  1.00800000E+00  1.60000000E+01  1.00800000E+00  1.00800000E+00
  1.60000000E+01  1.00800000E+00  1.00800000E+00  1.60000000E+01  1.00800000E+00
  1.00800000E+00  1.60000000E+01  1.00800000E+00  1.00800000E+00  1.60000000E+01
  1.00800000E+00  1.00800000E+00  1.60000000E+01  1.00800000E+00  1.00800000E+00
  1.60000000E+01  1.00800000E+00  1.00800000E+00  1.60000000E+01  1.00800000E+00
  1.00800000E+00  1.60000000E+01  1.00800000E+00  1.00800000E+00  1.60000000E+01
  1.00800000E+00  1.00800000E+00  1.60000000E+01  1.00800000E+00  1.00800000E+00
  1.60000000E+01  1.00800000E+00  1.00800000E+00  1.60000000E+01  1.00800000E+00
  1.00800000E+00  1.60000000E+01  1.00800000E+00  1.00800000E+00  1.60000000E+01
  1.00800000E+00  1.00800000E+00  1.60000000E+01  1.00800000E+00  1.00800000E+00
  1.60000000E+01  1.00800000E+00  1.00800000E+00  1.60000000E+01  1.00800000E+00
  1.00800000E+00  1.60000000E+01  1.00800000E+00  1.00800000E+00  1.60000000E+01
  1.00800000E+00  1.00800000E+00  1.60000000E+01  1.00800000E+00  1.00800000E+00
  1.60000000E+01  1.00800000E+00  1.00800000E+00  1.60000000E+01  1.00800000E+00
  1.00800000E+00  1.60000000E+01  1.00800000E+00  1.00800000E+00  1.60000000E+01
  1.00800000E+00  1.00800000E+00  1.60000000E+01  1.00800000E+00  1.00800000E+00
  1.60000000E+01  1.00800000E+00  1.00800000E+00  1.60000000E+01  1.00800000E+00
  1.00800000E+00  1.60000000E+01  1.00800000E+00  1.00800000E+00  1.60000000E+01
  1.00800000E+00  1.00800000E+00  1.60000000E+01  1.00800000E+00  1.00800000E+00
  1.60000000E+01  1.00800000E+00  1.00800000E+00  1.60000000E+01  1.00800000E+00
  1.00800000E+00  1.60000000E+01  1.00800000E+00  1.00800000E+00  1.60000000E+01
  1.00800000E+00  1.00800000E+00  1.60000000E+01  1.00800000E+00  1.00800000E+00
  1.60000000E+01  1.00800000E+00  1.00800000E+00  1.60000000E+01  1.00800000E+00
  1.00800000E+00  1.60000000E+01  1.00800000E+00  1.00800000E+00  1.60000000E+01
  1.00800000E+00  1.00800000E+00  1.60000000E+01  1.00800000E+00  1.00800000E+00
  1.60000000E+01  1.00800000E+00  1.00800000E+00  1.60000000E+01  1.00800000E+00
  1.00800000E+00  1.60000000E+01  1.00800000E+00  1.00800000E+00  1.60000000E+01
  1.00800000E+00  1.00800000E+00  1.60000000E+01  1.00800000E+00  1.00800000E+00
  1.60000000E+01  1.00800000E+00  1.00800000E+00  1.60000000E+01  1.00800000E+00
  1.00800000E+00  1.60000000E+01  1.00800000E+00  1.00800000E+00  1.60000000E+01
  1.00800000E+00  1.00800000E+00  1.60000000E+01  1.00800000E+00  1.00800000E+00
  1.60000000E+01  1.00800000E+00  1.00800000E+00  1.60000000E+01  1.00800000E+00
  1.00800000E+00  1.60000000E+01  1.00800000E+00  1.00800000E+00  1.60000000E+01
  1.00800000E+00  1.00800000E+00  1.60000000E+01  1.00800000E+00  1.00800000E+00
  1.60000000E+01  1.00800000E+00  1.00800000E+00  1.60000000E+01  1.00800000E+00
  1.00800000E+00  1.60000000E+01  1.00800000E+00  1.00800000E+00  1.60000000E+01
  1.00800000E+00  1.00800000E+00  1.60000000E+01  1.00800000E+00  1.00800000E+00
  1.60000000E+01  1.00800000E+00  1.00800000E+00  1.60000000E+01  1.00800000E+00
  1.00800000E+00  1.60000000E+01  1.00800000E+00  1.00800000E+00  1.60000000E+01
  1.00800000E+00  1.00800000E+00  1.60000000E+01  1.00800000E+00  1.00800000E+00
  1.60000000E+01  1.00800000E+00  1.00800000E+00  1.60000000E+01  1.00800000E+00
  1.00800000E+00  1.60000000E+01  1.00800000E+00  1.00800000E+00  1.60000000E+01
  1.00800000E+00  1.00800000E+00  1.60000000E+01  1.00800000E+00  1.00800000E+00
  1.60000000E+01  1.00800000E+00  1.00800000E+00  1.60000000E+01  1.00800000E+00
  1.00800000E+00  1.60000000E+01  1.00800000E+00  1.00800000E+00  1.60000000E+01
  1.00800000E+00  1.00800000E+00  1.60000000E+01  1.00800000E+00  1.00800000E+00
  1.60000000E+01  1.00800000E+00  1.00800000E+00  1.60000000E+01  1.00800000E+00
  1.00800000E+00  1.60000000E+01  1.00800000E+00  1.00800000E+00  1.60000000E+01
  1.00800000E+00  1.00800000E+00  1.60000000E+01  1.00800000E+00  1.00800000E+00
  1.60000000E+01  1.00800000E+00  1.00800000E+00  1.60000000E+01  1.00800000E+00
  1.00800000E+00  1.60000000E+01  1.00800000E+00  1.00800000E+00  1.60000000E+01
  1.00800000E+00  1.00800000E+00  1.60000000E+01  1.00800000E+00  1.00800000E+00
  1.60000000E+01  1.00800000E+00  1.00800000E+00  1.60000000E+01  1.00800000E+00
  1.00800000E+00  1.60000000E+01  1.00800000E+00  1.00800000E+00  1.60000000E+01
  1.00800000E+00  1.00800000E+00  1.60000000E+01  1.00800000E+00  1.00800000E+00
  1.60000000E+01  1.00800000E+00  1.00800000E+00  1.60000000E+01  1.00800000E+00
  1.00800000E+00  1.60000000E+01  1.00800000E+00  1.00800000E+00  1.60000000E+01
  1.00800000E+00  1.00800000E+00  1.60000000E+01  1.00800000E+00  1.00800000E+00
  1.60000000E+01  1.00800000E+00  1.00800000E+00  1.60000000E+01  1.00800000E+00
  1.00800000E+00  1.60000000E+01  1.00800000E+00  1.00800000E+00  1.60000000E+01
  1.00800000E+00  1.00800000E+00  1.60000000E+01  1.00800000E+00  1.00800000E+00
  1.60000000E+01  1.00800000E+00  1.00800000E+00  1.60000000E+01  1.00800000E+00
  1.00800000E+00  1.60000000E+01  1.00800000E+00  1.00800000E+00  1.60000000E+01
  1.00800000E+00  1.00800000E+00  1.60000000E+01  1.00800000E+00  1.00800000E+00
  1.60000000E+01  1.00800000E+00  1.00800000E+00  1.60000000E+01  1.00800000E+00
  1.00800000E+00  1.60000000E+01  1.00800000E+00  1.00800000E+00  1.60000000E+01
  1.00800000E+00  1.00800000E+00  1.60000000E+01  1.00800000E+00  1.00800000E+00
  1.60000000E+01  1.00800000E+00  1.00800000E+00  1.60000000E+01  1.00800000E+00
  1.00800000E+00  1.60000000E+01  1.00800000E+00  1.00800000E+00  1.60000000E+01
  1.00800000E+00  1.00800000E+00  1.60000000E+01  1.00800000E+00  1.00800000E+00
  1.60000000E+01  1.00800000E+00  1.00800000E+00  1.60000000E+01  1.00800000E+00
  1.00800000E+00  1.60000000E+01  1.00800000E+00  1.00800000E+00  1.60000000E+01
  1.00800000E+00  1.00800000E+00  1.60000000E+01  1.00800000E+00  1.00800000E+00
  1.60000000E+01  1.00800000E+00  1.00800000E+00  1.60000000E+01  1.00800000E+00
  1.00800000E+00  1.60000000E+01  1.00800000E+00  1.00800000E+00  1.60000000E+01
  1.00800000E+00  1.00800000E+00  1.60000000E+01  1.00800000E+00  1.00800000E+00
  1.60000000E+01  1.00800000E+00  1.00800000E+00  1.60000000E+01  1.00800000E+00
  1.00800000E+00  1.60000000E+01  1.00800000E+00  1.00800000E+00  1.60000000E+01
  1.00800000E+00  1.00800000E+00  1.60000000E+01  1.00800000E+00  1.00800000E+00
  1.60000000E+01  1.00800000E+00  1.00800000E+00  1.60000000E+01  1.00800000E+00
  1.00800000E+00  1.60000000E+01  1.00800000E+00  1.00800000E+00  1.60000000E+01
  1.00800000E+00  1.00800000E+00  1.60000000E+01  1.00800000E+00  1.00800000E+00
  1.60000000E+01  1.00800000E+00  1.00800000E+00  1.60000000E+01  1.00800000E+00
  1.00800000E+00  1.60000000E+01  1.00800000E+00  1.00800000E+00  1.60000000E+01
  1.00800000E+00  1.00800000E+00  1.60000000E+01  1.00800000E+00  1.00800000E+00
  1.60000000E+01  1.00800000E+00  1.00800000E+00  1.60000000E+01  1.00800000E+00
  1.00800000E+00  1.60000000E+01  1.00800000E+00  1.00800000E+00  1.60000000E+01
  1.00800000E+00  1.00800000E+00  1.60000000E+01  1.00800000E+00  1.00800000E+00
  1.60000000E+01  1.00800000E+00  1.00800000E+00  1.60000000E+01  1.00800000E+00
  1.00800000E+00  1.60000000E+01  1.00800000E+00  1.00800000E+00  1.60000000E+01
  1.00800000E+00  1.00800000E+00  1.60000000E+01  1.00800000E+00  1.00800000E+00
  1.60000000E+01  1.00800000E+00  1.00800000E+00  1.60000000E+01  1.00800000E+00
  1.00800000E+00  1.60000000E+01  1.00800000E+00  1.00800000E+00  1.60000000E+01
  1.00800000E+00  1.00800000E+00  1.60000000E+01  1.00800000E+00  1.00800000E+00
  1.60000000E+01  1.00800000E+00  1.00800000E+00  1.60000000E+01  1.00800000E+00
  1.00800000E+00  1.60000000E+01  1.00800000E+00  1.00800000E+00  1.60000000E+01
  1.00800000E+00  1.00800000E+00  1.60000000E+01  1.00800000E+00  1.00800000E+00
  1.60000000E+01  1.00800000E+00  1.00800000E+00  1.60000000E+01  1.00800000E+00
  1.00800000E+00  1.60000000E+01  1.00800000E+00  1.00800000E+00  1.60000000E+01
  1.00800000E+00  1.00800000E+00  1.60000000E+01  1.00800000E+00  1.00800000E+00
  1.60000000E+01  1.00800000E+00  1.00800000E+00  1.60000000E+01  1.00800000E+00
  1.00800000E+00  1.60000000E+01  1.00800000E+00  1.00800000E+00  1.60000000E+01
  1.00800000E+00  1.00800000E+00  1.60000000E+01  1.00800000E+00  1.00800000E+00
  1.60000000E+01  1.00800000E+00  1.00800000E+00  1.60000000E+01  1.00800000E+00
  1.00800000E+00  1.60000000E+01  1.00800000E+00  1.00800000E+00  1.60000000E+01
  1.00800000E+00  1.00800000E+00  1.60000000E+01  1.00800000E+00  1.00800000E+00
  1.60000000E+01  1.00800000E+00  1.00800000E+00  1.60000000E+01  1.00800000E+00
  1.00800000E+00  1.60000000E+01  1.00800000E+00  1.00800000E+00  1.60000000E+01
  1.00800000E+00  1.00800000E+00  1.60000000E+01  1.00800000E+00  1.00800000E+00
  1.60000000E+01  1.00800000E+00  1.00800000E+00  1.60000000E+01  1.00800000E+00
  1.00800000E+00  1.60000000E+01  1.00800000E+00  1.00800000E+00  1.60000000E+01
  1.00800000E+00  1.00800000E+00  1.60000000E+01  1.00800000E+00  1.00800000E+00
  1.60000000E+01  1.00800000E+00  1.00800000E+00  1.60000000E+01  1.00800000E+00
  1.00800000E+00  1.60000000E+01  1.00800000E+00  1.00800000E+00  1.60000000E+01
  1.00800000E+00  1.00800000E+00  1.60000000E+01  1.00800000E+00  1.00800000E+00
  1.60000000E+01  1.00800000E+00  1.00800000E+00  1.60000000E+01  1.00800000E+00
  1.00800000E+00  1.60000000E+01  1.00800000E+00  1.00800000E+00  1.60000000E+01
  1.00800000E+00  1.00800000E+00  1.60000000E+01  1.00800000E+00  1.00800000E+00
  1.60000000E+01  1.00800000E+00  1.00800000E+00  1.60000000E+01  1.00800000E+00
  1.00800000E+00  1.60000000E+01  1.00800000E+00  1.00800000E+00  1.60000000E+01
  1.00800000E+00  1.00800000E+00  1.60000000E+01  1.00800000E+00  1.00800000E+00
  1.60000000E+01  1.00800000E+00  1.00800000E+00  1.60000000E+01  1.00800000E+00
  1.00800000E+00  1.60000000E+01  1.00800000E+00  1.00800000E+00  1.60000000E+01
  1.00800000E+00  1.00800000E+00  1.60000000E+01  1.00800000E+00  1.00800000E+00
  1.60000000E+01  1.00800000E+00  1.00800000E+00  1.60000000E+01  1.00800000E+00
  1.00800000E+00  1.60000000E+01  1.00800000E+00  1.00800000E+00  1.60000000E+01
  1.00800000E+00  1.00800000E+00  1.60000000E+01  1.00800000E+00  1.00800000E+00
  1.60000000E+01  1.00800000E+00  1.00800000E+00  1.60000000E+01  1.00800000E+00
  1.00800000E+00  1.60000000E+01  1.00800000E+00  1.00800000E+00  1.60000000E+01
  1.00800000E+00  1.00800000E+00  1.60000000E+01  1.00800000E+00  1.00800000E+00
  1.60000000E+01  1.00800000E+00  1.00800000E+00  1.60000000E+01  1.00800000E+00
  1.00800000E+00  1.60000000E+01  1.00800000E+00  1.00800000E+00  1.60000000E+01
  1.00800000E+00  1.00800000E+00  1.60000000E+01  1.00800000E+00  1.00800000E+00
  1.60000000E+01  1.00800000E+00  1.00800000E+00  1.60000000E+01  1.00800000E+00
  1.00800000E+00  1.60000000E+01  1.00800000E+00  1.00800000E+00  1.60000000E+01
  1.00800000E+00  1.00800000E+00  1.60000000E+01  1.00800000E+00  1.00800000E+00
  1.60000000E+01  1.00800000E+00  1.00800000E+00  1.60000000E+01  1.00800000E+00
  1.00800000E+00  1.60000000E+01  1.00800000E+00  1.00800000E+00  1.60000000E+01
  1.00800000E+00  1.00800000E+00  1.60000000E+01  1.00800000E+00  1.00800000E+00
  1.60000000E+01  1.00800000E+00  1.00800000E+00  1.60000000E+01  1.00800000E+00
  1.00800000E+00  1.60000000E+01  1.00800000E+00  1.00800000E+00  1.60000000E+01
  1.00800000E+00  1.00800000E+00  1.60000000E+01  1.00800000E+00  1.00800000E+00
  1.60000000E+01  1.00800000E+00  1.00800000E+00  1.60000000E+01  1.00800000E+00
  1.00800000E+00  1.60000000E+01  1.00800000E+00  1.00800000E+00  1.60000000E+01
  1.00800000E+00  1.00800000E+00  1.60000000E+01  1.00800000E+00  1.00800000E+00
  1.60000000E+01  1.00800000E+00  1.00800000E+00  1.60000000E+01  1.00800000E+00
  1.00800000E+00  1.60000000E+01  1.00800000E+00  1.00800000E+00  1.60000000E+01
  1.00800000E+00  1.00800000E+00  1.60000000E+01  1.00800000E+00  1.00800000E+00
  1.60000000E+01  1.00800000E+00  1.00800000E+00  1.60000000E+01  1.00800000E+00
  1.00800000E+00  1.60000000E+01  1.00800000E+00  1.00800000E+00  1.60000000E+01
  1.00800000E+00  1.00800000E+00  1.60000000E+01  1.00800000E+00  1.00800000E+00
  1.60000000E+01  1.00800000E+00  1.00800000E+00  1.60000000E+01  1.00800000E+00
  1.00800000E+00  1.60000000E+01  1.00800000E+00  1.00800000E+00  1.60000000E+01
  1.00800000E+00  1.00800000E+00  1.60000000E+01  1.00800000E+00  1.00800000E+00
  1.60000000E+01  1.00800000E+00  1.00800000E+00  1.60000000E+01  1.00800000E+00
  1.00800000E+00  1.60000000E+01  1.00800000E+00  1.00800000E+00  1.60000000E+01
  1.00800000E+00  1.00800000E+00  1.60000000E+01  1.00800000E+00  1.00800000E+00
  1.60000000E+01  1.00800000E+00  1.00800000E+00  1.60000000E+01  1.00800000E+00
  1.00800000E+00  1.60000000E+01  1.00800000E+00  1.00800000E+00  1.60000000E+01
  1.00800000E+00  1.00800000E+00  1.60000000E+01  1.00800000E+00  1.00800000E+00
  1.60000000E+01  1.00800000E+00  1.00800000E+00  1.60000000E+01  1.00800000E+00
  1.00800000E+00  1.60000000E+01  1.00800000E+00  1.00800000E+00  1.60000000E+01
  1.00800000E+00  1.00800000E+00  1.60000000E+01  1.00800000E+00  1.00800000E+00
  1.60000000E+01  1.00800000E+00  1.00800000E+00  1.60000000E+01  1.00800000E+00
  1.00800000E+00  1.60000000E+01  1.00800000E+00  1.00800000E+00  1.60000000E+01
  1.00800000E+00  1.00800000E+00  1.60000000E+01  1.00800000E+00  1.00800000E+00
  1.60000000E+01  1.00800000E+00  1.00800000E+00  1.60000000E+01  1.00800000E+00
  1.00800000E+00  1.60000000E+01  1.00800000E+00  1.00800000E+00  1.60000000E+01
  1.00800000E+00  1.00800000E+00  1.60000000E+01  1.00800000E+00  1.00800000E+00
  1.60000000E+01  1.00800000E+00  1.00800000E+00  1.60000000E+01  1.00800000E+00
  1.00800000E+00  1.60000000E+01  1.00800000E+00  1.00800000E+00  1.60000000E+01
  1.00800000E+00  1.00800000E+00  1.60000000E+01  1.00800000E+00  1.00800000E+00
  1.60000000E+01  1.00800000E+00  1.00800000E+00  1.60000000E+01  1.00800000E+00
  1.00800000E+00  1.60000000E+01  1.00800000E+00  1.00800000E+00  1.60000000E+01
  1.00800000E+00  1.00800000E+00  1.60000000E+01  1.00800000E+00  1.00800000E+00
  1.60000000E+01  1.00800000E+00  1.00800000E+00  1.60000000E+01  1.00800000E+00
  1.00800000E+00  1.60000000E+01  1.00800000E+00  1.00800000E+00  1.60000000E+01
  1.00800000E+00  1.00800000E+00  1.60000000E+01  1.00800000E+00  1.00800000E+00
  1.60000000E+01  1.00800000E+00  1.00800000E+00  1.60000000E+01  1.00800000E+00
  1.00800000E+00  1.60000000E+01  1.00800000E+00  1.00800000E+00  1.60000000E+01
  1.00800000E+00  1.00800000E+00  1.60000000E+01  1.00800000E+00  1.00800000E+00
  1.60000000E+01  1.00800000E+00  1.00800000E+00  1.60000000E+01  1.00800000E+00
  1.00800000E+00  1.60000000E+01  1.00800000E+00  1.00800000E+00  1.60000000E+01
  1.00800000E+00  1.00800000E+00  1.60000000E+01  1.00800000E+00  1.00800000E+00
  1.60000000E+01  1.00800000E+00  1.00800000E+00  1.60000000E+01  1.00800000E+00
  1.00800000E+00  1.60000000E+01  1.00800000E+00  1.00800000E+00  1.60000000E+01
  1.00800000E+00  1.00800000E+00  1.60000000E+01  1.00800000E+00  1.00800000E+00
  1.60000000E+01  1.00800000E+00  1.00800000E+00  1.60000000E+01  1.00800000E+00
  1.00800000E+00  1.60000000E+01  1.00800000E+00  1.00800000E+00  1.60000000E+01
  1.00800000E+00  1.00800000E+00  1.60000000E+01  1.00800000E+00  1.00800000E+00
  1.60000000E+01  1.00800000E+00  1.00800000E+00  1.60000000E+01  1.00800000E+00
  1.00800000E+00  1.60000000E+01  1.00800000E+00  1.00800000E+00  1.60000000E+01
  1.00800000E+00  1.00800000E+00  1.60000000E+01  1.00800000E+00  1.00800000E+00
  1.60000000E+01  1.00800000E+00  1.00800000E+00  1.60000000E+01  1.00800000E+00
  1.00800000E+00  1.60000000E+01  1.00800000E+00  1.00800000E+00  1.60000000E+01
  1.00800000E+00  1.00800000E+00  1.60000000E+01  1.00800000E+00  1.00800000E+00
  1.60000000E+01  1.00800000E+00  1.00800000E+00  1.60000000E+01  1.00800000E+00
  1.00800000E+00  1.60000000E+01  1.00800000E+00  1.00800000E+00  1.60000000E+01
  1.00800000E+00  1.00800000E+00  1.60000000E+01  1.00800000E+00  1.00800000E+00
  1.60000000E+01  1.00800000E+00  1.00800000E+00  1.60000000E+01  1.00800000E+00
  1.00800000E+00  1.60000000E+01  1.00800000E+00  1.00800000E+00  1.60000000E+01
  1.00800000E+00  1.00800000E+00  1.60000000E+01  1.00800000E+00  1.00800000E+00
  1.60000000E+01  1.00800000E+00  1.00800000E+00  1.60000000E+01  1.00800000E+00
  1.00800000E+00  1.60000000E+01  1.00800000E+00  1.00800000E+00  1.60000000E+01
  1.00800000E+00  1.00800000E+00  1.60000000E+01  1.00800000E+00  1.00800000E+00
  1.60000000E+01  1.00800000E+00  1.00800000E+00  1.60000000E+01  1.00800000E+00
  1.00800000E+00  1.60000000E+01  1.00800000E+00  1.00800000E+00  1.60000000E+01
  1.00800000E+00  1.00800000E+00  1.60000000E+01  1.00800000E+00  1.00800000E+00
  1.60000000E+01  1.00800000E+00  1.00800000E+00  1.60000000E+01  1.00800000E+00
  1.00800000E+00  1.60000000E+01  1.00800000E+00  1.00800000E+00  1.60000000E+01
  1.00800000E+00  1.00800000E+00  1.60000000E+01  1.00800000E+00  1.00800000E+00
  1.60000000E+01  1.00800000E+00  1.00800000E+00  1.60000000E+01  1.00800000E+00
  1.00800000E+00  1.60000000E+01  1.00800000E+00  1.00800000E+00  1.60000000E+01
  1.00800000E+00  1.00800000E+00  1.60000000E+01  1.00800000E+00  1.00800000E+00
  1.60000000E+01  1.00800000E+00  1.00800000E+00  1.60000000E+01  1.00800000E+00
  1.00800000E+00  1.60000000E+01  1.00800000E+00  1.00800000E+00  1.60000000E+01
  1.00800000E+00  1.00800000E+00  1.60000000E+01  1.00800000E+00  1.00800000E+00
  1.60000000E+01  1.00800000E+00  1.00800000E+00  1.60000000E+01  1.00800000E+00
  1.00800000E+00  1.60000000E+01  1.00800000E+00  1.00800000E+00  1.60000000E+01
  1.00800000E+00  1.00800000E+00  1.60000000E+01  1.00800000E+00  1.00800000E+00
  1.60000000E+01  1.00800000E+00  1.00800000E+00  1.60000000E+01  1.00800000E+00
  1.00800000E+00  1.60000000E+01  1.00800000E+00  1.00800000E+00  1.60000000E+01
  1.00800000E+00  1.00800000E+00  1.60000000E+01  1.00800000E+00  1.00800000E+00
  1.60000000E+01  1.00800000E+00  1.00800000E+00  1.60000000E+01  1.00800000E+00
  1.00800000E+00  1.60000000E+01  1.00800000E+00  1.00800000E+00  1.60000000E+01
  1.00800000E+00  1.00800000E+00  1.60000000E+01  1.00800000E+00  1.00800000E+00
  1.60000000E+01  1.00800000E+00  1.00800000E+00  1.60000000E+01  1.00800000E+00
  1.00800000E+00  1.60000000E+01  1.00800000E+00  1.00800000E+00  1.60000000E+01
  1.00800000E+00  1.00800000E+00  1.60000000E+01  1.00800000E+00  1.00800000E+00
  1.60000000E+01  1.00800000E+00  1.00800000E+00  1.60000000E+01  1.00800000E+00
  1.00800000E+00  1.60000000E+01  1.00800000E+00  1.00800000E+00  1.60000000E+01
  1.00800000E+00  1.00800000E+00  1.60000000E+01  1.00800000E+00  1.00800000E+00
  1.60000000E+01  1.00800000E+00  1.00800000E+00  1.60000000E+01  1.00800000E+00
  1.00800000E+00  1.60000000E+01  1.00800000E+00  1.00800000E+00  1.60000000E+01
  1.00800000E+00  1.00800000E+00  1.60000000E+01  1.00800000E+00  1.00800000E+00
  1.60000000E+01  1.00800000E+00  1.00800000E+00  1.60000000E+01  1.00800000E+00
  1.00800000E+00  1.60000000E+01  1.00800000E+00  1.00800000E+00  1.60000000E+01
  1.00800000E+00  1.00800000E+00  1.60000000E+01  1.00800000E+00  1.00800000E+00
  1.60000000E+01  1.00800000E+00  1.00800000E+00  1.60000000E+01  1.00800000E+00
  1.00800000E+00  1.60000000E+01  1.00800000E+00  1.00800000E+00  1.60000000E+01
  1.00800000E+00  1.00800000E+00  1.60000000E+01  1.00800000E+00  1.00800000E+00
  1.60000000E+01  1.00800000E+00  1.00800000E+00  1.60000000E+01  1.00800000E+00
  1.00800000E+00  1.60000000E+01  1.00800000E+00  1.00800000E+00  1.60000000E+01
  1.00800000E+00  1.00800000E+00  1.60000000E+01  1.00800000E+00  1.00800000E+00
  1.60000000E+01  1.00800000E+00  1.00800000E+00  1.60000000E+01  1.00800000E+00
  1.00800000E+00  1.60000000E+01  1.00800000E+00  1.00800000E+00  1.60000000E+01
  1.00800000E+00  1.00800000E+00  1.60000000E+01  1.00800000E+00  1.00800000E+00
  1.60000000E+01  1.00800000E+00  1.00800000E+00  1.60000000E+01  1.00800000E+00
  1.00800000E+00  1.60000000E+01  1.00800000E+00  1.00800000E+00  1.60000000E+01
  1.00800000E+00  1.00800000E+00  1.60000000E+01  1.00800000E+00  1.00800000E+00
  1.60000000E+01  1.00800000E+00  1.00800000E+00  1.60000000E+01  1.00800000E+00
  1.00800000E+00  1.60000000E+01  1.00800000E+00  1.00800000E+00  1.60000000E+01
  1.00800000E+00  1.00800000E+00  1.60000000E+01  1.00800000E+00  1.00800000E+00
  1.60000000E+01  1.00800000E+00  1.00800000E+00  1.60000000E+01  1.00800000E+00
  1.00800000E+00  1.60000000E+01  1.00800000E+00  1.00800000E+00  1.60000000E+01
  1.00800000E+00  1.00800000E+00  1.60000000E+01  1.00800000E+00  1.00800000E+00
  1.60000000E+01  1.00800000E+00  1.00800000E+00  1.60000000E+01  1.00800000E+00
  1.00800000E+00  1.60000000E+01  1.00800000E+00  1.00800000E+00  1.60000000E+01
  1.00800000E+00  1.00800000E+00  1.60000000E+01  1.00800000E+00  1.00800000E+00
  1.60000000E+01  1.00800000E+00  1.00800000E+00  1.60000000E+01  1.00800000E+00
  1.00800000E+00  1.60000000E+01  1.00800000E+00  1.00800000E+00  1.60000000E+01
  1.00800000E+00  1.00800000E+00  1.60000000E+01  1.00800000E+00  1.00800000E+00
  1.60000000E+01  1.00800000E+00  1.00800000E+00  1.60000000E+01  1.00800000E+00
  1.00800000E+00  1.60000000E+01  1.00800000E+00  1.00800000E+00  1.60000000E+01
  1.00800000E+00  1.00800000E+00  1.60000000E+01  1.00800000E+00  1.00800000E+00
  1.60000000E+01  1.00800000E+00  1.00800000E+00  1.60000000E+01  1.00800000E+00
  1.00800000E+00  1.60000000E+01  1.00800000E+00  1.00800000E+00  1.60000000E+01
  1.00800000E+00  1.00800000E+00  1.60000000E+01  1.00800000E+00  1.00800000E+00
  1.60000000E+01  1.00800000E+00  1.00800000E+00  1.60000000E+01  1.00800000E+00
  1.00800000E+00  1.60000000E+01  1.00800000E+00  1.00800000E+00  1.60000000E+01
  1.00800000E+00  1.00800000E+00  1.60000000E+01  1.00800000E+00  1.00800000E+00
  1.60000000E+01  1.00800000E+00  1.00800000E+00  1.60000000E+01  1.00800000E+00
  1.00800000E+00  1.60000000E+01  1.00800000E+00  1.00800000E+00  1.60000000E+01
  1.00800000E+00  1.00800000E+00  1.60000000E+01  1.00800000E+00  1.00800000E+00
  1.60000000E+01  1.00800000E+00  1.00800000E+00  1.60000000E+01  1.00800000E+00
  1.00800000E+00  1.60000000E+01  1.00800000E+00  1.00800000E+00  1.60000000E+01
  1.00800000E+00  1.00800000E+00  1.60000000E+01  1.00800000E+00  1.00800000E+00
  1.60000000E+01  1.00800000E+00  1.00800000E+00  1.60000000E+01  1.00800000E+00
  1.00800000E+00  1.60000000E+01  1.00800000E+00  1.00800000E+00  1.60000000E+01
  1.00800000E+00  1.00800000E+00  1.60000000E+01  1.00800000E+00  1.00800000E+00
  1.60000000E+01  1.00800000E+00  1.00800000E+00  1.60000000E+01  1.00800000E+00
  1.00800000E+00  1.60000000E+01  1.00800000E+00  1.00800000E+00  1.60000000E+01
  1.00800000E+00  1.00800000E+00  1.60000000E+01  1.00800000E+00  1.00800000E+00
  1.60000000E+01  1.00800000E+00  1.00800000E+00  1.60000000E+01  1.00800000E+00
  1.00800000E+00  1.60000000E+01  1.00800000E+00  1.00800000E+00  1.60000000E+01
  1.00800000E+00  1.00800000E+00  1.60000000E+01  1.00800000E+00  1.00800000E+00
  1.60000000E+01  1.00800000E+00  1.00800000E+00  1.60000000E+01  1.00800000E+00
  1.00800000E+00  1.60000000E+01  1.00800000E+00  1.00800000E+00  1.60000000E+01
  1.00800000E+00  1.00800000E+00  1.60000000E+01  1.00800000E+00  1.00800000E+00
  1.60000000E+01  1.00800000E+00  1.00800000E+00  1.60000000E+01  1.00800000E+00
  1.00800000E+00  1.60000000E+01  1.00800000E+00  1.00800000E+00  1.60000000E+01
  1.00800000E+00  1.00800000E+00  1.60000000E+01  1.00800000E+00  1.00800000E+00
  1.60000000E+01  1.00800000E+00  1.00800000E+00  1.60000000E+01  1.00800000E+00
  1.00800000E+00  1.60000000E+01  1.00800000E+00  1.00800000E+00  1.60000000E+01
  1.00800000E+00  1.00800000E+00  1.60000000E+01  1.00800000E+00  1.00800000E+00
  1.60000000E+01  1.00800000E+00  1.00800000E+00  1.60000000E+01  1.00800000E+00
  1.00800000E+00  1.60000000E+01  1.00800000E+00  1.00800000E+00  1.60000000E+01
  1.00800000E+00  1.00800000E+00  1.60000000E+01  1.00800000E+00  1.00800000E+00
  1.60000000E+01  1.00800000E+00  1.00800000E+00  1.60000000E+01  1.00800000E+00
  1.00800000E+00  1.60000000E+01  1.00800000E+00  1.00800000E+00  1.60000000E+01
  1.00800000E+00  1.00800000E+00  1.60000000E+01  1.00800000E+00  1.00800000E+00
  1.60000000E+01  1.00800000E+00  1.00800000E+00  1.60000000E+01  1.00800000E+00
  1.00800000E+00  1.60000000E+01  1.00800000E+00  1.00800000E+00  1.60000000E+01
  1.00800000E+00  1.00800000E+00  1.60000000E+01  1.00800000E+00  1.00800000E+00
  1.60000000E+01  1.00800000E+00  1.00800000E+00  1.60000000E+01  1.00800000E+00
  1.00800000E+00  1.60000000E+01  1.00800000E+00  1.00800000E+00  1.60000000E+01
  1.00800000E+00  1.00800000E+00  1.60000000E+01  1.00800000E+00  1.00800000E+00
  1.60000000E+01  1.00800000E+00  1.00800000E+00  1.60000000E+01  1.00800000E+00
  1.00800000E+00  1.60000000E+01  1.00800000E+00  1.00800000E+00  1.60000000E+01
  1.00800000E+00  1.00800000E+00  1.60000000E+01  1.00800000E+00  1.00800000E+00
  1.60000000E+01  1.00800000E+00  1.00800000E+00  1.60000000E+01  1.00800000E+00
  1.00800000E+00  1.60000000E+01  1.00800000E+00  1.00800000E+00  1.60000000E+01
  1.00800000E+00  1.00800000E+00  1.60000000E+01  1.00800000E+00  1.00800000E+00
  1.60000000E+01  1.00800000E+00  1.00800000E+00  1.60000000E+01  1.00800000E+00
  1.00800000E+00  1.60000000E+01  1.00800000E+00  1.00800000E+00  1.60000000E+01
  1.00800000E+00  1.00800000E+00  1.60000000E+01  1.00800000E+00  1.00800000E+00
  1.60000000E+01  1.00800000E+00  1.00800000E+00  1.60000000E+01  1.00800000E+00
  1.00800000E+00  1.60000000E+01  1.00800000E+00  1.00800000E+00  1.60000000E+01
  1.00800000E+00  1.00800000E+00  1.60000000E+01  1.00800000E+00  1.00800000E+00
  1.60000000E+01  1.00800000E+00  1.00800000E+00  1.60000000E+01  1.00800000E+00
  1.00800000E+00  1.60000000E+01  1.00800000E+00  1.00800000E+00  1.60000000E+01
  1.00800000E+00  1.00800000E+00  1.60000000E+01  1.00800000E+00  1.00800000E+00
  1.60000000E+01  1.00800000E+00  1.00800000E+00  1.60000000E+01  1.00800000E+00
  1.00800000E+00  1.60000000E+01  1.00800000E+00  1.00800000E+00  1.60000000E+01
  1.00800000E+00  1.00800000E+00  1.60000000E+01  1.00800000E+00  1.00800000E+00
  1.60000000E+01  1.00800000E+00  1.00800000E+00  1.60000000E+01  1.00800000E+00
  1.00800000E+00  1.60000000E+01  1.00800000E+00  1.00800000E+00  1.60000000E+01
  1.00800000E+00  1.00800000E+00  1.60000000E+01  1.00800000E+00  1.00800000E+00
  1.60000000E+01  1.00800000E+00  1.00800000E+00  1.60000000E+01  1.00800000E+00
  1.00800000E+00  1.60000000E+01  1.00800000E+00  1.00800000E+00  1.60000000E+01
  1.00800000E+00  1.00800000E+00  1.60000000E+01  1.00800000E+00  1.00800000E+00
  1.60000000E+01  1.00800000E+00  1.00800000E+00  1.60000000E+01  1.00800000E+00
  1.00800000E+00  1.60000000E+01  1.00800000E+00  1.00800000E+00  1.60000000E+01
  1.00800000E+00  1.00800000E+00  1.60000000E+01  1.00800000E+00  1.00800000E+00
  1.60000000E+01  1.00800000E+00  1.00800000E+00  1.60000000E+01  1.00800000E+00
  1.00800000E+00  1.60000000E+01  1.00800000E+00  1.00800000E+00  1.60000000E+01
  1.00800000E+00  1.00800000E+00  1.60000000E+01  1.00800000E+00  1.00800000E+00
  1.60000000E+01  1.00800000E+00  1.00800000E+00  1.60000000E+01  1.00800000E+00
  1.00800000E+00  1.60000000E+01  1.00800000E+00  1.00800000E+00  1.60000000E+01
  1.00800000E+00  1.00800000E+00  1.60000000E+01  1.00800000E+00  1.00800000E+00
  1.60000000E+01  1.00800000E+00  1.00800000E+00  1.60000000E+01  1.00800000E+00
  1.00800000E+00  1.60000000E+01  1.00800000E+00  1.00800000E+00  1.60000000E+01
  1.00800000E+00  1.00800000E+00  1.60000000E+01  1.00800000E+00  1.00800000E+00
  1.60000000E+01  1.00800000E+00  1.00800000E+00  1.60000000E+01  1.00800000E+00
  1.00800000E+00  1.60000000E+01  1.00800000E+00  1.00800000E+00  1.60000000E+01
  1.00800000E+00  1.00800000E+00  1.60000000E+01  1.00800000E+00  1.00800000E+00
  1.60000000E+01  1.00800000E+00  1.00800000E+00  1.60000000E+01  1.00800000E+00
  1.00800000E+00  1.60000000E+01  1.00800000E+00  1.00800000E+00  1.60000000E+01
  1.00800000E+00  1.00800000E+00  1.60000000E+01  1.00800000E+00  1.00800000E+00
  1.60000000E+01  1.00800000E+00  1.00800000E+00  1.60000000E+01  1.00800000E+00
  1.00800000E+00  1.60000000E+01  1.00800000E+00  1.00800000E+00  1.60000000E+01
  1.00800000E+00  1.00800000E+00  1.60000000E+01  1.00800000E+00  1.00800000E+00
  1.60000000E+01  1.00800000E+00  1.00800000E+00  1.60000000E+01  1.00800000E+00
  1.00800000E+00  1.60000000E+01  1.00800000E+00  1.00800000E+00  1.60000000E+01
  1.00800000E+00  1.00800000E+00  1.60000000E+01  1.00800000E+00  1.00800000E+00
  1.60000000E+01  1.00800000E+00  1.00800000E+00  1.60000000E+01  1.00800000E+00
  1.00800000E+00  1.60000000E+01  1.00800000E+00  1.00800000E+00  1.60000000E+01
  1.00800000E+00  1.00800000E+00  1.60000000E+01  1.00800000E+00  1.00800000E+00
  1.60000000E+01  1.00800000E+00  1.00800000E+00  1.60000000E+01  1.00800000E+00
  1.00800000E+00  1.60000000E+01  1.00800000E+00  1.00800000E+00  1.60000000E+01
  1.00800000E+00  1.00800000E+00  1.60000000E+01  1.00800000E+00  1.00800000E+00
  1.60000000E+01  1.00800000E+00  1.00800000E+00  1.60000000E+01  1.00800000E+00
  1.00800000E+00  1.60000000E+01  1.00800000E+00  1.00800000E+00  1.60000000E+01
  1.00800000E+00  1.00800000E+00  1.60000000E+01  1.00800000E+00  1.00800000E+00
  1.60000000E+01  1.00800000E+00  1.00800000E+00  1.60000000E+01  1.00800000E+00
  1.00800000E+00  1.60000000E+01  1.00800000E+00  1.00800000E+00  1.60000000E+01
  1.00800000E+00  1.00800000E+00  1.60000000E+01  1.00800000E+00  1.00800000E+00
  1.60000000E+01  1.00800000E+00  1.00800000E+00  1.60000000E+01  1.00800000E+00
  1.00800000E+00  1.60000000E+01  1.00800000E+00  1.00800000E+00  1.60000000E+01
  1.00800000E+00  1.00800000E+00  1.60000000E+01  1.00800000E+00  1.00800000E+00
  1.60000000E+01  1.00800000E+00  1.00800000E+00  1.60000000E+01  1.00800000E+00
  1.00800000E+00  1.60000000E+01  1.00800000E+00  1.00800000E+00  1.60000000E+01
  1.00800000E+00  1.00800000E+00  1.60000000E+01  1.00800000E+00  1.00800000E+00
  1.60000000E+01  1.00800000E+00  1.00800000E+00  1.60000000E+01  1.00800000E+00
  1.00800000E+00  1.60000000E+01  1.00800000E+00  1.00800000E+00  1.60000000E+01
  1.00800000E+00  1.00800000E+00  1.60000000E+01  1.00800000E+00  1.00800000E+00
  1.60000000E+01  1.00800000E+00  1.00800000E+00  1.60000000E+01  1.00800000E+00
  1.00800000E+00  1.60000000E+01  1.00800000E+00  1.00800000E+00  1.60000000E+01
  1.00800000E+00  1.00800000E+00  1.60000000E+01  1.00800000E+00  1.00800000E+00
  1.60000000E+01  1.00800000E+00  1.00800000E+00  1.60000000E+01  1.00800000E+00
  1.00800000E+00  1.60000000E+01  1.00800000E+00  1.00800000E+00  1.60000000E+01
  1.00800000E+00  1.00800000E+00  1.60000000E+01  1.00800000E+00  1.00800000E+00
  1.60000000E+01  1.00800000E+00  1.00800000E+00  1.60000000E+01  1.00800000E+00
  1.00800000E+00  1.60000000E+01  1.00800000E+00  1.00800000E+00  1.60000000E+01
  1.00800000E+00  1.00800000E+00  1.60000000E+01  1.00800000E+00  1.00800000E+00
  1.60000000E+01  1.00800000E+00  1.00800000E+00  1.60000000E+01  1.00800000E+00
  1.00800000E+00  1.60000000E+01  1.00800000E+00  1.00800000E+00  1.60000000E+01
  1.00800000E+00  1.00800000E+00  1.60000000E+01  1.00800000E+00  1.00800000E+00
  1.60000000E+01  1.00800000E+00  1.00800000E+00  1.60000000E+01  1.00800000E+00
  1.00800000E+00  1.60000000E+01  1.00800000E+00  1.00800000E+00  1.60000000E+01
  1.00800000E+00  1.00800000E+00  1.60000000E+01  1.00800000E+00  1.00800000E+00
  1.60000000E+01  1.00800000E+00  1.00800000E+00  1.60000000E+01  1.00800000E+00
  1.00800000E+00  1.60000000E+01  1.00800000E+00  1.00800000E+00  1.60000000E+01
  1.00800000E+00  1.00800000E+00  1.60000000E+01  1.00800000E+00  1.00800000E+00
  1.60000000E+01  1.00800000E+00  1.00800000E+00  1.60000000E+01  1.00800000E+00
  1.00800000E+00  1.60000000E+01  1.00800000E+00  1.00800000E+00  1.60000000E+01
  1.00800000E+00  1.00800000E+00  1.60000000E+01  1.00800000E+00  1.00800000E+00
  1.60000000E+01  1.00800000E+00  1.00800000E+00  1.60000000E+01  1.00800000E+00
  1.00800000E+00  1.60000000E+01  1.00800000E+00  1.00800000E+00  1.60000000E+01
  1.00800000E+00  1.00800000E+00  1.60000000E+01  1.00800000E+00  1.00800000E+00
  1.60000000E+01  1.00800000E+00  1.00800000E+00  1.60000000E+01  1.00800000E+00
  1.00800000E+00  1.60000000E+01  1.00800000E+00  1.00800000E+00  1.60000000E+01
  1.00800000E+00  1.00800000E+00  1.60000000E+01  1.00800000E+00  1.00800000E+00
  1.60000000E+01  1.00800000E+00  1.00800000E+00  1.60000000E+01  1.00800000E+00
  1.00800000E+00  1.60000000E+01  1.00800000E+00  1.00800000E+00  1.60000000E+01
  1.00800000E+00  1.00800000E+00  1.60000000E+01  1.00800000E+00  1.00800000E+00
  1.60000000E+01  1.00800000E+00  1.00800000E+00  1.60000000E+01  1.00800000E+00
  1.00800000E+00  1.60000000E+01  1.00800000E+00  1.00800000E+00  1.60000000E+01
  1.00800000E+00  1.00800000E+00  1.60000000E+01  1.00800000E+00  1.00800000E+00
  1.60000000E+01  1.00800000E+00  1.00800000E+00  1.60000000E+01  1.00800000E+00
  1.00800000E+00  1.60000000E+01  1.00800000E+00  1.00800000E+00  1.60000000E+01
  1.00800000E+00  1.00800000E+00  1.60000000E+01  1.00800000E+00  1.00800000E+00
  1.60000000E+01  1.00800000E+00  1.00800000E+00  1.60000000E+01  1.00800000E+00
  1.00800000E+00  1.60000000E+01  1.00800000E+00  1.00800000E+00  1.60000000E+01
  1.00800000E+00  1.00800000E+00  1.60000000E+01  1.00800000E+00  1.00800000E+00
  1.60000000E+01  1.00800000E+00  1.00800000E+00  1.60000000E+01  1.00800000E+00
  1.00800000E+00  1.60000000E+01  1.00800000E+00  1.00800000E+00  1.60000000E+01
  1.00800000E+00  1.00800000E+00  1.60000000E+01  1.00800000E+00  1.00800000E+00
  1.60000000E+01  1.00800000E+00  1.00800000E+00  1.60000000E+01  1.00800000E+00
  1.00800000E+00  1.60000000E+01  1.00800000E+00  1.00800000E+00  1.60000000E+01
  1.00800000E+00  1.00800000E+00  1.60000000E+01  1.00800000E+00  1.00800000E+00
  1.60000000E+01  1.00800000E+00  1.00800000E+00  1.60000000E+01  1.00800000E+00
  1.00800000E+00  1.60000000E+01  1.00800000E+00  1.00800000E+00  1.60000000E+01
  1.00800000E+00  1.00800000E+00  1.60000000E+01  1.00800000E+00  1.00800000E+00
  1.60000000E+01  1.00800000E+00  1.00800000E+00  1.60000000E+01  1.00800000E+00
  1.00800000E+00  1.60000000E+01  1.00800000E+00  1.00800000E+00  1.60000000E+01
  1.00800000E+00  1.00800000E+00  1.60000000E+01  1.00800000E+00  1.00800000E+00
  1.60000000E+01  1.00800000E+00  1.00800000E+00  1.60000000E+01  1.00800000E+00
  1.00800000E+00  1.60000000E+01  1.00800000E+00  1.00800000E+00  1.60000000E+01
  1.00800000E+00  1.00800000E+00  1.60000000E+01  1.00800000E+00  1.00800000E+00
  1.60000000E+01  1.00800000E+00  1.00800000E+00  1.60000000E+01  1.00800000E+00
  1.00800000E+00  1.60000000E+01  1.00800000E+00  1.00800000E+00  1.60000000E+01
  1.00800000E+00  1.00800000E+00  1.60000000E+01  1.00800000E+00  1.00800000E+00
  1.60000000E+01  1.00800000E+00  1.00800000E+00  1.60000000E+01  1.00800000E+00
  1.00800000E+00  1.60000000E+01  1.00800000E+00  1.00800000E+00  1.60000000E+01
  1.00800000E+00  1.00800000E+00  1.60000000E+01  1.00800000E+00  1.00800000E+00
  1.60000000E+01  1.00800000E+00  1.00800000E+00  1.60000000E+01  1.00800000E+00
  1.00800000E+00  1.60000000E+01  1.00800000E+00  1.00800000E+00  1.60000000E+01
  1.00800000E+00  1.00800000E+00  1.60000000E+01  1.00800000E+00  1.00800000E+00
  1.60000000E+01  1.00800000E+00  1.00800000E+00  1.60000000E+01  1.00800000E+00
  1.00800000E+00  1.60000000E+01  1.00800000E+00  1.00800000E+00  1.60000000E+01
  1.00800000E+00  1.00800000E+00  1.60000000E+01  1.00800000E+00  1.00800000E+00
  1.60000000E+01  1.00800000E+00  1.00800000E+00  1.60000000E+01  1.00800000E+00
  1.00800000E+00  1.60000000E+01  1.00800000E+00  1.00800000E+00  1.60000000E+01
  1.00800000E+00  1.00800000E+00  1.60000000E+01  1.00800000E+00  1.00800000E+00
  1.60000000E+01  1.00800000E+00  1.00800000E+00  1.60000000E+01  1.00800000E+00
  1.00800000E+00  1.60000000E+01  1.00800000E+00  1.00800000E+00  1.60000000E+01
  1.00800000E+00  1.00800000E+00  1.60000000E+01  1.00800000E+00  1.00800000E+00
  1.60000000E+01  1.00800000E+00  1.00800000E+00  1.60000000E+01  1.00800000E+00
  1.00800000E+00  1.60000000E+01  1.00800000E+00  1.00800000E+00  1.60000000E+01
  1.00800000E+00  1.00800000E+00  1.60000000E+01  1.00800000E+00  1.00800000E+00
  1.60000000E+01  1.00800000E+00  1.00800000E+00  1.60000000E+01  1.00800000E+00
  1.00800000E+00  1.60000000E+01  1.00800000E+00  1.00800000E+00  1.60000000E+01
  1.00800000E+00  1.00800000E+00  1.60000000E+01  1.00800000E+00  1.00800000E+00
  1.60000000E+01  1.00800000E+00  1.00800000E+00  1.60000000E+01  1.00800000E+00
  1.00800000E+00  1.60000000E+01  1.00800000E+00  1.00800000E+00  1.60000000E+01
  1.00800000E+00  1.00800000E+00  1.60000000E+01  1.00800000E+00  1.00800000E+00
  1.60000000E+01  1.00800000E+00  1.00800000E+00  1.60000000E+01  1.00800000E+00
  1.00800000E+00  1.60000000E+01  1.00800000E+00  1.00800000E+00  1.60000000E+01
  1.00800000E+00  1.00800000E+00  1.60000000E+01  1.00800000E+00  1.00800000E+00
  1.60000000E+01  1.00800000E+00  1.00800000E+00  1.60000000E+01  1.00800000E+00
  1.00800000E+00  1.60000000E+01  1.00800000E+00  1.00800000E+00  1.60000000E+01
  1.00800000E+00  1.00800000E+00  1.60000000E+01  1.00800000E+00  1.00800000E+00
  1.60000000E+01  1.00800000E+00  1.00800000E+00  1.60000000E+01  1.00800000E+00
  1.00800000E+00  1.60000000E+01  1.00800000E+00  1.00800000E+00  1.60000000E+01
  1.00800000E+00  1.00800000E+00  1.60000000E+01  1.00800000E+00  1.00800000E+00
  1.60000000E+01  1.00800000E+00  1.00800000E+00  1.60000000E+01  1.00800000E+00
  1.00800000E+00  1.60000000E+01  1.00800000E+00  1.00800000E+00  1.60000000E+01
  1.00800000E+00  1.00800000E+00  1.60000000E+01  1.00800000E+00  1.00800000E+00
  1.60000000E+01  1.00800000E+00  1.00800000E+00  1.60000000E+01  1.00800000E+00
  1.00800000E+00  1.60000000E+01  1.00800000E+00  1.00800000E+00  1.60000000E+01
  1.00800000E+00  1.00800000E+00  1.60000000E+01  1.00800000E+00  1.00800000E+00
  1.60000000E+01  1.00800000E+00  1.00800000E+00  1.60000000E+01  1.00800000E+00
  1.00800000E+00  1.60000000E+01  1.00800000E+00  1.00800000E+00  1.60000000E+01
  1.00800000E+00  1.00800000E+00  1.60000000E+01  1.00800000E+00  1.00800000E+00
  1.60000000E+01  1.00800000E+00  1.00800000E+00  1.60000000E+01  1.00800000E+00
  1.00800000E+00  1.60000000E+01  1.00800000E+00  1.00800000E+00  1.60000000E+01
  1.00800000E+00  1.00800000E+00  1.60000000E+01  1.00800000E+00  1.00800000E+00
  1.60000000E+01  1.00800000E+00  1.00800000E+00  1.60000000E+01  1.00800000E+00
  1.00800000E+00  1.60000000E+01  1.00800000E+00  1.00800000E+00  1.60000000E+01
  1.00800000E+00  1.00800000E+00  1.60000000E+01  1.00800000E+00  1.00800000E+00
  1.60000000E+01  1.00800000E+00  1.00800000E+00  1.60000000E+01  1.00800000E+00
  1.00800000E+00  1.60000000E+01  1.00800000E+00  1.00800000E+00  1.60000000E+01
  1.00800000E+00  1.00800000E+00  1.60000000E+01  1.00800000E+00  1.00800000E+00
  1.60000000E+01  1.00800000E+00  1.00800000E+00  1.60000000E+01  1.00800000E+00
  1.00800000E+00  1.60000000E+01  1.00800000E+00  1.00800000E+00  1.60000000E+01
  1.00800000E+00  1.00800000E+00  1.60000000E+01  1.00800000E+00  1.00800000E+00
  1.60000000E+01  1.00800000E+00  1.00800000E+00  1.60000000E+01  1.00800000E+00
  1.00800000E+00  1.60000000E+01  1.00800000E+00  1.00800000E+00  1.60000000E+01
  1.00800000E+00  1.00800000E+00  1.60000000E+01  1.00800000E+00  1.00800000E+00
  1.60000000E+01  1.00800000E+00  1.00800000E+00  1.60000000E+01  1.00800000E+00
  1.00800000E+00  1.60000000E+01  1.00800000E+00  1.00800000E+00  1.60000000E+01
  1.00800000E+00  1.00800000E+00  1.60000000E+01  1.00800000E+00  1.00800000E+00
  1.60000000E+01  1.00800000E+00  1.00800000E+00  1.60000000E+01  1.00800000E+00
  1.00800000E+00  1.60000000E+01  1.00800000E+00  1.00800000E+00  1.60000000E+01
  1.00800000E+00  1.00800000E+00  1.60000000E+01  1.00800000E+00  1.00800000E+00
  1.60000000E+01  1.00800000E+00  1.00800000E+00  1.60000000E+01  1.00800000E+00
  1.00800000E+00  1.60000000E+01  1.00800000E+00  1.00800000E+00  1.60000000E+01
  1.00800000E+00  1.00800000E+00  1.60000000E+01  1.00800000E+00  1.00800000E+00
  1.60000000E+01  1.00800000E+00  1.00800000E+00  1.60000000E+01  1.00800000E+00
  1.00800000E+00  1.60000000E+01  1.00800000E+00  1.00800000E+00  1.60000000E+01
  1.00800000E+00  1.00800000E+00  1.60000000E+01  1.00800000E+00  1.00800000E+00
  1.60000000E+01  1.00800000E+00  1.00800000E+00  1.60000000E+01  1.00800000E+00
  1.00800000E+00  1.60000000E+01  1.00800000E+00  1.00800000E+00  1.60000000E+01
  1.00800000E+00  1.00800000E+00  1.60000000E+01  1.00800000E+00  1.00800000E+00
  1.60000000E+01  1.00800000E+00  1.00800000E+00  1.60000000E+01  1.00800000E+00
  1.00800000E+00  1.60000000E+01  1.00800000E+00  1.00800000E+00  1.60000000E+01
  1.00800000E+00  1.00800000E+00  1.60000000E+01  1.00800000E+00  1.00800000E+00
  1.60000000E+01  1.00800000E+00  1.00800000E+00  1.60000000E+01  1.00800000E+00
  1.00800000E+00  1.60000000E+01  1.00800000E+00  1.00800000E+00  1.60000000E+01
  1.00800000E+00  1.00800000E+00  1.60000000E+01  1.00800000E+00  1.00800000E+00
  1.60000000E+01  1.00800000E+00  1.00800000E+00  1.60000000E+01  1.00800000E+00
  1.00800000E+00  1.60000000E+01  1.00800000E+00  1.00800000E+00  1.60000000E+01
  1.00800000E+00  1.00800000E+00  1.60000000E+01  1.00800000E+00  1.00800000E+00
  1.60000000E+01  1.00800000E+00  1.00800000E+00  1.60000000E+01  1.00800000E+00
  1.00800000E+00  1.60000000E+01  1.00800000E+00  1.00800000E+00  1.60000000E+01
  1.00800000E+00  1.00800000E+00  1.60000000E+01  1.00800000E+00  1.00800000E+00
  1.60000000E+01  1.00800000E+00  1.00800000E+00  1.60000000E+01  1.00800000E+00
  1.00800000E+00  1.60000000E+01  1.00800000E+00  1.00800000E+00  1.60000000E+01
  1.00800000E+00  1.00800000E+00  1.60000000E+01  1.00800000E+00  1.00800000E+00
  1.60000000E+01  1.00800000E+00  1.00800000E+00  1.60000000E+01  1.00800000E+00
  1.00800000E+00  1.60000000E+01  1.00800000E+00  1.00800000E+00  1.60000000E+01
  1.00800000E+00  1.00800000E+00  1.60000000E+01  1.00800000E+00  1.00800000E+00
  1.60000000E+01  1.00800000E+00  1.00800000E+00  1.60000000E+01  1.00800000E+00
  1.00800000E+00  1.60000000E+01  1.00800000E+00  1.00800000E+00  1.60000000E+01
  1.00800000E+00  1.00800000E+00  1.60000000E+01  1.00800000E+00  1.00800000E+00
  1.60000000E+01  1.00800000E+00  1.00800000E+00  1.60000000E+01  1.00800000E+00
  1.00800000E+00  1.60000000E+01  1.00800000E+00  1.00800000E+00  1.60000000E+01
  1.00800000E+00  1.00800000E+00  1.60000000E+01  1.00800000E+00  1.00800000E+00
  1.60000000E+01  1.00800000E+00  1.00800000E+00  1.60000000E+01  1.00800000E+00
  1.00800000E+00  1.60000000E+01  1.00800000E+00  1.00800000E+00  1.60000000E+01
  1.00800000E+00  1.00800000E+00  1.60000000E+01  1.00800000E+00  1.00800000E+00
  1.60000000E+01  1.00800000E+00  1.00800000E+00  1.60000000E+01  1.00800000E+00
  1.00800000E+00  1.60000000E+01  1.00800000E+00  1.00800000E+00  1.60000000E+01
  1.00800000E+00  1.00800000E+00  1.60000000E+01  1.00800000E+00  1.00800000E+00
  1.60000000E+01  1.00800000E+00  1.00800000E+00  1.60000000E+01  1.00800000E+00
  1.00800000E+00  1.60000000E+01  1.00800000E+00  1.00800000E+00  1.60000000E+01
  1.00800000E+00  1.00800000E+00  1.60000000E+01  1.00800000E+00  1.00800000E+00
  1.60000000E+01  1.00800000E+00  1.00800000E+00  1.60000000E+01  1.00800000E+00
  1.00800000E+00  1.60000000E+01  1.00800000E+00  1.00800000E+00  1.60000000E+01
  1.00800000E+00  1.00800000E+00  1.60000000E+01  1.00800000E+00  1.00800000E+00
  1.60000000E+01  1.00800000E+00  1.00800000E+00  1.60000000E+01  1.00800000E+00
  1.00800000E+00  1.60000000E+01  1.00800000E+00  1.00800000E+00  1.60000000E+01
  1.00800000E+00  1.00800000E+00  1.60000000E+01  1.00800000E+00  1.00800000E+00
  1.60000000E+01  1.00800000E+00  1.00800000E+00  1.60000000E+01  1.00800000E+00
  1.00800000E+00  1.60000000E+01  1.00800000E+00  1.00800000E+00  1.60000000E+01
  1.00800000E+00  1.00800000E+00  1.60000000E+01  1.00800000E+00  1.00800000E+00
  1.60000000E+01  1.00800000E+00  1.00800000E+00  1.60000000E+01  1.00800000E+00
  1.00800000E+00  1.60000000E+01  1.00800000E+00  1.00800000E+00  1.60000000E+01
  1.00800000E+00  1.00800000E+00  1.60000000E+01  1.00800000E+00  1.00800000E+00
  1.60000000E+01  1.00800000E+00  1.00800000E+00  1.60000000E+01  1.00800000E+00
  1.00800000E+00  1.60000000E+01  1.00800000E+00  1.00800000E+00  1.60000000E+01
  1.00800000E+00  1.00800000E+00  1.60000000E+01  1.00800000E+00  1.00800000E+00
  1.60000000E+01  1.00800000E+00  1.00800000E+00  1.60000000E+01  1.00800000E+00
  1.00800000E+00  1.60000000E+01  1.00800000E+00  1.00800000E+00  1.60000000E+01
  1.00800000E+00  1.00800000E+00  1.60000000E+01  1.00800000E+00  1.00800000E+00
  1.60000000E+01  1.00800000E+00  1.00800000E+00  1.60000000E+01  1.00800000E+00
  1.00800000E+00  1.60000000E+01  1.00800000E+00  1.00800000E+00  1.60000000E+01
  1.00800000E+00  1.00800000E+00  1.60000000E+01  1.00800000E+00  1.00800000E+00
  1.60000000E+01  1.00800000E+00  1.00800000E+00  1.60000000E+01  1.00800000E+00
  1.00800000E+00  1.60000000E+01  1.00800000E+00  1.00800000E+00  1.60000000E+01
  1.00800000E+00  1.00800000E+00  1.60000000E+01  1.00800000E+00  1.00800000E+00
  1.60000000E+01  1.00800000E+00  1.00800000E+00  1.60000000E+01  1.00800000E+00
  1.00800000E+00  1.60000000E+01  1.00800000E+00  1.00800000E+00  1.60000000E+01
  1.00800000E+00  1.00800000E+00  1.60000000E+01  1.00800000E+00  1.00800000E+00
  1.60000000E+01  1.00800000E+00  1.00800000E+00  1.60000000E+01  1.00800000E+00
  1.00800000E+00  1.60000000E+01  1.00800000E+00  1.00800000E+00  1.60000000E+01
  1.00800000E+00  1.00800000E+00  1.60000000E+01  1.00800000E+00  1.00800000E+00
  1.60000000E+01  1.00800000E+00  1.00800000E+00  1.60000000E+01  1.00800000E+00
  1.00800000E+00  1.60000000E+01  1.00800000E+00  1.00800000E+00  1.60000000E+01
  1.00800000E+00  1.00800000E+00  1.60000000E+01  1.00800000E+00  1.00800000E+00
  1.60000000E+01  1.00800000E+00  1.00800000E+00  1.60000000E+01  1.00800000E+00
  1.00800000E+00  1.60000000E+01  1.00800000E+00  1.00800000E+00  1.60000000E+01
  1.00800000E+00  1.00800000E+00  1.60000000E+01  1.00800000E+00  1.00800000E+00
  1.60000000E+01  1.00800000E+00  1.00800000E+00  1.60000000E+01  1.00800000E+00
  1.00800000E+00  1.60000000E+01  1.00800000E+00  1.00800000E+00  1.60000000E+01
  1.00800000E+00  1.00800000E+00  1.60000000E+01  1.00800000E+00  1.00800000E+00
  1.60000000E+01  1.00800000E+00  1.00800000E+00  1.60000000E+01  1.00800000E+00
  1.00800000E+00  1.60000000E+01  1.00800000E+00  1.00800000E+00  1.60000000E+01
  1.00800000E+00  1.00800000E+00  1.60000000E+01  1.00800000E+00  1.00800000E+00
  1.60000000E+01  1.00800000E+00  1.00800000E+00  1.60000000E+01  1.00800000E+00
  1.00800000E+00  1.60000000E+01  1.00800000E+00  1.00800000E+00  1.60000000E+01
  1.00800000E+00  1.00800000E+00  1.60000000E+01  1.00800000E+00  1.00800000E+00
  1.60000000E+01  1.00800000E+00  1.00800000E+00  1.60000000E+01  1.00800000E+00
  1.00800000E+00  1.60000000E+01  1.00800000E+00  1.00800000E+00  1.60000000E+01
  1.00800000E+00  1.00800000E+00  1.60000000E+01  1.00800000E+00  1.00800000E+00
  1.60000000E+01  1.00800000E+00  1.00800000E+00  1.60000000E+01  1.00800000E+00
  1.00800000E+00  1.60000000E+01  1.00800000E+00  1.00800000E+00  1.60000000E+01
  1.00800000E+00  1.00800000E+00  1.60000000E+01  1.00800000E+00  1.00800000E+00
  1.60000000E+01  1.00800000E+00  1.00800000E+00  1.60000000E+01  1.00800000E+00
  1.00800000E+00  1.60000000E+01  1.00800000E+00  1.00800000E+00  1.60000000E+01
  1.00800000E+00  1.00800000E+00  1.60000000E+01  1.00800000E+00  1.00800000E+00
  1.60000000E+01  1.00800000E+00  1.00800000E+00  1.60000000E+01  1.00800000E+00
  1.00800000E+00  1.60000000E+01  1.00800000E+00  1.00800000E+00  1.60000000E+01
  1.00800000E+00  1.00800000E+00  1.60000000E+01  1.00800000E+00  1.00800000E+00
  1.60000000E+01  1.00800000E+00  1.00800000E+00  1.60000000E+01  1.00800000E+00
  1.00800000E+00  1.60000000E+01  1.00800000E+00  1.00800000E+00  1.60000000E+01
  1.00800000E+00  1.00800000E+00  1.60000000E+01  1.00800000E+00  1.00800000E+00
  1.60000000E+01  1.00800000E+00  1.00800000E+00  1.60000000E+01  1.00800000E+00
  1.00800000E+00  1.60000000E+01  1.00800000E+00  1.00800000E+00  1.60000000E+01
  1.00800000E+00  1.00800000E+00  1.60000000E+01  1.00800000E+00  1.00800000E+00
  1.60000000E+01  1.00800000E+00  1.00800000E+00  1.60000000E+01  1.00800000E+00
  1.00800000E+00  1.60000000E+01  1.00800000E+00  1.00800000E+00  1.60000000E+01
  1.00800000E+00  1.00800000E+00  1.60000000E+01  1.00800000E+00  1.00800000E+00
  1.60000000E+01  1.00800000E+00  1.00800000E+00  1.60000000E+01  1.00800000E+00
  1.00800000E+00  1.60000000E+01  1.00800000E+00  1.00800000E+00  1.60000000E+01
  1.00800000E+00  1.00800000E+00  1.60000000E+01  1.00800000E+00  1.00800000E+00
  1.60000000E+01  1.00800000E+00  1.00800000E+00  1.60000000E+01  1.00800000E+00
  1.00800000E+00  1.60000000E+01  1.00800000E+00  1.00800000E+00  1.60000000E+01
  1.00800000E+00  1.00800000E+00  1.60000000E+01  1.00800000E+00  1.00800000E+00
  1.60000000E+01  1.00800000E+00  1.00800000E+00  1.60000000E+01  1.00800000E+00
  1.00800000E+00  1.60000000E+01  1.00800000E+00  1.00800000E+00  1.60000000E+01
  1.00800000E+00  1.00800000E+00  1.60000000E+01  1.00800000E+00  1.00800000E+00
  1.60000000E+01  1.00800000E+00  1.00800000E+00  1.60000000E+01  1.00800000E+00
  1.00800000E+00  1.60000000E+01  1.00800000E+00  1.00800000E+00  1.60000000E+01
  1.00800000E+00  1.00800000E+00  1.60000000E+01  1.00800000E+00  1.00800000E+00
  1.60000000E+01  1.00800000E+00  1.00800000E+00  1.60000000E+01  1.00800000E+00
  1.00800000E+00  1.60000000E+01  1.00800000E+00  1.00800000E+00  1.60000000E+01
  1.00800000E+00  1.00800000E+00  1.60000000E+01  1.00800000E+00  1.00800000E+00
  1.60000000E+01  1.00800000E+00  1.00800000E+00  1.60000000E+01  1.00800000E+00
  1.00800000E+00  1.60000000E+01  1.00800000E+00  1.00800000E+00  1.60000000E+01
  1.00800000E+00  1.00800000E+00  1.60000000E+01  1.00800000E+00  1.00800000E+00
  1.60000000E+01  1.00800000E+00  1.00800000E+00  1.60000000E+01  1.00800000E+00
  1.00800000E+00  1.60000000E+01  1.00800000E+00  1.00800000E+00  1.60000000E+01
  1.00800000E+00  1.00800000E+00  1.60000000E+01  1.00800000E+00  1.00800000E+00
  1.60000000E+01  1.00800000E+00  1.00800000E+00  1.60000000E+01  1.00800000E+00
  1.00800000E+00  1.60000000E+01  1.00800000E+00  1.00800000E+00  1.60000000E+01
  1.00800000E+00  1.00800000E+00  1.60000000E+01  1.00800000E+00  1.00800000E+00
  1.60000000E+01  1.00800000E+00  1.00800000E+00  1.60000000E+01  1.00800000E+00
  1.00800000E+00  1.60000000E+01  1.00800000E+00  1.00800000E+00  1.60000000E+01
  1.00800000E+00  1.00800000E+00  1.60000000E+01  1.00800000E+00  1.00800000E+00
  1.60000000E+01  1.00800000E+00  1.00800000E+00  1.60000000E+01  1.00800000E+00
  1.00800000E+00  1.60000000E+01  1.00800000E+00  1.00800000E+00  1.60000000E+01
  1.00800000E+00  1.00800000E+00  1.60000000E+01  1.00800000E+00  1.00800000E+00
  1.60000000E+01  1.00800000E+00  1.00800000E+00  1.60000000E+01  1.00800000E+00
  1.00800000E+00  1.60000000E+01  1.00800000E+00  1.00800000E+00  1.60000000E+01
  1.00800000E+00  1.00800000E+00  1.60000000E+01  1.00800000E+00  1.00800000E+00
  1.60000000E+01  1.00800000E+00  1.00800000E+00  1.60000000E+01  1.00800000E+00
  1.00800000E+00  1.60000000E+01  1.00800000E+00  1.00800000E+00  1.60000000E+01
  1.00800000E+00  1.00800000E+00  1.60000000E+01  1.00800000E+00  1.00800000E+00
  1.60000000E+01  1.00800000E+00  1.00800000E+00  1.60000000E+01  1.00800000E+00
  1.00800000E+00  1.60000000E+01  1.00800000E+00  1.00800000E+00  1.60000000E+01
  1.00800000E+00  1.00800000E+00  1.60000000E+01  1.00800000E+00  1.00800000E+00
  1.60000000E+01  1.00800000E+00  1.00800000E+00  1.60000000E+01  1.00800000E+00
  1.00800000E+00  1.60000000E+01  1.00800000E+00  1.00800000E+00  1.60000000E+01
  1.00800000E+00  1.00800000E+00  1.60000000E+01  1.00800000E+00  1.00800000E+00
  1.60000000E+01  1.00800000E+00  1.00800000E+00  1.60000000E+01  1.00800000E+00
  1.00800000E+00  1.60000000E+01  1.00800000E+00  1.00800000E+00  1.60000000E+01
  1.00800000E+00  1.00800000E+00  1.60000000E+01  1.00800000E+00  1.00800000E+00
  1.60000000E+01  1.00800000E+00  1.00800000E+00  1.60000000E+01  1.00800000E+00
  1.00800000E+00  1.60000000E+01  1.00800000E+00  1.00800000E+00  1.60000000E+01
  1.00800000E+00  1.00800000E+00  1.60000000E+01  1.00800000E+00  1.00800000E+00
  1.60000000E+01  1.00800000E+00  1.00800000E+00  1.60000000E+01  1.00800000E+00
  1.00800000E+00  1.60000000E+01  1.00800000E+00  1.00800000E+00  1.60000000E+01
  1.00800000E+00  1.00800000E+00  1.60000000E+01  1.00800000E+00  1.00800000E+00
  1.60000000E+01  1.00800000E+00  1.00800000E+00  1.60000000E+01  1.00800000E+00
  1.00800000E+00  1.60000000E+01  1.00800000E+00  1.00800000E+00  1.60000000E+01
  1.00800000E+00  1.00800000E+00  1.60000000E+01  1.00800000E+00  1.00800000E+00
  1.60000000E+01  1.00800000E+00  1.00800000E+00  1.60000000E+01  1.00800000E+00
  1.00800000E+00  1.60000000E+01  1.00800000E+00  1.00800000E+00  1.60000000E+01
  1.00800000E+00  1.00800000E+00  1.60000000E+01  1.00800000E+00  1.00800000E+00
  1.60000000E+01  1.00800000E+00  1.00800000E+00  1.60000000E+01  1.00800000E+00
  1.00800000E+00  1.60000000E+01  1.00800000E+00  1.00800000E+00  1.60000000E+01
  1.00800000E+00  1.00800000E+00  1.60000000E+01  1.00800000E+00  1.00800000E+00
  1.60000000E+01  1.00800000E+00  1.00800000E+00  1.60000000E+01  1.00800000E+00
  1.00800000E+00  1.60000000E+01  1.00800000E+00  1.00800000E+00  1.60000000E+01
  1.00800000E+00  1.00800000E+00  1.60000000E+01  1.00800000E+00  1.00800000E+00
  1.60000000E+01  1.00800000E+00  1.00800000E+00  1.60000000E+01  1.00800000E+00
  1.00800000E+00  1.60000000E+01  1.00800000E+00  1.00800000E+00  1.60000000E+01
  1.00800000E+00  1.00800000E+00  1.60000000E+01  1.00800000E+00  1.00800000E+00
  1.60000000E+01  1.00800000E+00  1.00800000E+00  1.60000000E+01  1.00800000E+00
  1.00800000E+00  1.60000000E+01  1.00800000E+00  1.00800000E+00  1.60000000E+01
  1.00800000E+00  1.00800000E+00  1.60000000E+01  1.00800000E+00  1.00800000E+00
  1.60000000E+01  1.00800000E+00  1.00800000E+00  1.60000000E+01  1.00800000E+00
  1.00800000E+00  1.60000000E+01  1.00800000E+00  1.00800000E+00  1.60000000E+01
  1.00800000E+00  1.00800000E+00  1.60000000E+01  1.00800000E+00  1.00800000E+00
  1.60000000E+01  1.00800000E+00  1.00800000E+00  1.60000000E+01  1.00800000E+00
  1.00800000E+00  1.60000000E+01  1.00800000E+00  1.00800000E+00  1.60000000E+01
  1.00800000E+00  1.00800000E+00  1.60000000E+01  1.00800000E+00  1.00800000E+00
  1.60000000E+01  1.00800000E+00  1.00800000E+00  1.60000000E+01  1.00800000E+00
  1.00800000E+00  1.60000000E+01  1.00800000E+00  1.00800000E+00  1.60000000E+01
  1.00800000E+00  1.00800000E+00  1.60000000E+01  1.00800000E+00  1.00800000E+00
  1.60000000E+01  1.00800000E+00  1.00800000E+00  1.60000000E+01  1.00800000E+00
  1.00800000E+00  1.60000000E+01  1.00800000E+00  1.00800000E+00  1.60000000E+01
  1.00800000E+00  1.00800000E+00  1.60000000E+01  1.00800000E+00  1.00800000E+00
  1.60000000E+01  1.00800000E+00  1.00800000E+00  1.60000000E+01  1.00800000E+00
  1.00800000E+00  1.60000000E+01  1.00800000E+00  1.00800000E+00  1.60000000E+01
  1.00800000E+00  1.00800000E+00  1.60000000E+01  1.00800000E+00  1.00800000E+00
  1.60000000E+01  1.00800000E+00  1.00800000E+00  1.60000000E+01  1.00800000E+00
  1.00800000E+00  1.60000000E+01  1.00800000E+00  1.00800000E+00  1.60000000E+01
  1.00800000E+00  1.00800000E+00  1.60000000E+01  1.00800000E+00  1.00800000E+00
  1.60000000E+01  1.00800000E+00  1.00800000E+00  1.60000000E+01  1.00800000E+00
  1.00800000E+00  1.60000000E+01  1.00800000E+00  1.00800000E+00  1.60000000E+01
  1.00800000E+00  1.00800000E+00  1.60000000E+01  1.00800000E+00  1.00800000E+00
  1.60000000E+01  1.00800000E+00  1.00800000E+00  1.60000000E+01  1.00800000E+00
  1.00800000E+00  1.60000000E+01  1.00800000E+00  1.00800000E+00  1.60000000E+01
  1.00800000E+00  1.00800000E+00  1.60000000E+01  1.00800000E+00  1.00800000E+00
  1.60000000E+01  1.00800000E+00  1.00800000E+00  1.60000000E+01  1.00800000E+00
  1.00800000E+00  1.60000000E+01  1.00800000E+00  1.00800000E+00  1.60000000E+01
  1.00800000E+00  1.00800000E+00  1.60000000E+01  1.00800000E+00  1.00800000E+00
  1.60000000E+01  1.00800000E+00  1.00800000E+00  1.60000000E+01  1.00800000E+00
  1.00800000E+00  1.60000000E+01  1.00800000E+00  1.00800000E+00  1.60000000E+01
  1.00800000E+00  1.00800000E+00  1.60000000E+01  1.00800000E+00  1.00800000E+00
  1.60000000E+01  1.00800000E+00  1.00800000E+00  1.60000000E+01  1.00800000E+00
  1.00800000E+00  1.60000000E+01  1.00800000E+00  1.00800000E+00  1.60000000E+01
  1.00800000E+00  1.00800000E+00  1.60000000E+01  1.00800000E+00  1.00800000E+00
  1.60000000E+01  1.00800000E+00  1.00800000E+00  1.60000000E+01  1.00800000E+00
  1.00800000E+00  1.60000000E+01  1.00800000E+00  1.00800000E+00  1.60000000E+01
  1.00800000E+00  1.00800000E+00  1.60000000E+01  1.00800000E+00  1.00800000E+00
  1.60000000E+01  1.00800000E+00  1.00800000E+00  1.60000000E+01  1.00800000E+00
  1.00800000E+00  1.60000000E+01  1.00800000E+00  1.00800000E+00  1.60000000E+01
  1.00800000E+00  1.00800000E+00  1.60000000E+01  1.00800000E+00  1.00800000E+00
  1.60000000E+01  1.00800000E+00  1.00800000E+00  1.60000000E+01  1.00800000E+00
  1.00800000E+00  1.60000000E+01  1.00800000E+00  1.00800000E+00  1.60000000E+01
  1.00800000E+00  1.00800000E+00  1.60000000E+01  1.00800000E+00  1.00800000E+00
  1.60000000E+01  1.00800000E+00  1.00800000E+00  1.60000000E+01  1.00800000E+00
  1.00800000E+00  1.60000000E+01  1.00800000E+00  1.00800000E+00  1.60000000E+01
  1.00800000E+00  1.00800000E+00  1.60000000E+01  1.00800000E+00  1.00800000E+00
  1.60000000E+01  1.00800000E+00  1.00800000E+00  1.60000000E+01  1.00800000E+00
  1.00800000E+00  1.60000000E+01  1.00800000E+00  1.00800000E+00  1.60000000E+01
  1.00800000E+00  1.00800000E+00  1.60000000E+01  1.00800000E+00  1.00800000E+00
  1.60000000E+01  1.00800000E+00  1.00800000E+00  1.60000000E+01  1.00800000E+00
  1.00800000E+00  1.60000000E+01  1.00800000E+00  1.00800000E+00  1.60000000E+01
  1.00800000E+00  1.00800000E+00  1.60000000E+01  1.00800000E+00  1.00800000E+00
  1.60000000E+01  1.00800000E+00  1.00800000E+00  1.60000000E+01  1.00800000E+00
  1.00800000E+00  1.60000000E+01  1.00800000E+00  1.00800000E+00  1.60000000E+01
  1.00800000E+00  1.00800000E+00  1.60000000E+01  1.00800000E+00  1.00800000E+00
  1.60000000E+01  1.00800000E+00  1.00800000E+00  1.60000000E+01  1.00800000E+00
  1.00800000E+00  1.60000000E+01  1.00800000E+00  1.00800000E+00  1.60000000E+01
  1.00800000E+00  1.00800000E+00  1.60000000E+01  1.00800000E+00  1.00800000E+00
  1.60000000E+01  1.00800000E+00  1.00800000E+00  1.60000000E+01  1.00800000E+00
  1.00800000E+00  1.60000000E+01  1.00800000E+00  1.00800000E+00  1.60000000E+01
  1.00800000E+00  1.00800000E+00  1.60000000E+01  1.00800000E+00  1.00800000E+00
  1.60000000E+01  1.00800000E+00  1.00800000E+00  1.60000000E+01  1.00800000E+00
  1.00800000E+00  1.60000000E+01  1.00800000E+00  1.00800000E+00  1.60000000E+01
  1.00800000E+00  1.00800000E+00  1.60000000E+01  1.00800000E+00  1.00800000E+00
  1.60000000E+01  1.00800000E+00  1.00800000E+00  1.60000000E+01  1.00800000E+00
  1.00800000E+00  1.60000000E+01  1.00800000E+00  1.00800000E+00  1.60000000E+01
  1.00800000E+00  1.00800000E+00  1.60000000E+01  1.00800000E+00  1.00800000E+00
  1.60000000E+01  1.00800000E+00  1.00800000E+00  1.60000000E+01  1.00800000E+00
  1.00800000E+00  1.60000000E+01  1.00800000E+00  1.00800000E+00  1.60000000E+01
  1.00800000E+00  1.00800000E+00  1.60000000E+01  1.00800000E+00  1.00800000E+00
  1.60000000E+01  1.00800000E+00  1.00800000E+00  1.60000000E+01  1.00800000E+00
  1.00800000E+00  1.60000000E+01  1.00800000E+00  1.00800000E+00  1.60000000E+01
  1.00800000E+00  1.00800000E+00  1.60000000E+01  1.00800000E+00  1.00800000E+00
  1.60000000E+01  1.00800000E+00  1.00800000E+00  1.60000000E+01  1.00800000E+00
  1.00800000E+00  1.60000000E+01  1.00800000E+00  1.00800000E+00  1.60000000E+01
  1.00800000E+00  1.00800000E+00  1.60000000E+01  1.00800000E+00  1.00800000E+00
  1.60000000E+01  1.00800000E+00  1.00800000E+00  1.60000000E+01  1.00800000E+00
  1.00800000E+00  1.60000000E+01  1.00800000E+00  1.00800000E+00  1.60000000E+01
  1.00800000E+00  1.00800000E+00  1.60000000E+01  1.00800000E+00  1.00800000E+00
  1.60000000E+01  1.00800000E+00  1.00800000E+00  1.60000000E+01  1.00800000E+00
  1.00800000E+00  1.60000000E+01  1.00800000E+00  1.00800000E+00  1.60000000E+01
  1.00800000E+00  1.00800000E+00  1.60000000E+01  1.00800000E+00  1.00800000E+00
  1.60000000E+01  1.00800000E+00  1.00800000E+00  1.60000000E+01  1.00800000E+00
  1.00800000E+00  1.60000000E+01  1.00800000E+00  1.00800000E+00  1.60000000E+01
  1.00800000E+00  1.00800000E+00  1.60000000E+01  1.00800000E+00  1.00800000E+00
  1.60000000E+01  1.00800000E+00  1.00800000E+00  1.60000000E+01  1.00800000E+00
  1.00800000E+00  1.60000000E+01  1.00800000E+00  1.00800000E+00  1.60000000E+01
  1.00800000E+00  1.00800000E+00  1.60000000E+01  1.00800000E+00  1.00800000E+00
  1.60000000E+01  1.00800000E+00  1.00800000E+00  1.60000000E+01  1.00800000E+00
  1.00800000E+00  1.60000000E+01  1.00800000E+00  1.00800000E+00  1.60000000E+01
  1.00800000E+00  1.00800000E+00  1.60000000E+01  1.00800000E+00  1.00800000E+00
  1.60000000E+01  1.00800000E+00  1.00800000E+00  1.60000000E+01  1.00800000E+00
  1.00800000E+00  1.60000000E+01  1.00800000E+00  1.00800000E+00  1.60000000E+01
  1.00800000E+00  1.00800000E+00  1.60000000E+01  1.00800000E+00  1.00800000E+00
  1.60000000E+01  1.00800000E+00  1.00800000E+00  1.60000000E+01  1.00800000E+00
  1.00800000E+00  1.60000000E+01  1.00800000E+00  1.00800000E+00  1.60000000E+01
  1.00800000E+00  1.00800000E+00  1.60000000E+01  1.00800000E+00  1.00800000E+00
  1.60000000E+01  1.00800000E+00  1.00800000E+00  1.60000000E+01  1.00800000E+00
  1.00800000E+00  1.60000000E+01  1.00800000E+00  1.00800000E+00  1.60000000E+01
  1.00800000E+00  1.00800000E+00  1.60000000E+01  1.00800000E+00  1.00800000E+00
  1.60000000E+01  1.00800000E+00  1.00800000E+00  1.60000000E+01  1.00800000E+00
  1.00800000E+00  1.60000000E+01  1.00800000E+00  1.00800000E+00  1.60000000E+01
  1.00800000E+00  1.00800000E+00  1.60000000E+01  1.00800000E+00  1.00800000E+00
  1.60000000E+01  1.00800000E+00  1.00800000E+00  1.60000000E+01  1.00800000E+00
  1.00800000E+00  1.60000000E+01  1.00800000E+00  1.00800000E+00  1.60000000E+01
  1.00800000E+00  1.00800000E+00  1.60000000E+01  1.00800000E+00  1.00800000E+00
  1.60000000E+01  1.00800000E+00  1.00800000E+00  1.60000000E+01  1.00800000E+00
  1.00800000E+00  1.60000000E+01  1.00800000E+00  1.00800000E+00  1.60000000E+01
  1.00800000E+00  1.00800000E+00  1.60000000E+01  1.00800000E+00  1.00800000E+00
  1.60000000E+01  1.00800000E+00  1.00800000E+00  1.60000000E+01  1.00800000E+00
  1.00800000E+00  1.60000000E+01  1.00800000E+00  1.00800000E+00  1.60000000E+01
  1.00800000E+00  1.00800000E+00  1.60000000E+01  1.00800000E+00  1.00800000E+00
  1.60000000E+01  1.00800000E+00  1.00800000E+00  1.60000000E+01  1.00800000E+00
  1.00800000E+00  1.60000000E+01  1.00800000E+00  1.00800000E+00  1.60000000E+01
  1.00800000E+00  1.00800000E+00  1.60000000E+01  1.00800000E+00  1.00800000E+00
  1.60000000E+01  1.00800000E+00  1.00800000E+00  1.60000000E+01  1.00800000E+00
  1.00800000E+00  1.60000000E+01  1.00800000E+00  1.00800000E+00  1.60000000E+01
  1.00800000E+00  1.00800000E+00  1.60000000E+01  1.00800000E+00  1.00800000E+00
  1.60000000E+01  1.00800000E+00  1.00800000E+00  1.60000000E+01  1.00800000E+00
  1.00800000E+00  1.60000000E+01  1.00800000E+00  1.00800000E+00  1.60000000E+01
  1.00800000E+00  1.00800000E+00  1.60000000E+01  1.00800000E+00  1.00800000E+00
  1.60000000E+01  1.00800000E+00  1.00800000E+00  1.60000000E+01  1.00800000E+00
  1.00800000E+00  1.60000000E+01  1.00800000E+00  1.00800000E+00  1.60000000E+01
  1.00800000E+00  1.00800000E+00  1.60000000E+01  1.00800000E+00  1.00800000E+00
  1.60000000E+01  1.00800000E+00  1.00800000E+00  1.60000000E+01  1.00800000E+00
  1.00800000E+00  1.60000000E+01  1.00800000E+00  1.00800000E+00  1.60000000E+01
  1.00800000E+00  1.00800000E+00  1.60000000E+01  1.00800000E+00  1.00800000E+00
  1.60000000E+01  1.00800000E+00  1.00800000E+00  1.60000000E+01  1.00800000E+00
  1.00800000E+00  1.60000000E+01  1.00800000E+00  1.00800000E+00  1.60000000E+01
  1.00800000E+00  1.00800000E+00  1.60000000E+01  1.00800000E+00  1.00800000E+00
  1.60000000E+01  1.00800000E+00  1.00800000E+00  1.60000000E+01  1.00800000E+00
  1.00800000E+00  1.60000000E+01  1.00800000E+00  1.00800000E+00  1.60000000E+01
  1.00800000E+00  1.00800000E+00  1.60000000E+01  1.00800000E+00  1.00800000E+00
  1.60000000E+01  1.00800000E+00  1.00800000E+00  1.60000000E+01  1.00800000E+00
  1.00800000E+00  1.60000000E+01  1.00800000E+00  1.00800000E+00  1.60000000E+01
  1.00800000E+00  1.00800000E+00  1.60000000E+01  1.00800000E+00  1.00800000E+00
  1.60000000E+01  1.00800000E+00  1.00800000E+00  1.60000000E+01  1.00800000E+00
  1.00800000E+00  1.60000000E+01  1.00800000E+00  1.00800000E+00  1.60000000E+01
  1.00800000E+00  1.00800000E+00  1.60000000E+01  1.00800000E+00  1.00800000E+00
  1.60000000E+01  1.00800000E+00  1.00800000E+00  1.60000000E+01  1.00800000E+00
  1.00800000E+00  1.60000000E+01  1.00800000E+00  1.00800000E+00  1.60000000E+01
  1.00800000E+00  1.00800000E+00  1.60000000E+01  1.00800000E+00  1.00800000E+00
  1.60000000E+01  1.00800000E+00  1.00800000E+00  1.60000000E+01  1.00800000E+00
  1.00800000E+00  1.60000000E+01  1.00800000E+00  1.00800000E+00  1.60000000E+01
  1.00800000E+00  1.00800000E+00  1.60000000E+01  1.00800000E+00  1.00800000E+00
  1.60000000E+01  1.00800000E+00  1.00800000E+00  1.60000000E+01  1.00800000E+00
  1.00800000E+00  1.60000000E+01  1.00800000E+00  1.00800000E+00  1.60000000E+01
  1.00800000E+00  1.00800000E+00  1.60000000E+01  1.00800000E+00  1.00800000E+00
  1.60000000E+01  1.00800000E+00  1.00800000E+00  1.60000000E+01  1.00800000E+00
  1.00800000E+00  1.60000000E+01  1.00800000E+00  1.00800000E+00  1.60000000E+01
  1.00800000E+00  1.00800000E+00  1.60000000E+01  1.00800000E+00  1.00800000E+00
  1.60000000E+01  1.00800000E+00  1.00800000E+00  1.60000000E+01  1.00800000E+00
  1.00800000E+00  1.60000000E+01  1.00800000E+00  1.00800000E+00  1.60000000E+01
  1.00800000E+00  1.00800000E+00  1.60000000E+01  1.00800000E+00  1.00800000E+00
  1.60000000E+01  1.00800000E+00  1.00800000E+00  1.60000000E+01  1.00800000E+00
  1.00800000E+00  1.60000000E+01  1.00800000E+00  1.00800000E+00  1.60000000E+01
  1.00800000E+00  1.00800000E+00  1.60000000E+01  1.00800000E+00  1.00800000E+00
  1.60000000E+01  1.00800000E+00  1.00800000E+00  1.60000000E+01  1.00800000E+00
  1.00800000E+00  1.60000000E+01  1.00800000E+00  1.00800000E+00  1.60000000E+01
  1.00800000E+00  1.00800000E+00  1.60000000E+01  1.00800000E+00  1.00800000E+00
  1.60000000E+01  1.00800000E+00  1.00800000E+00  1.60000000E+01  1.00800000E+00
  1.00800000E+00  1.60000000E+01  1.00800000E+00  1.00800000E+00  1.60000000E+01
  1.00800000E+00  1.00800000E+00  1.60000000E+01  1.00800000E+00  1.00800000E+00
  1.60000000E+01  1.00800000E+00  1.00800000E+00  1.60000000E+01  1.00800000E+00
  1.00800000E+00  1.60000000E+01  1.00800000E+00  1.00800000E+00  1.60000000E+01
  1.00800000E+00  1.00800000E+00  1.60000000E+01  1.00800000E+00  1.00800000E+00
  1.60000000E+01  1.00800000E+00  1.00800000E+00  1.60000000E+01  1.00800000E+00
  1.00800000E+00  1.60000000E+01  1.00800000E+00  1.00800000E+00  1.60000000E+01
  1.00800000E+00  1.00800000E+00  1.60000000E+01  1.00800000E+00  1.00800000E+00
  1.60000000E+01  1.00800000E+00  1.00800000E+00  1.60000000E+01  1.00800000E+00
  1.00800000E+00  1.60000000E+01  1.00800000E+00  1.00800000E+00  1.60000000E+01
  1.00800000E+00  1.00800000E+00  1.60000000E+01  1.00800000E+00  1.00800000E+00
  1.60000000E+01  1.00800000E+00  1.00800000E+00  1.60000000E+01  1.00800000E+00
  1.00800000E+00  1.60000000E+01  1.00800000E+00  1.00800000E+00  1.60000000E+01
  1.00800000E+00  1.00800000E+00  1.60000000E+01  1.00800000E+00  1.00800000E+00
  1.60000000E+01  1.00800000E+00  1.00800000E+00  1.60000000E+01  1.00800000E+00
  1.00800000E+00  1.60000000E+01  1.00800000E+00  1.00800000E+00  1.60000000E+01
  1.00800000E+00  1.00800000E+00  1.60000000E+01  1.00800000E+00  1.00800000E+00
  1.60000000E+01  1.00800000E+00  1.00800000E+00  1.60000000E+01  1.00800000E+00
  1.00800000E+00  1.60000000E+01  1.00800000E+00  1.00800000E+00  1.60000000E+01
  1.00800000E+00  1.00800000E+00  1.60000000E+01  1.00800000E+00  1.00800000E+00
  1.60000000E+01  1.00800000E+00  1.00800000E+00  1.60000000E+01  1.00800000E+00
  1.00800000E+00  1.60000000E+01  1.00800000E+00  1.00800000E+00  1.60000000E+01
  1.00800000E+00  1.00800000E+00  1.60000000E+01  1.00800000E+00  1.00800000E+00
  1.60000000E+01  1.00800000E+00  1.00800000E+00  1.60000000E+01  1.00800000E+00
  1.00800000E+00  1.60000000E+01  1.00800000E+00  1.00800000E+00  1.60000000E+01
  1.00800000E+00  1.00800000E+00  1.60000000E+01  1.00800000E+00  1.00800000E+00
  1.60000000E+01  1.00800000E+00  1.00800000E+00  1.60000000E+01  1.00800000E+00
  1.00800000E+00  1.60000000E+01  1.00800000E+00  1.00800000E+00  1.60000000E+01
  1.00800000E+00  1.00800000E+00  1.60000000E+01  1.00800000E+00  1.00800000E+00
  1.60000000E+01  1.00800000E+00  1.00800000E+00  1.60000000E+01  1.00800000E+00
  1.00800000E+00  1.60000000E+01  1.00800000E+00  1.00800000E+00  1.60000000E+01
  1.00800000E+00  1.00800000E+00  1.60000000E+01  1.00800000E+00  1.00800000E+00
  1.60000000E+01  1.00800000E+00  1.00800000E+00  1.60000000E+01  1.00800000E+00
  1.00800000E+00  1.60000000E+01  1.00800000E+00  1.00800000E+00  1.60000000E+01
  1.00800000E+00  1.00800000E+00  1.60000000E+01  1.00800000E+00  1.00800000E+00
  1.60000000E+01  1.00800000E+00  1.00800000E+00  1.60000000E+01  1.00800000E+00
  1.00800000E+00  1.60000000E+01  1.00800000E+00  1.00800000E+00  1.60000000E+01
  1.00800000E+00  1.00800000E+00  1.60000000E+01  1.00800000E+00  1.00800000E+00
  1.60000000E+01  1.00800000E+00  1.00800000E+00  1.60000000E+01  1.00800000E+00
  1.00800000E+00  1.60000000E+01  1.00800000E+00  1.00800000E+00  1.60000000E+01
  1.00800000E+00  1.00800000E+00  1.60000000E+01  1.00800000E+00  1.00800000E+00
  1.60000000E+01  1.00800000E+00  1.00800000E+00  1.60000000E+01  1.00800000E+00
  1.00800000E+00  1.60000000E+01  1.00800000E+00  1.00800000E+00  1.60000000E+01
  1.00800000E+00  1.00800000E+00  1.60000000E+01  1.00800000E+00  1.00800000E+00
  1.60000000E+01  1.00800000E+00  1.00800000E+00  1.60000000E+01  1.00800000E+00
  1.00800000E+00  1.60000000E+01  1.00800000E+00  1.00800000E+00  1.60000000E+01
  1.00800000E+00  1.00800000E+00  1.60000000E+01  1.00800000E+00  1.00800000E+00
  1.60000000E+01  1.00800000E+00  1.00800000E+00  1.60000000E+01  1.00800000E+00
  1.00800000E+00  1.60000000E+01  1.00800000E+00  1.00800000E+00  1.60000000E+01
  1.00800000E+00  1.00800000E+00  1.60000000E+01  1.00800000E+00  1.00800000E+00
  1.60000000E+01  1.00800000E+00  1.00800000E+00  1.60000000E+01  1.00800000E+00
  1.00800000E+00  1.60000000E+01  1.00800000E+00  1.00800000E+00  1.60000000E+01
  1.00800000E+00  1.00800000E+00  1.60000000E+01  1.00800000E+00  1.00800000E+00
  1.60000000E+01  1.00800000E+00  1.00800000E+00  1.60000000E+01  1.00800000E+00
  1.00800000E+00  1.60000000E+01  1.00800000E+00  1.00800000E+00  1.60000000E+01
  1.00800000E+00  1.00800000E+00  1.60000000E+01  1.00800000E+00  1.00800000E+00
  1.60000000E+01  1.00800000E+00  1.00800000E+00  1.60000000E+01  1.00800000E+00
  1.00800000E+00  1.60000000E+01  1.00800000E+00  1.00800000E+00  1.60000000E+01
  1.00800000E+00  1.00800000E+00  1.60000000E+01  1.00800000E+00  1.00800000E+00
  1.60000000E+01  1.00800000E+00  1.00800000E+00  1.60000000E+01  1.00800000E+00
  1.00800000E+00  1.60000000E+01  1.00800000E+00  1.00800000E+00  1.60000000E+01
  1.00800000E+00  1.00800000E+00  1.60000000E+01  1.00800000E+00  1.00800000E+00
  1.60000000E+01  1.00800000E+00  1.00800000E+00  1.60000000E+01  1.00800000E+00
  1.00800000E+00  1.60000000E+01  1.00800000E+00  1.00800000E+00  1.60000000E+01
  1.00800000E+00  1.00800000E+00  1.60000000E+01  1.00800000E+00  1.00800000E+00
  1.60000000E+01  1.00800000E+00  1.00800000E+00  1.60000000E+01  1.00800000E+00
  1.00800000E+00  1.60000000E+01  1.00800000E+00  1.00800000E+00  1.60000000E+01
  1.00800000E+00  1.00800000E+00  1.60000000E+01  1.00800000E+00  1.00800000E+00
  1.60000000E+01  1.00800000E+00  1.00800000E+00  1.60000000E+01  1.00800000E+00
  1.00800000E+00  1.60000000E+01  1.00800000E+00  1.00800000E+00  1.60000000E+01
  1.00800000E+00  1.00800000E+00  1.60000000E+01  1.00800000E+00  1.00800000E+00
  1.60000000E+01  1.00800000E+00  1.00800000E+00  1.60000000E+01  1.00800000E+00
  1.00800000E+00  1.60000000E+01  1.00800000E+00  1.00800000E+00  1.60000000E+01
  1.00800000E+00  1.00800000E+00  1.60000000E+01  1.00800000E+00  1.00800000E+00
  1.60000000E+01  1.00800000E+00  1.00800000E+00  1.60000000E+01  1.00800000E+00
  1.00800000E+00  1.60000000E+01  1.00800000E+00  1.00800000E+00  1.60000000E+01
  1.00800000E+00  1.00800000E+00  1.60000000E+01  1.00800000E+00  1.00800000E+00
  1.60000000E+01  1.00800000E+00  1.00800000E+00  1.60000000E+01  1.00800000E+00
  1.00800000E+00  1.60000000E+01  1.00800000E+00  1.00800000E+00  1.60000000E+01
  1.00800000E+00  1.00800000E+00  1.60000000E+01  1.00800000E+00  1.00800000E+00
  1.60000000E+01  1.00800000E+00  1.00800000E+00  1.60000000E+01  1.00800000E+00
  1.00800000E+00  1.60000000E+01  1.00800000E+00  1.00800000E+00  1.60000000E+01
  1.00800000E+00  1.00800000E+00  1.60000000E+01  1.00800000E+00  1.00800000E+00
  1.60000000E+01  1.00800000E+00  1.00800000E+00  1.60000000E+01  1.00800000E+00
  1.00800000E+00  1.60000000E+01  1.00800000E+00  1.00800000E+00  1.60000000E+01
  1.00800000E+00  1.00800000E+00  1.60000000E+01  1.00800000E+00  1.00800000E+00
  1.60000000E+01  1.00800000E+00  1.00800000E+00  1.60000000E+01  1.00800000E+00
  1.00800000E+00  1.60000000E+01  1.00800000E+00  1.00800000E+00  1.60000000E+01
  1.00800000E+00  1.00800000E+00  1.60000000E+01  1.00800000E+00  1.00800000E+00
  1.60000000E+01  1.00800000E+00  1.00800000E+00  1.60000000E+01  1.00800000E+00
  1.00800000E+00  1.60000000E+01  1.00800000E+00  1.00800000E+00  1.60000000E+01
  1.00800000E+00  1.00800000E+00  1.60000000E+01  1.00800000E+00  1.00800000E+00
  1.60000000E+01  1.00800000E+00  1.00800000E+00  1.60000000E+01  1.00800000E+00
  1.00800000E+00  1.60000000E+01  1.00800000E+00  1.00800000E+00  1.60000000E+01
  1.00800000E+00  1.00800000E+00  1.60000000E+01  1.00800000E+00  1.00800000E+00
  1.60000000E+01  1.00800000E+00  1.00800000E+00  1.60000000E+01  1.00800000E+00
  1.00800000E+00  1.60000000E+01  1.00800000E+00  1.00800000E+00  1.60000000E+01
  1.00800000E+00  1.00800000E+00  1.60000000E+01  1.00800000E+00  1.00800000E+00
  1.60000000E+01  1.00800000E+00  1.00800000E+00  1.60000000E+01  1.00800000E+00
  1.00800000E+00  1.60000000E+01  1.00800000E+00  1.00800000E+00  1.60000000E+01
  1.00800000E+00  1.00800000E+00  1.60000000E+01  1.00800000E+00  1.00800000E+00
  1.60000000E+01  1.00800000E+00  1.00800000E+00  1.60000000E+01  1.00800000E+00
  1.00800000E+00  1.60000000E+01  1.00800000E+00  1.00800000E+00  1.60000000E+01
  1.00800000E+00  1.00800000E+00  1.60000000E+01  1.00800000E+00  1.00800000E+00
  1.60000000E+01  1.00800000E+00  1.00800000E+00  1.60000000E+01  1.00800000E+00
  1.00800000E+00  1.60000000E+01  1.00800000E+00  1.00800000E+00  1.60000000E+01
  1.00800000E+00  1.00800000E+00  1.60000000E+01  1.00800000E+00  1.00800000E+00
  1.60000000E+01  1.00800000E+00  1.00800000E+00  1.60000000E+01  1.00800000E+00
  1.00800000E+00  1.60000000E+01  1.00800000E+00  1.00800000E+00  1.60000000E+01
  1.00800000E+00  1.00800000E+00  1.60000000E+01  1.00800000E+00  1.00800000E+00
  1.60000000E+01  1.00800000E+00  1.00800000E+00  1.60000000E+01  1.00800000E+00
  1.00800000E+00  1.60000000E+01  1.00800000E+00  1.00800000E+00  1.60000000E+01
  1.00800000E+00  1.00800000E+00  1.60000000E+01  1.00800000E+00  1.00800000E+00
  1.60000000E+01  1.00800000E+00  1.00800000E+00  1.60000000E+01  1.00800000E+00
  1.00800000E+00  1.60000000E+01  1.00800000E+00  1.00800000E+00  1.60000000E+01
  1.00800000E+00  1.00800000E+00  1.60000000E+01  1.00800000E+00  1.00800000E+00
  1.60000000E+01  1.00800000E+00  1.00800000E+00  1.60000000E+01  1.00800000E+00
  1.00800000E+00  1.60000000E+01  1.00800000E+00  1.00800000E+00  1.60000000E+01
  1.00800000E+00  1.00800000E+00  1.60000000E+01  1.00800000E+00  1.00800000E+00
  1.60000000E+01  1.00800000E+00  1.00800000E+00  1.60000000E+01  1.00800000E+00
  1.00800000E+00  1.60000000E+01  1.00800000E+00  1.00800000E+00  1.60000000E+01
  1.00800000E+00  1.00800000E+00  1.60000000E+01  1.00800000E+00  1.00800000E+00
  1.60000000E+01  1.00800000E+00  1.00800000E+00  1.60000000E+01  1.00800000E+00
  1.00800000E+00  1.60000000E+01  1.00800000E+00  1.00800000E+00  1.60000000E+01
  1.00800000E+00  1.00800000E+00  1.60000000E+01  1.00800000E+00  1.00800000E+00
  1.60000000E+01  1.00800000E+00  1.00800000E+00  1.60000000E+01  1.00800000E+00
  1.00800000E+00  1.60000000E+01  1.00800000E+00  1.00800000E+00  1.60000000E+01
  1.00800000E+00  1.00800000E+00  1.60000000E+01  1.00800000E+00  1.00800000E+00
  1.60000000E+01  1.00800000E+00  1.00800000E+00  1.60000000E+01  1.00800000E+00
  1.00800000E+00  1.60000000E+01  1.00800000E+00  1.00800000E+00  1.60000000E+01
  1.00800000E+00  1.00800000E+00  1.60000000E+01  1.00800000E+00  1.00800000E+00
  1.60000000E+01  1.00800000E+00  1.00800000E+00  1.60000000E+01  1.00800000E+00
  1.00800000E+00  1.60000000E+01  1.00800000E+00  1.00800000E+00  1.60000000E+01
  1.00800000E+00  1.00800000E+00  1.60000000E+01  1.00800000E+00  1.00800000E+00
  1.60000000E+01  1.00800000E+00  1.00800000E+00  1.60000000E+01  1.00800000E+00
  1.00800000E+00  1.60000000E+01  1.00800000E+00  1.00800000E+00  1.60000000E+01
  1.00800000E+00  1.00800000E+00  1.60000000E+01  1.00800000E+00  1.00800000E+00
  1.60000000E+01  1.00800000E+00  1.00800000E+00  1.60000000E+01  1.00800000E+00
  1.00800000E+00  1.60000000E+01  1.00800000E+00  1.00800000E+00  1.60000000E+01
  1.00800000E+00  1.00800000E+00  1.60000000E+01  1.00800000E+00  1.00800000E+00
  1.60000000E+01  1.00800000E+00  1.00800000E+00  1.60000000E+01  1.00800000E+00
  1.00800000E+00  1.60000000E+01  1.00800000E+00  1.00800000E+00  1.60000000E+01
  1.00800000E+00  1.00800000E+00  1.60000000E+01  1.00800000E+00  1.00800000E+00
  1.60000000E+01  1.00800000E+00  1.00800000E+00  1.60000000E+01  1.00800000E+00
  1.00800000E+00  1.60000000E+01  1.00800000E+00  1.00800000E+00  1.60000000E+01
  1.00800000E+00  1.00800000E+00  1.60000000E+01  1.00800000E+00  1.00800000E+00
  1.60000000E+01  1.00800000E+00  1.00800000E+00  1.60000000E+01  1.00800000E+00
  1.00800000E+00  1.60000000E+01  1.00800000E+00  1.00800000E+00  1.60000000E+01
  1.00800000E+00  1.00800000E+00  1.60000000E+01  1.00800000E+00  1.00800000E+00
  1.60000000E+01  1.00800000E+00  1.00800000E+00  1.60000000E+01  1.00800000E+00
  1.00800000E+00  1.60000000E+01  1.00800000E+00  1.00800000E+00  1.60000000E+01
  1.00800000E+00  1.00800000E+00  1.60000000E+01  1.00800000E+00  1.00800000E+00
  1.60000000E+01  1.00800000E+00  1.00800000E+00  1.60000000E+01  1.00800000E+00
  1.00800000E+00  1.60000000E+01  1.00800000E+00  1.00800000E+00  1.60000000E+01
  1.00800000E+00  1.00800000E+00  1.60000000E+01  1.00800000E+00  1.00800000E+00
  1.60000000E+01  1.00800000E+00  1.00800000E+00  1.60000000E+01  1.00800000E+00
  1.00800000E+00  1.60000000E+01  1.00800000E+00  1.00800000E+00  1.60000000E+01
  1.00800000E+00  1.00800000E+00  1.60000000E+01  1.00800000E+00  1.00800000E+00
  1.60000000E+01  1.00800000E+00  1.00800000E+00  1.60000000E+01  1.00800000E+00
  1.00800000E+00  1.60000000E+01  1.00800000E+00  1.00800000E+00  1.60000000E+01
  1.00800000E+00  1.00800000E+00  1.60000000E+01  1.00800000E+00  1.00800000E+00
  1.60000000E+01  1.00800000E+00  1.00800000E+00  1.60000000E+01  1.00800000E+00
  1.00800000E+00  1.60000000E+01  1.00800000E+00  1.00800000E+00  1.60000000E+01
  1.00800000E+00  1.00800000E+00  1.60000000E+01  1.00800000E+00  1.00800000E+00
  1.60000000E+01  1.00800000E+00  1.00800000E+00  1.60000000E+01  1.00800000E+00
  1.00800000E+00  1.60000000E+01  1.00800000E+00  1.00800000E+00  1.60000000E+01
  1.00800000E+00  1.00800000E+00  1.60000000E+01  1.00800000E+00  1.00800000E+00
  1.60000000E+01  1.00800000E+00  1.00800000E+00  1.60000000E+01  1.00800000E+00
  1.00800000E+00  1.60000000E+01  1.00800000E+00  1.00800000E+00  1.60000000E+01
  1.00800000E+00  1.00800000E+00  1.60000000E+01  1.00800000E+00  1.00800000E+00
  1.60000000E+01  1.00800000E+00  1.00800000E+00  1.60000000E+01  1.00800000E+00
  1.00800000E+00  1.60000000E+01  1.00800000E+00  1.00800000E+00  1.60000000E+01
  1.00800000E+00  1.00800000E+00  1.60000000E+01  1.00800000E+00  1.00800000E+00
  1.60000000E+01  1.00800000E+00  1.00800000E+00  1.60000000E+01  1.00800000E+00
  1.00800000E+00  1.60000000E+01  1.00800000E+00  1.00800000E+00  1.60000000E+01
  1.00800000E+00  1.00800000E+00  1.60000000E+01  1.00800000E+00  1.00800000E+00
  1.60000000E+01  1.00800000E+00  1.00800000E+00  1.60000000E+01  1.00800000E+00
  1.00800000E+00  1.60000000E+01  1.00800000E+00  1.00800000E+00  1.60000000E+01
  1.00800000E+00  1.00800000E+00  1.60000000E+01  1.00800000E+00  1.00800000E+00
  1.60000000E+01  1.00800000E+00  1.00800000E+00  1.60000000E+01  1.00800000E+00
  1.00800000E+00  1.60000000E+01  1.00800000E+00  1.00800000E+00  1.60000000E+01
  1.00800000E+00  1.00800000E+00  1.60000000E+01  1.00800000E+00  1.00800000E+00
  1.60000000E+01  1.00800000E+00  1.00800000E+00  1.60000000E+01  1.00800000E+00
  1.00800000E+00  1.60000000E+01  1.00800000E+00  1.00800000E+00  1.60000000E+01
  1.00800000E+00  1.00800000E+00  1.60000000E+01  1.00800000E+00  1.00800000E+00
  1.60000000E+01  1.00800000E+00  1.00800000E+00  1.60000000E+01  1.00800000E+00
  1.00800000E+00  1.60000000E+01  1.00800000E+00  1.00800000E+00  1.60000000E+01
  1.00800000E+00  1.00800000E+00  1.60000000E+01  1.00800000E+00  1.00800000E+00
  1.60000000E+01  1.00800000E+00  1.00800000E+00  1.60000000E+01  1.00800000E+00
  1.00800000E+00  1.60000000E+01  1.00800000E+00  1.00800000E+00  1.60000000E+01
  1.00800000E+00  1.00800000E+00  1.60000000E+01  1.00800000E+00  1.00800000E+00
  1.60000000E+01  1.00800000E+00  1.00800000E+00  1.60000000E+01  1.00800000E+00
  1.00800000E+00  1.60000000E+01  1.00800000E+00  1.00800000E+00  1.60000000E+01
  1.00800000E+00  1.00800000E+00  1.60000000E+01  1.00800000E+00  1.00800000E+00
  1.60000000E+01  1.00800000E+00  1.00800000E+00  1.60000000E+01  1.00800000E+00
  1.00800000E+00  1.60000000E+01  1.00800000E+00  1.00800000E+00  1.60000000E+01
  1.00800000E+00  1.00800000E+00  1.60000000E+01  1.00800000E+00  1.00800000E+00
  1.60000000E+01  1.00800000E+00  1.00800000E+00  1.60000000E+01  1.00800000E+00
  1.00800000E+00  1.60000000E+01  1.00800000E+00  1.00800000E+00  1.60000000E+01
  1.00800000E+00  1.00800000E+00  1.60000000E+01  1.00800000E+00  1.00800000E+00
  1.60000000E+01  1.00800000E+00  1.00800000E+00  1.60000000E+01  1.00800000E+00
  1.00800000E+00  1.60000000E+01  1.00800000E+00  1.00800000E+00  1.60000000E+01
  1.00800000E+00  1.00800000E+00  1.60000000E+01  1.00800000E+00  1.00800000E+00
  1.60000000E+01  1.00800000E+00  1.00800000E+00  1.60000000E+01  1.00800000E+00
  1.00800000E+00  1.60000000E+01  1.00800000E+00  1.00800000E+00  1.60000000E+01
  1.00800000E+00  1.00800000E+00  1.60000000E+01  1.00800000E+00  1.00800000E+00
  1.60000000E+01  1.00800000E+00  1.00800000E+00  1.60000000E+01  1.00800000E+00
  1.00800000E+00  1.60000000E+01  1.00800000E+00  1.00800000E+00  1.60000000E+01
  1.00800000E+00  1.00800000E+00  1.60000000E+01  1.00800000E+00  1.00800000E+00
  1.60000000E+01  1.00800000E+00  1.00800000E+00  1.60000000E+01  1.00800000E+00
  1.00800000E+00  1.60000000E+01  1.00800000E+00  1.00800000E+00  1.60000000E+01
  1.00800000E+00  1.00800000E+00  1.60000000E+01  1.00800000E+00  1.00800000E+00
  1.60000000E+01  1.00800000E+00  1.00800000E+00  1.60000000E+01  1.00800000E+00
  1.00800000E+00  1.60000000E+01  1.00800000E+00  1.00800000E+00  1.60000000E+01
  1.00800000E+00  1.00800000E+00  1.60000000E+01  1.00800000E+00  1.00800000E+00
  1.60000000E+01  1.00800000E+00  1.00800000E+00  1.60000000E+01  1.00800000E+00
  1.00800000E+00  1.60000000E+01  1.00800000E+00  1.00800000E+00  1.60000000E+01
  1.00800000E+00  1.00800000E+00  1.60000000E+01  1.00800000E+00  1.00800000E+00
  1.60000000E+01  1.00800000E+00  1.00800000E+00  1.60000000E+01  1.00800000E+00
  1.00800000E+00  1.60000000E+01  1.00800000E+00  1.00800000E+00  1.60000000E+01
  1.00800000E+00  1.00800000E+00  1.60000000E+01  1.00800000E+00  1.00800000E+00
  1.60000000E+01  1.00800000E+00  1.00800000E+00  1.60000000E+01  1.00800000E+00
  1.00800000E+00  1.60000000E+01  1.00800000E+00  1.00800000E+00  1.60000000E+01
  1.00800000E+00  1.00800000E+00  1.60000000E+01  1.00800000E+00  1.00800000E+00
  1.60000000E+01  1.00800000E+00  1.00800000E+00  1.60000000E+01  1.00800000E+00
  1.00800000E+00  1.60000000E+01  1.00800000E+00  1.00800000E+00  1.60000000E+01
  1.00800000E+00  1.00800000E+00  1.60000000E+01  1.00800000E+00  1.00800000E+00
  1.60000000E+01  1.00800000E+00  1.00800000E+00  1.60000000E+01  1.00800000E+00
  1.00800000E+00  1.60000000E+01  1.00800000E+00  1.00800000E+00  1.60000000E+01
  1.00800000E+00  1.00800000E+00  1.60000000E+01  1.00800000E+00  1.00800000E+00
  1.60000000E+01  1.00800000E+00  1.00800000E+00  1.60000000E+01  1.00800000E+00
  1.00800000E+00  1.60000000E+01  1.00800000E+00  1.00800000E+00  1.60000000E+01
  1.00800000E+00  1.00800000E+00  1.60000000E+01  1.00800000E+00  1.00800000E+00
  1.60000000E+01  1.00800000E+00  1.00800000E+00  1.60000000E+01  1.00800000E+00
  1.00800000E+00  1.60000000E+01  1.00800000E+00  1.00800000E+00  1.60000000E+01
  1.00800000E+00  1.00800000E+00  1.60000000E+01  1.00800000E+00  1.00800000E+00
  1.60000000E+01  1.00800000E+00  1.00800000E+00  1.60000000E+01  1.00800000E+00
  1.00800000E+00  1.60000000E+01  1.00800000E+00  1.00800000E+00  1.60000000E+01
  1.00800000E+00  1.00800000E+00  1.60000000E+01  1.00800000E+00  1.00800000E+00
  1.60000000E+01  1.00800000E+00  1.00800000E+00  1.60000000E+01  1.00800000E+00
  1.00800000E+00  1.60000000E+01  1.00800000E+00  1.00800000E+00  1.60000000E+01
  1.00800000E+00  1.00800000E+00  1.60000000E+01  1.00800000E+00  1.00800000E+00
  1.60000000E+01  1.00800000E+00  1.00800000E+00  1.60000000E+01  1.00800000E+00
  1.00800000E+00  1.60000000E+01  1.00800000E+00  1.00800000E+00  1.60000000E+01
  1.00800000E+00  1.00800000E+00  1.60000000E+01  1.00800000E+00  1.00800000E+00
  1.60000000E+01  1.00800000E+00  1.00800000E+00  1.60000000E+01  1.00800000E+00
  1.00800000E+00  1.60000000E+01  1.00800000E+00  1.00800000E+00  1.60000000E+01
  1.00800000E+00  1.00800000E+00  1.60000000E+01  1.00800000E+00  1.00800000E+00
  1.60000000E+01  1.00800000E+00  1.00800000E+00  1.60000000E+01  1.00800000E+00
  1.00800000E+00  1.60000000E+01  1.00800000E+00  1.00800000E+00  1.60000000E+01
  1.00800000E+00  1.00800000E+00  1.60000000E+01  1.00800000E+00  1.00800000E+00
  1.60000000E+01  1.00800000E+00  1.00800000E+00  1.60000000E+01  1.00800000E+00
  1.00800000E+00  1.60000000E+01  1.00800000E+00  1.00800000E+00  1.60000000E+01
  1.00800000E+00  1.00800000E+00  1.60000000E+01  1.00800000E+00  1.00800000E+00
  1.60000000E+01  1.00800000E+00  1.00800000E+00  1.60000000E+01  1.00800000E+00
  1.00800000E+00  1.60000000E+01  1.00800000E+00  1.00800000E+00  1.60000000E+01
  1.00800000E+00  1.00800000E+00  1.60000000E+01  1.00800000E+00  1.00800000E+00
  1.60000000E+01  1.00800000E+00  1.00800000E+00  1.60000000E+01  1.00800000E+00
  1.00800000E+00  1.60000000E+01  1.00800000E+00  1.00800000E+00  1.60000000E+01
  1.00800000E+00  1.00800000E+00  1.60000000E+01  1.00800000E+00  1.00800000E+00
  1.60000000E+01  1.00800000E+00  1.00800000E+00  1.60000000E+01  1.00800000E+00
  1.00800000E+00  1.60000000E+01  1.00800000E+00  1.00800000E+00  1.60000000E+01
  1.00800000E+00  1.00800000E+00  1.60000000E+01  1.00800000E+00  1.00800000E+00
  1.60000000E+01  1.00800000E+00  1.00800000E+00  1.60000000E+01  1.00800000E+00
  1.00800000E+00  1.60000000E+01  1.00800000E+00  1.00800000E+00  1.60000000E+01
  1.00800000E+00  1.00800000E+00  1.60000000E+01  1.00800000E+00  1.00800000E+00
  1.60000000E+01  1.00800000E+00  1.00800000E+00  1.60000000E+01  1.00800000E+00
  1.00800000E+00  1.60000000E+01  1.00800000E+00  1.00800000E+00  1.60000000E+01
  1.00800000E+00  1.00800000E+00  1.60000000E+01  1.00800000E+00  1.00800000E+00
  1.60000000E+01  1.00800000E+00  1.00800000E+00  1.60000000E+01  1.00800000E+00
  1.00800000E+00  1.60000000E+01  1.00800000E+00  1.00800000E+00  1.60000000E+01
  1.00800000E+00  1.00800000E+00  1.60000000E+01  1.00800000E+00  1.00800000E+00
  1.60000000E+01  1.00800000E+00  1.00800000E+00  1.60000000E+01  1.00800000E+00
  1.00800000E+00  1.60000000E+01  1.00800000E+00  1.00800000E+00  1.60000000E+01
  1.00800000E+00  1.00800000E+00  1.60000000E+01  1.00800000E+00  1.00800000E+00
  1.60000000E+01  1.00800000E+00  1.00800000E+00  1.60000000E+01  1.00800000E+00
  1.00800000E+00  1.60000000E+01  1.00800000E+00  1.00800000E+00  1.60000000E+01
  1.00800000E+00  1.00800000E+00  1.60000000E+01  1.00800000E+00  1.00800000E+00
  1.60000000E+01  1.00800000E+00  1.00800000E+00  1.60000000E+01  1.00800000E+00
  1.00800000E+00  1.60000000E+01  1.00800000E+00  1.00800000E+00  1.60000000E+01
  1.00800000E+00  1.00800000E+00  1.60000000E+01  1.00800000E+00  1.00800000E+00
  1.60000000E+01  1.00800000E+00  1.00800000E+00  1.60000000E+01  1.00800000E+00
  1.00800000E+00  1.60000000E+01  1.00800000E+00  1.00800000E+00  1.60000000E+01
  1.00800000E+00  1.00800000E+00  1.60000000E+01  1.00800000E+00  1.00800000E+00
  1.60000000E+01  1.00800000E+00  1.00800000E+00  1.60000000E+01  1.00800000E+00
  1.00800000E+00  1.60000000E+01  1.00800000E+00  1.00800000E+00  1.60000000E+01
  1.00800000E+00  1.00800000E+00  1.60000000E+01  1.00800000E+00  1.00800000E+00
  1.60000000E+01  1.00800000E+00  1.00800000E+00  1.60000000E+01  1.00800000E+00
  1.00800000E+00  1.60000000E+01  1.00800000E+00  1.00800000E+00  1.60000000E+01
  1.00800000E+00  1.00800000E+00  1.60000000E+01  1.00800000E+00  1.00800000E+00
  1.60000000E+01  1.00800000E+00  1.00800000E+00  1.60000000E+01  1.00800000E+00
  1.00800000E+00  1.60000000E+01  1.00800000E+00  1.00800000E+00  1.60000000E+01
  1.00800000E+00  1.00800000E+00  1.60000000E+01  1.00800000E+00  1.00800000E+00
  1.60000000E+01  1.00800000E+00  1.00800000E+00  1.60000000E+01  1.00800000E+00
  1.00800000E+00  1.60000000E+01  1.00800000E+00  1.00800000E+00  1.60000000E+01
  1.00800000E+00  1.00800000E+00  1.60000000E+01  1.00800000E+00  1.00800000E+00
  1.60000000E+01  1.00800000E+00  1.00800000E+00  1.60000000E+01  1.00800000E+00
  1.00800000E+00  1.60000000E+01  1.00800000E+00  1.00800000E+00  1.60000000E+01
  1.00800000E+00  1.00800000E+00  1.60000000E+01  1.00800000E+00  1.00800000E+00
  1.60000000E+01  1.00800000E+00  1.00800000E+00  1.60000000E+01  1.00800000E+00
  1.00800000E+00  1.60000000E+01  1.00800000E+00  1.00800000E+00  1.60000000E+01
  1.00800000E+00  1.00800000E+00  1.60000000E+01  1.00800000E+00  1.00800000E+00
  1.60000000E+01  1.00800000E+00  1.00800000E+00  1.60000000E+01  1.00800000E+00
  1.00800000E+00  1.60000000E+01  1.00800000E+00  1.00800000E+00  1.60000000E+01
  1.00800000E+00  1.00800000E+00  1.60000000E+01  1.00800000E+00  1.00800000E+00
  1.60000000E+01  1.00800000E+00  1.00800000E+00  1.60000000E+01  1.00800000E+00
  1.00800000E+00  1.60000000E+01  1.00800000E+00  1.00800000E+00  1.60000000E+01
  1.00800000E+00  1.00800000E+00  1.60000000E+01  1.00800000E+00  1.00800000E+00
  1.60000000E+01  1.00800000E+00  1.00800000E+00  1.60000000E+01  1.00800000E+00
  1.00800000E+00  1.60000000E+01  1.00800000E+00  1.00800000E+00  1.60000000E+01
  1.00800000E+00  1.00800000E+00  1.60000000E+01  1.00800000E+00  1.00800000E+00
  1.60000000E+01  1.00800000E+00  1.00800000E+00  1.60000000E+01  1.00800000E+00
  1.00800000E+00  1.60000000E+01  1.00800000E+00  1.00800000E+00  1.60000000E+01
  1.00800000E+00  1.00800000E+00  1.60000000E+01  1.00800000E+00  1.00800000E+00
  1.60000000E+01  1.00800000E+00  1.00800000E+00  1.60000000E+01  1.00800000E+00
  1.00800000E+00  1.60000000E+01  1.00800000E+00  1.00800000E+00  1.60000000E+01
  1.00800000E+00  1.00800000E+00  1.60000000E+01  1.00800000E+00  1.00800000E+00
  1.60000000E+01  1.00800000E+00  1.00800000E+00  1.60000000E+01  1.00800000E+00
  1.00800000E+00  1.60000000E+01  1.00800000E+00  1.00800000E+00  1.60000000E+01
  1.00800000E+00  1.00800000E+00  1.60000000E+01  1.00800000E+00  1.00800000E+00
  1.60000000E+01  1.00800000E+00  1.00800000E+00  1.60000000E+01  1.00800000E+00
  1.00800000E+00  1.60000000E+01  1.00800000E+00  1.00800000E+00  1.60000000E+01
  1.00800000E+00  1.00800000E+00  1.60000000E+01  1.00800000E+00  1.00800000E+00
  1.60000000E+01  1.00800000E+00  1.00800000E+00  1.60000000E+01  1.00800000E+00
  1.00800000E+00  1.60000000E+01  1.00800000E+00  1.00800000E+00  1.60000000E+01
  1.00800000E+00  1.00800000E+00  1.60000000E+01  1.00800000E+00  1.00800000E+00
  1.60000000E+01  1.00800000E+00  1.00800000E+00  1.60000000E+01  1.00800000E+00
  1.00800000E+00  1.60000000E+01  1.00800000E+00  1.00800000E+00  1.60000000E+01
  1.00800000E+00  1.00800000E+00  1.60000000E+01  1.00800000E+00  1.00800000E+00
  1.60000000E+01  1.00800000E+00  1.00800000E+00  1.60000000E+01  1.00800000E+00
  1.00800000E+00  1.60000000E+01  1.00800000E+00  1.00800000E+00  1.60000000E+01
  1.00800000E+00  1.00800000E+00  1.60000000E+01  1.00800000E+00  1.00800000E+00
  1.60000000E+01  1.00800000E+00  1.00800000E+00  1.60000000E+01  1.00800000E+00
  1.00800000E+00  1.60000000E+01  1.00800000E+00  1.00800000E+00  1.60000000E+01
  1.00800000E+00  1.00800000E+00  1.60000000E+01  1.00800000E+00  1.00800000E+00
  1.60000000E+01  1.00800000E+00  1.00800000E+00  1.60000000E+01  1.00800000E+00
  1.00800000E+00  1.60000000E+01  1.00800000E+00  1.00800000E+00  1.60000000E+01
  1.00800000E+00  1.00800000E+00  1.60000000E+01  1.00800000E+00  1.00800000E+00
  1.60000000E+01  1.00800000E+00  1.00800000E+00  1.60000000E+01  1.00800000E+00
  1.00800000E+00  1.60000000E+01  1.00800000E+00  1.00800000E+00  1.60000000E+01
  1.00800000E+00  1.00800000E+00  1.60000000E+01  1.00800000E+00  1.00800000E+00
  1.60000000E+01  1.00800000E+00  1.00800000E+00  1.60000000E+01  1.00800000E+00
  1.00800000E+00  1.60000000E+01  1.00800000E+00  1.00800000E+00  1.60000000E+01
  1.00800000E+00  1.00800000E+00  1.60000000E+01  1.00800000E+00  1.00800000E+00
  1.60000000E+01  1.00800000E+00  1.00800000E+00  1.60000000E+01  1.00800000E+00
  1.00800000E+00  1.60000000E+01  1.00800000E+00  1.00800000E+00  1.60000000E+01
  1.00800000E+00  1.00800000E+00  1.60000000E+01  1.00800000E+00  1.00800000E+00
  1.60000000E+01  1.00800000E+00  1.00800000E+00  1.60000000E+01  1.00800000E+00
  1.00800000E+00  1.60000000E+01  1.00800000E+00  1.00800000E+00  1.60000000E+01
  1.00800000E+00  1.00800000E+00  1.60000000E+01  1.00800000E+00  1.00800000E+00
  1.60000000E+01  1.00800000E+00  1.00800000E+00  1.60000000E+01  1.00800000E+00
  1.00800000E+00  1.60000000E+01  1.00800000E+00  1.00800000E+00  1.60000000E+01
  1.00800000E+00  1.00800000E+00  1.60000000E+01  1.00800000E+00  1.00800000E+00
  1.60000000E+01  1.00800000E+00  1.00800000E+00  1.60000000E+01  1.00800000E+00
  1.00800000E+00  1.60000000E+01  1.00800000E+00  1.00800000E+00  1.60000000E+01
  1.00800000E+00  1.00800000E+00  1.60000000E+01  1.00800000E+00  1.00800000E+00
  1.60000000E+01  1.00800000E+00  1.00800000E+00  1.60000000E+01  1.00800000E+00
  1.00800000E+00  1.60000000E+01  1.00800000E+00  1.00800000E+00  1.60000000E+01
  1.00800000E+00  1.00800000E+00  1.60000000E+01  1.00800000E+00  1.00800000E+00
  1.60000000E+01  1.00800000E+00  1.00800000E+00  1.60000000E+01  1.00800000E+00
  1.00800000E+00  1.60000000E+01  1.00800000E+00  1.00800000E+00  1.60000000E+01
  1.00800000E+00  1.00800000E+00  1.60000000E+01  1.00800000E+00  1.00800000E+00
  1.60000000E+01  1.00800000E+00  1.00800000E+00  1.60000000E+01  1.00800000E+00
  1.00800000E+00  1.60000000E+01  1.00800000E+00  1.00800000E+00  1.60000000E+01
  1.00800000E+00  1.00800000E+00  1.60000000E+01  1.00800000E+00  1.00800000E+00
  1.60000000E+01  1.00800000E+00  1.00800000E+00  1.60000000E+01  1.00800000E+00
  1.00800000E+00  1.60000000E+01  1.00800000E+00  1.00800000E+00  1.60000000E+01
  1.00800000E+00  1.00800000E+00  1.60000000E+01  1.00800000E+00  1.00800000E+00
  1.60000000E+01  1.00800000E+00  1.00800000E+00  1.60000000E+01  1.00800000E+00
  1.00800000E+00  1.60000000E+01  1.00800000E+00  1.00800000E+00  1.60000000E+01
  1.00800000E+00  1.00800000E+00  1.60000000E+01  1.00800000E+00  1.00800000E+00
  1.60000000E+01  1.00800000E+00  1.00800000E+00  1.60000000E+01  1.00800000E+00
  1.00800000E+00  1.60000000E+01  1.00800000E+00  1.00800000E+00  1.60000000E+01
  1.00800000E+00  1.00800000E+00  1.60000000E+01  1.00800000E+00  1.00800000E+00
  1.60000000E+01  1.00800000E+00  1.00800000E+00  1.60000000E+01  1.00800000E+00
  1.00800000E+00  1.60000000E+01  1.00800000E+00  1.00800000E+00  1.60000000E+01
  1.00800000E+00  1.00800000E+00  1.60000000E+01  1.00800000E+00  1.00800000E+00
  1.60000000E+01  1.00800000E+00  1.00800000E+00  1.60000000E+01  1.00800000E+00
  1.00800000E+00  1.60000000E+01  1.00800000E+00  1.00800000E+00  1.60000000E+01
  1.00800000E+00  1.00800000E+00  1.60000000E+01  1.00800000E+00  1.00800000E+00
  1.60000000E+01  1.00800000E+00  1.00800000E+00  1.60000000E+01  1.00800000E+00
  1.00800000E+00  1.60000000E+01  1.00800000E+00  1.00800000E+00  1.60000000E+01
  1.00800000E+00  1.00800000E+00  1.60000000E+01  1.00800000E+00  1.00800000E+00
  1.60000000E+01  1.00800000E+00  1.00800000E+00  1.60000000E+01  1.00800000E+00
  1.00800000E+00  1.60000000E+01  1.00800000E+00  1.00800000E+00  1.60000000E+01
  1.00800000E+00  1.00800000E+00  1.60000000E+01  1.00800000E+00  1.00800000E+00
  1.60000000E+01  1.00800000E+00  1.00800000E+00  1.60000000E+01  1.00800000E+00
  1.00800000E+00  1.60000000E+01  1.00800000E+00  1.00800000E+00  1.60000000E+01
  1.00800000E+00  1.00800000E+00  1.60000000E+01  1.00800000E+00  1.00800000E+00
  1.60000000E+01  1.00800000E+00  1.00800000E+00  1.60000000E+01  1.00800000E+00
  1.00800000E+00  1.60000000E+01  1.00800000E+00  1.00800000E+00  1.60000000E+01
  1.00800000E+00  1.00800000E+00  1.60000000E+01  1.00800000E+00  1.00800000E+00
  1.60000000E+01  1.00800000E+00  1.00800000E+00  1.60000000E+01  1.00800000E+00
  1.00800000E+00  1.60000000E+01  1.00800000E+00  1.00800000E+00  1.60000000E+01
  1.00800000E+00  1.00800000E+00  1.60000000E+01  1.00800000E+00  1.00800000E+00
  1.60000000E+01  1.00800000E+00  1.00800000E+00  1.60000000E+01  1.00800000E+00
  1.00800000E+00  1.60000000E+01  1.00800000E+00  1.00800000E+00  1.60000000E+01
  1.00800000E+00  1.00800000E+00  1.60000000E+01  1.00800000E+00  1.00800000E+00
  1.60000000E+01  1.00800000E+00  1.00800000E+00  1.60000000E+01  1.00800000E+00
  1.00800000E+00  1.60000000E+01  1.00800000E+00  1.00800000E+00  1.60000000E+01
  1.00800000E+00  1.00800000E+00  1.60000000E+01  1.00800000E+00  1.00800000E+00
  1.60000000E+01  1.00800000E+00  1.00800000E+00  1.60000000E+01  1.00800000E+00
  1.00800000E+00  1.60000000E+01  1.00800000E+00  1.00800000E+00  1.60000000E+01
  1.00800000E+00  1.00800000E+00  1.60000000E+01  1.00800000E+00  1.00800000E+00
  1.60000000E+01  1.00800000E+00  1.00800000E+00  1.60000000E+01  1.00800000E+00
  1.00800000E+00  1.60000000E+01  1.00800000E+00  1.00800000E+00  1.60000000E+01
  1.00800000E+00  1.00800000E+00  1.60000000E+01  1.00800000E+00  1.00800000E+00
  1.60000000E+01  1.00800000E+00  1.00800000E+00  1.60000000E+01  1.00800000E+00
  1.00800000E+00  1.60000000E+01  1.00800000E+00  1.00800000E+00  1.60000000E+01
  1.00800000E+00  1.00800000E+00  1.60000000E+01  1.00800000E+00  1.00800000E+00
  1.60000000E+01  1.00800000E+00  1.00800000E+00  1.60000000E+01  1.00800000E+00
  1.00800000E+00  1.60000000E+01  1.00800000E+00  1.00800000E+00  1.60000000E+01
  1.00800000E+00  1.00800000E+00  1.60000000E+01  1.00800000E+00  1.00800000E+00
  1.60000000E+01  1.00800000E+00  1.00800000E+00  1.60000000E+01  1.00800000E+00
  1.00800000E+00  1.60000000E+01  1.00800000E+00  1.00800000E+00  1.60000000E+01
  1.00800000E+00  1.00800000E+00  1.60000000E+01  1.00800000E+00  1.00800000E+00
  1.60000000E+01  1.00800000E+00  1.00800000E+00  1.60000000E+01  1.00800000E+00
  1.00800000E+00  1.60000000E+01  1.00800000E+00  1.00800000E+00  1.60000000E+01
  1.00800000E+00  1.00800000E+00  1.60000000E+01  1.00800000E+00  1.00800000E+00
  1.60000000E+01  1.00800000E+00  1.00800000E+00  1.60000000E+01  1.00800000E+00
  1.00800000E+00  1.60000000E+01  1.00800000E+00  1.00800000E+00  1.60000000E+01
  1.00800000E+00  1.00800000E+00  1.60000000E+01  1.00800000E+00  1.00800000E+00
  1.60000000E+01  1.00800000E+00  1.00800000E+00  1.60000000E+01  1.00800000E+00
  1.00800000E+00  1.60000000E+01  1.00800000E+00  1.00800000E+00  1.60000000E+01
  1.00800000E+00  1.00800000E+00  1.60000000E+01  1.00800000E+00  1.00800000E+00
  1.60000000E+01  1.00800000E+00  1.00800000E+00  1.60000000E+01  1.00800000E+00
  1.00800000E+00  1.60000000E+01  1.00800000E+00  1.00800000E+00  1.60000000E+01
  1.00800000E+00  1.00800000E+00  1.60000000E+01  1.00800000E+00  1.00800000E+00
  1.60000000E+01  1.00800000E+00  1.00800000E+00  1.60000000E+01  1.00800000E+00
  1.00800000E+00  1.60000000E+01  1.00800000E+00  1.00800000E+00  1.60000000E+01
  1.00800000E+00  1.00800000E+00  1.60000000E+01  1.00800000E+00  1.00800000E+00
  1.60000000E+01  1.00800000E+00  1.00800000E+00  1.60000000E+01  1.00800000E+00
  1.00800000E+00  1.60000000E+01  1.00800000E+00  1.00800000E+00  1.60000000E+01
  1.00800000E+00  1.00800000E+00  1.60000000E+01  1.00800000E+00  1.00800000E+00
  1.60000000E+01  1.00800000E+00  1.00800000E+00  1.60000000E+01  1.00800000E+00
  1.00800000E+00  1.60000000E+01  1.00800000E+00  1.00800000E+00  1.60000000E+01
  1.00800000E+00  1.00800000E+00  1.60000000E+01  1.00800000E+00  1.00800000E+00
  1.60000000E+01  1.00800000E+00  1.00800000E+00  1.60000000E+01  1.00800000E+00
  1.00800000E+00  1.60000000E+01  1.00800000E+00  1.00800000E+00  1.60000000E+01
  1.00800000E+00  1.00800000E+00  1.60000000E+01  1.00800000E+00  1.00800000E+00
  1.60000000E+01  1.00800000E+00  1.00800000E+00  1.60000000E+01  1.00800000E+00
  1.00800000E+00  1.60000000E+01  1.00800000E+00  1.00800000E+00  1.60000000E+01
  1.00800000E+00  1.00800000E+00  1.60000000E+01  1.00800000E+00  1.00800000E+00
  1.60000000E+01  1.00800000E+00  1.00800000E+00  1.60000000E+01  1.00800000E+00
  1.00800000E+00  1.60000000E+01  1.00800000E+00  1.00800000E+00  1.60000000E+01
  1.00800000E+00  1.00800000E+00  1.60000000E+01  1.00800000E+00  1.00800000E+00
  1.60000000E+01  1.00800000E+00  1.00800000E+00  1.60000000E+01  1.00800000E+00
  1.00800000E+00  1.60000000E+01  1.00800000E+00  1.00800000E+00  1.60000000E+01
  1.00800000E+00  1.00800000E+00  1.60000000E+01  1.00800000E+00  1.00800000E+00
  1.60000000E+01  1.00800000E+00  1.00800000E+00  1.60000000E+01  1.00800000E+00
  1.00800000E+00  1.60000000E+01  1.00800000E+00  1.00800000E+00  1.60000000E+01
  1.00800000E+00  1.00800000E+00  1.60000000E+01  1.00800000E+00  1.00800000E+00
  1.60000000E+01  1.00800000E+00  1.00800000E+00  1.60000000E+01  1.00800000E+00
  1.00800000E+00  1.60000000E+01  1.00800000E+00  1.00800000E+00  1.60000000E+01
  1.00800000E+00  1.00800000E+00  1.60000000E+01  1.00800000E+00  1.00800000E+00
  1.60000000E+01  1.00800000E+00  1.00800000E+00  1.60000000E+01  1.00800000E+00
  1.00800000E+00  1.60000000E+01  1.00800000E+00  1.00800000E+00  1.60000000E+01
  1.00800000E+00  1.00800000E+00  1.60000000E+01  1.00800000E+00  1.00800000E+00
  1.60000000E+01  1.00800000E+00  1.00800000E+00  1.60000000E+01  1.00800000E+00
  1.00800000E+00  1.60000000E+01  1.00800000E+00  1.00800000E+00  1.60000000E+01
  1.00800000E+00  1.00800000E+00  1.60000000E+01  1.00800000E+00  1.00800000E+00
  1.60000000E+01  1.00800000E+00  1.00800000E+00  1.60000000E+01  1.00800000E+00
  1.00800000E+00  1.60000000E+01  1.00800000E+00  1.00800000E+00  1.60000000E+01
  1.00800000E+00  1.00800000E+00  1.60000000E+01  1.00800000E+00  1.00800000E+00
  1.60000000E+01  1.00800000E+00  1.00800000E+00  1.60000000E+01  1.00800000E+00
  1.00800000E+00  1.60000000E+01  1.00800000E+00  1.00800000E+00  1.60000000E+01
  1.00800000E+00  1.00800000E+00  1.60000000E+01  1.00800000E+00  1.00800000E+00
  1.60000000E+01  1.00800000E+00  1.00800000E+00  1.60000000E+01  1.00800000E+00
  1.00800000E+00  1.60000000E+01  1.00800000E+00  1.00800000E+00  1.60000000E+01
  1.00800000E+00  1.00800000E+00  1.60000000E+01  1.00800000E+00  1.00800000E+00
  1.60000000E+01  1.00800000E+00  1.00800000E+00  1.60000000E+01  1.00800000E+00
  1.00800000E+00  1.60000000E+01  1.00800000E+00  1.00800000E+00  1.60000000E+01
  1.00800000E+00  1.00800000E+00  1.60000000E+01  1.00800000E+00  1.00800000E+00
  1.60000000E+01  1.00800000E+00  1.00800000E+00  1.60000000E+01  1.00800000E+00
  1.00800000E+00  1.60000000E+01  1.00800000E+00  1.00800000E+00  1.60000000E+01
  1.00800000E+00  1.00800000E+00  1.60000000E+01  1.00800000E+00  1.00800000E+00
  1.60000000E+01  1.00800000E+00  1.00800000E+00  1.60000000E+01  1.00800000E+00
  1.00800000E+00  1.60000000E+01  1.00800000E+00  1.00800000E+00  1.60000000E+01
  1.00800000E+00  1.00800000E+00  1.60000000E+01  1.00800000E+00  1.00800000E+00
  1.60000000E+01  1.00800000E+00  1.00800000E+00  1.60000000E+01  1.00800000E+00
  1.00800000E+00  1.60000000E+01  1.00800000E+00  1.00800000E+00  1.60000000E+01
  1.00800000E+00  1.00800000E+00  1.60000000E+01  1.00800000E+00  1.00800000E+00
  1.60000000E+01  1.00800000E+00  1.00800000E+00  1.60000000E+01  1.00800000E+00
  1.00800000E+00  1.60000000E+01  1.00800000E+00  1.00800000E+00  1.60000000E+01
  1.00800000E+00  1.00800000E+00  1.60000000E+01  1.00800000E+00  1.00800000E+00
  1.60000000E+01  1.00800000E+00  1.00800000E+00  1.60000000E+01  1.00800000E+00
  1.00800000E+00  1.60000000E+01  1.00800000E+00  1.00800000E+00  1.60000000E+01
  1.00800000E+00  1.00800000E+00  1.60000000E+01  1.00800000E+00  1.00800000E+00
  1.60000000E+01  1.00800000E+00  1.00800000E+00  1.60000000E+01  1.00800000E+00
  1.00800000E+00  1.60000000E+01  1.00800000E+00  1.00800000E+00  1.60000000E+01
  1.00800000E+00  1.00800000E+00  1.60000000E+01  1.00800000E+00  1.00800000E+00
  1.60000000E+01  1.00800000E+00  1.00800000E+00  1.60000000E+01  1.00800000E+00
  1.00800000E+00  1.60000000E+01  1.00800000E+00  1.00800000E+00  1.60000000E+01
  1.00800000E+00  1.00800000E+00  1.60000000E+01  1.00800000E+00  1.00800000E+00
  1.60000000E+01  1.00800000E+00  1.00800000E+00  1.60000000E+01  1.00800000E+00
  1.00800000E+00  1.60000000E+01  1.00800000E+00  1.00800000E+00  1.60000000E+01
  1.00800000E+00  1.00800000E+00  1.60000000E+01  1.00800000E+00  1.00800000E+00
  1.60000000E+01  1.00800000E+00  1.00800000E+00  1.60000000E+01  1.00800000E+00
  1.00800000E+00  1.60000000E+01  1.00800000E+00  1.00800000E+00  1.60000000E+01
  1.00800000E+00  1.00800000E+00  1.60000000E+01  1.00800000E+00  1.00800000E+00
  1.60000000E+01  1.00800000E+00  1.00800000E+00  1.60000000E+01  1.00800000E+00
  1.00800000E+00  1.60000000E+01  1.00800000E+00  1.00800000E+00  1.60000000E+01
  1.00800000E+00  1.00800000E+00  1.60000000E+01  1.00800000E+00  1.00800000E+00
  1.60000000E+01  1.00800000E+00  1.00800000E+00  1.60000000E+01  1.00800000E+00
  1.00800000E+00  1.60000000E+01  1.00800000E+00  1.00800000E+00  1.60000000E+01
  1.00800000E+00  1.00800000E+00  1.60000000E+01  1.00800000E+00  1.00800000E+00
  1.60000000E+01  1.00800000E+00  1.00800000E+00  1.60000000E+01  1.00800000E+00
  1.00800000E+00  1.60000000E+01  1.00800000E+00  1.00800000E+00  1.60000000E+01
  1.00800000E+00  1.00800000E+00  1.60000000E+01  1.00800000E+00  1.00800000E+00
  1.60000000E+01  1.00800000E+00  1.00800000E+00  1.60000000E+01  1.00800000E+00
  1.00800000E+00  1.60000000E+01  1.00800000E+00  1.00800000E+00  1.60000000E+01
  1.00800000E+00  1.00800000E+00  1.60000000E+01  1.00800000E+00  1.00800000E+00
  1.60000000E+01  1.00800000E+00  1.00800000E+00  1.60000000E+01  1.00800000E+00
  1.00800000E+00  1.60000000E+01  1.00800000E+00  1.00800000E+00  1.60000000E+01
  1.00800000E+00  1.00800000E+00  1.60000000E+01  1.00800000E+00  1.00800000E+00
  1.60000000E+01  1.00800000E+00  1.00800000E+00  1.60000000E+01  1.00800000E+00
  1.00800000E+00  1.60000000E+01  1.00800000E+00  1.00800000E+00  1.60000000E+01
  1.00800000E+00  1.00800000E+00  1.60000000E+01  1.00800000E+00  1.00800000E+00
  1.60000000E+01  1.00800000E+00  1.00800000E+00  1.60000000E+01  1.00800000E+00
  1.00800000E+00  1.60000000E+01  1.00800000E+00  1.00800000E+00  1.60000000E+01
  1.00800000E+00  1.00800000E+00  1.60000000E+01  1.00800000E+00  1.00800000E+00
  1.60000000E+01  1.00800000E+00  1.00800000E+00  1.60000000E+01  1.00800000E+00
  1.00800000E+00  1.60000000E+01  1.00800000E+00  1.00800000E+00  1.60000000E+01
  1.00800000E+00  1.00800000E+00  1.60000000E+01  1.00800000E+00  1.00800000E+00
  1.60000000E+01  1.00800000E+00  1.00800000E+00  1.60000000E+01  1.00800000E+00
  1.00800000E+00  1.60000000E+01  1.00800000E+00  1.00800000E+00  1.60000000E+01
  1.00800000E+00  1.00800000E+00  1.60000000E+01  1.00800000E+00  1.00800000E+00
  1.60000000E+01  1.00800000E+00  1.00800000E+00  1.60000000E+01  1.00800000E+00
  1.00800000E+00  1.60000000E+01  1.00800000E+00  1.00800000E+00  1.60000000E+01
  1.00800000E+00  1.00800000E+00  1.60000000E+01  1.00800000E+00  1.00800000E+00
  1.60000000E+01  1.00800000E+00  1.00800000E+00  1.60000000E+01  1.00800000E+00
  1.00800000E+00  1.60000000E+01  1.00800000E+00  1.00800000E+00  1.60000000E+01
  1.00800000E+00  1.00800000E+00  1.60000000E+01  1.00800000E+00  1.00800000E+00
  1.60000000E+01  1.00800000E+00  1.00800000E+00  1.60000000E+01  1.00800000E+00
  1.00800000E+00  1.60000000E+01  1.00800000E+00  1.00800000E+00  1.60000000E+01
  1.00800000E+00  1.00800000E+00  1.60000000E+01  1.00800000E+00  1.00800000E+00
  1.60000000E+01  1.00800000E+00  1.00800000E+00  1.60000000E+01  1.00800000E+00
  1.00800000E+00  1.60000000E+01  1.00800000E+00  1.00800000E+00  1.60000000E+01
  1.00800000E+00  1.00800000E+00  1.60000000E+01  1.00800000E+00  1.00800000E+00
  1.60000000E+01  1.00800000E+00  1.00800000E+00  1.60000000E+01  1.00800000E+00
  1.00800000E+00  1.60000000E+01  1.00800000E+00  1.00800000E+00  1.60000000E+01
  1.00800000E+00  1.00800000E+00  1.60000000E+01  1.00800000E+00  1.00800000E+00
  1.60000000E+01  1.00800000E+00  1.00800000E+00  1.60000000E+01  1.00800000E+00
  1.00800000E+00  1.60000000E+01  1.00800000E+00  1.00800000E+00  1.60000000E+01
  1.00800000E+00  1.00800000E+00  1.60000000E+01  1.00800000E+00  1.00800000E+00
  1.60000000E+01  1.00800000E+00  1.00800000E+00  1.60000000E+01  1.00800000E+00
  1.00800000E+00  1.60000000E+01  1.00800000E+00  1.00800000E+00  1.60000000E+01
  1.00800000E+00  1.00800000E+00  1.60000000E+01  1.00800000E+00  1.00800000E+00
  1.60000000E+01  1.00800000E+00  1.00800000E+00  1.60000000E+01  1.00800000E+00
  1.00800000E+00  1.60000000E+01  1.00800000E+00  1.00800000E+00  1.60000000E+01
  1.00800000E+00  1.00800000E+00  1.60000000E+01  1.00800000E+00  1.00800000E+00
  1.60000000E+01  1.00800000E+00  1.00800000E+00  1.60000000E+01  1.00800000E+00
  1.00800000E+00  1.60000000E+01  1.00800000E+00  1.00800000E+00  1.60000000E+01
  1.00800000E+00  1.00800000E+00  1.60000000E+01  1.00800000E+00  1.00800000E+00
  1.60000000E+01  1.00800000E+00  1.00800000E+00  1.60000000E+01  1.00800000E+00
  1.00800000E+00  1.60000000E+01  1.00800000E+00  1.00800000E+00  1.60000000E+01
  1.00800000E+00  1.00800000E+00  1.60000000E+01  1.00800000E+00  1.00800000E+00
  1.60000000E+01  1.00800000E+00  1.00800000E+00  1.60000000E+01  1.00800000E+00
  1.00800000E+00  1.60000000E+01  1.00800000E+00  1.00800000E+00  1.60000000E+01
  1.00800000E+00  1.00800000E+00  1.60000000E+01  1.00800000E+00  1.00800000E+00
  1.60000000E+01  1.00800000E+00  1.00800000E+00  1.60000000E+01  1.00800000E+00
  1.00800000E+00  1.60000000E+01  1.00800000E+00  1.00800000E+00  1.60000000E+01
  1.00800000E+00  1.00800000E+00  1.60000000E+01  1.00800000E+00  1.00800000E+00
  1.60000000E+01  1.00800000E+00  1.00800000E+00  1.60000000E+01  1.00800000E+00
  1.00800000E+00  1.60000000E+01  1.00800000E+00  1.00800000E+00  1.60000000E+01
  1.00800000E+00  1.00800000E+00  1.60000000E+01  1.00800000E+00  1.00800000E+00
  1.60000000E+01  1.00800000E+00  1.00800000E+00  1.60000000E+01  1.00800000E+00
  1.00800000E+00  1.60000000E+01  1.00800000E+00  1.00800000E+00  1.60000000E+01
  1.00800000E+00  1.00800000E+00  1.60000000E+01  1.00800000E+00  1.00800000E+00
  1.60000000E+01  1.00800000E+00  1.00800000E+00  1.60000000E+01  1.00800000E+00
  1.00800000E+00  1.60000000E+01  1.00800000E+00  1.00800000E+00  1.60000000E+01
  1.00800000E+00  1.00800000E+00  1.60000000E+01  1.00800000E+00  1.00800000E+00
  1.60000000E+01  1.00800000E+00  1.00800000E+00  1.60000000E+01  1.00800000E+00
  1.00800000E+00  1.60000000E+01  1.00800000E+00  1.00800000E+00  1.60000000E+01
  1.00800000E+00  1.00800000E+00  1.60000000E+01  1.00800000E+00  1.00800000E+00
  1.60000000E+01  1.00800000E+00  1.00800000E+00  1.60000000E+01  1.00800000E+00
  1.00800000E+00  1.60000000E+01  1.00800000E+00  1.00800000E+00  1.60000000E+01
  1.00800000E+00  1.00800000E+00  1.60000000E+01  1.00800000E+00  1.00800000E+00
  1.60000000E+01  1.00800000E+00  1.00800000E+00  1.60000000E+01  1.00800000E+00
  1.00800000E+00  1.60000000E+01  1.00800000E+00  1.00800000E+00  1.60000000E+01
  1.00800000E+00  1.00800000E+00  1.60000000E+01  1.00800000E+00  1.00800000E+00
  1.60000000E+01  1.00800000E+00  1.00800000E+00  1.60000000E+01  1.00800000E+00
  1.00800000E+00  1.60000000E+01  1.00800000E+00  1.00800000E+00  1.60000000E+01
  1.00800000E+00  1.00800000E+00  1.60000000E+01  1.00800000E+00  1.00800000E+00
  1.60000000E+01  1.00800000E+00  1.00800000E+00  1.60000000E+01  1.00800000E+00
  1.00800000E+00  1.60000000E+01  1.00800000E+00  1.00800000E+00  1.60000000E+01
  1.00800000E+00  1.00800000E+00  1.60000000E+01  1.00800000E+00  1.00800000E+00
  1.60000000E+01  1.00800000E+00  1.00800000E+00  1.60000000E+01  1.00800000E+00
  1.00800000E+00  1.60000000E+01  1.00800000E+00  1.00800000E+00  1.60000000E+01
  1.00800000E+00  1.00800000E+00  1.60000000E+01  1.00800000E+00  1.00800000E+00
  1.60000000E+01  1.00800000E+00  1.00800000E+00  1.60000000E+01  1.00800000E+00
  1.00800000E+00  1.60000000E+01  1.00800000E+00  1.00800000E+00  1.60000000E+01
  1.00800000E+00  1.00800000E+00  1.60000000E+01  1.00800000E+00  1.00800000E+00
  1.60000000E+01  1.00800000E+00  1.00800000E+00  1.60000000E+01  1.00800000E+00
  1.00800000E+00  1.60000000E+01  1.00800000E+00  1.00800000E+00  1.60000000E+01
  1.00800000E+00  1.00800000E+00  1.60000000E+01  1.00800000E+00  1.00800000E+00
  1.60000000E+01  1.00800000E+00  1.00800000E+00  1.60000000E+01  1.00800000E+00
  1.00800000E+00  1.60000000E+01  1.00800000E+00  1.00800000E+00  1.60000000E+01
  1.00800000E+00  1.00800000E+00  1.60000000E+01  1.00800000E+00  1.00800000E+00
  1.60000000E+01  1.00800000E+00  1.00800000E+00  1.60000000E+01  1.00800000E+00
  1.00800000E+00  1.60000000E+01  1.00800000E+00  1.00800000E+00  1.60000000E+01
  1.00800000E+00  1.00800000E+00  1.60000000E+01  1.00800000E+00  1.00800000E+00
  1.60000000E+01  1.00800000E+00  1.00800000E+00  1.60000000E+01  1.00800000E+00
  1.00800000E+00  1.60000000E+01  1.00800000E+00  1.00800000E+00  1.60000000E+01
  1.00800000E+00  1.00800000E+00  1.60000000E+01  1.00800000E+00  1.00800000E+00
  1.60000000E+01  1.00800000E+00  1.00800000E+00  1.60000000E+01  1.00800000E+00
  1.00800000E+00  1.60000000E+01  1.00800000E+00  1.00800000E+00  1.60000000E+01
  1.00800000E+00  1.00800000E+00  1.60000000E+01  1.00800000E+00  1.00800000E+00
  1.60000000E+01  1.00800000E+00  1.00800000E+00  1.60000000E+01  1.00800000E+00
  1.00800000E+00  1.60000000E+01  1.00800000E+00  1.00800000E+00  1.60000000E+01
  1.00800000E+00  1.00800000E+00  1.60000000E+01  1.00800000E+00  1.00800000E+00
  1.60000000E+01  1.00800000E+00  1.00800000E+00  1.60000000E+01  1.00800000E+00
  1.00800000E+00  1.60000000E+01  1.00800000E+00  1.00800000E+00  1.60000000E+01
  1.00800000E+00  1.00800000E+00  1.60000000E+01  1.00800000E+00  1.00800000E+00
  1.60000000E+01  1.00800000E+00  1.00800000E+00  1.60000000E+01  1.00800000E+00
  1.00800000E+00  1.60000000E+01  1.00800000E+00  1.00800000E+00  1.60000000E+01
  1.00800000E+00  1.00800000E+00  1.60000000E+01  1.00800000E+00  1.00800000E+00
  1.60000000E+01  1.00800000E+00  1.00800000E+00  1.60000000E+01  1.00800000E+00
  1.00800000E+00  1.60000000E+01  1.00800000E+00  1.00800000E+00  1.60000000E+01
  1.00800000E+00  1.00800000E+00  1.60000000E+01  1.00800000E+00  1.00800000E+00
  1.60000000E+01  1.00800000E+00  1.00800000E+00  1.60000000E+01  1.00800000E+00
  1.00800000E+00  1.60000000E+01  1.00800000E+00  1.00800000E+00  1.60000000E+01
  1.00800000E+00  1.00800000E+00  1.60000000E+01  1.00800000E+00  1.00800000E+00
  1.60000000E+01  1.00800000E+00  1.00800000E+00  1.60000000E+01  1.00800000E+00
  1.00800000E+00  1.60000000E+01  1.00800000E+00  1.00800000E+00  1.60000000E+01
  1.00800000E+00  1.00800000E+00  1.60000000E+01  1.00800000E+00  1.00800000E+00
  1.60000000E+01  1.00800000E+00  1.00800000E+00  1.60000000E+01  1.00800000E+00
  1.00800000E+00  1.60000000E+01  1.00800000E+00  1.00800000E+00  1.60000000E+01
  1.00800000E+00  1.00800000E+00  1.60000000E+01  1.00800000E+00  1.00800000E+00
  1.60000000E+01  1.00800000E+00  1.00800000E+00  1.60000000E+01  1.00800000E+00
  1.00800000E+00  1.60000000E+01  1.00800000E+00  1.00800000E+00  1.60000000E+01
  1.00800000E+00  1.00800000E+00  1.60000000E+01  1.00800000E+00  1.00800000E+00
  1.60000000E+01  1.00800000E+00  1.00800000E+00  1.60000000E+01  1.00800000E+00
  1.00800000E+00  1.60000000E+01  1.00800000E+00  1.00800000E+00  1.60000000E+01
  1.00800000E+00  1.00800000E+00  1.60000000E+01  1.00800000E+00  1.00800000E+00
  1.60000000E+01  1.00800000E+00  1.00800000E+00  1.60000000E+01  1.00800000E+00
  1.00800000E+00  1.60000000E+01  1.00800000E+00  1.00800000E+00  1.60000000E+01
  1.00800000E+00  1.00800000E+00  1.60000000E+01  1.00800000E+00  1.00800000E+00
  1.60000000E+01  1.00800000E+00  1.00800000E+00  1.60000000E+01  1.00800000E+00
  1.00800000E+00  1.60000000E+01  1.00800000E+00  1.00800000E+00  1.60000000E+01
  1.00800000E+00  1.00800000E+00  1.60000000E+01  1.00800000E+00  1.00800000E+00
  1.60000000E+01  1.00800000E+00  1.00800000E+00  1.60000000E+01  1.00800000E+00
  1.00800000E+00  1.60000000E+01  1.00800000E+00  1.00800000E+00  1.60000000E+01
  1.00800000E+00  1.00800000E+00  1.60000000E+01  1.00800000E+00  1.00800000E+00
  1.60000000E+01  1.00800000E+00  1.00800000E+00  1.60000000E+01  1.00800000E+00
  1.00800000E+00  1.60000000E+01  1.00800000E+00  1.00800000E+00  1.60000000E+01
  1.00800000E+00  1.00800000E+00  1.60000000E+01  1.00800000E+00  1.00800000E+00
  1.60000000E+01  1.00800000E+00  1.00800000E+00  1.60000000E+01  1.00800000E+00
  1.00800000E+00  1.60000000E+01  1.00800000E+00  1.00800000E+00  1.60000000E+01
  1.00800000E+00  1.00800000E+00  1.60000000E+01  1.00800000E+00  1.00800000E+00
  1.60000000E+01  1.00800000E+00  1.00800000E+00  1.60000000E+01  1.00800000E+00
  1.00800000E+00  1.60000000E+01  1.00800000E+00  1.00800000E+00  1.60000000E+01
  1.00800000E+00  1.00800000E+00  1.60000000E+01  1.00800000E+00  1.00800000E+00
  1.60000000E+01  1.00800000E+00  1.00800000E+00  1.60000000E+01  1.00800000E+00
  1.00800000E+00  1.60000000E+01  1.00800000E+00  1.00800000E+00  1.60000000E+01
  1.00800000E+00  1.00800000E+00  1.60000000E+01  1.00800000E+00  1.00800000E+00
  1.60000000E+01  1.00800000E+00  1.00800000E+00  1.60000000E+01  1.00800000E+00
  1.00800000E+00  1.60000000E+01  1.00800000E+00  1.00800000E+00  1.60000000E+01
  1.00800000E+00  1.00800000E+00  1.60000000E+01  1.00800000E+00  1.00800000E+00
  1.60000000E+01  1.00800000E+00  1.00800000E+00  1.60000000E+01  1.00800000E+00
  1.00800000E+00  1.60000000E+01  1.00800000E+00  1.00800000E+00  1.60000000E+01
  1.00800000E+00  1.00800000E+00  1.60000000E+01  1.00800000E+00  1.00800000E+00
  1.60000000E+01  1.00800000E+00  1.00800000E+00  1.60000000E+01  1.00800000E+00
  1.00800000E+00  1.60000000E+01  1.00800000E+00  1.00800000E+00  1.60000000E+01
  1.00800000E+00  1.00800000E+00  1.60000000E+01  1.00800000E+00  1.00800000E+00
  1.60000000E+01  1.00800000E+00  1.00800000E+00  1.60000000E+01  1.00800000E+00
  1.00800000E+00  1.60000000E+01  1.00800000E+00  1.00800000E+00  1.60000000E+01
  1.00800000E+00  1.00800000E+00  1.60000000E+01  1.00800000E+00  1.00800000E+00
  1.60000000E+01  1.00800000E+00  1.00800000E+00  1.60000000E+01  1.00800000E+00
  1.00800000E+00  1.60000000E+01  1.00800000E+00  1.00800000E+00  1.60000000E+01
  1.00800000E+00  1.00800000E+00  1.60000000E+01  1.00800000E+00  1.00800000E+00
  1.60000000E+01  1.00800000E+00  1.00800000E+00  1.60000000E+01  1.00800000E+00
  1.00800000E+00  1.60000000E+01  1.00800000E+00  1.00800000E+00  1.60000000E+01
  1.00800000E+00  1.00800000E+00  1.60000000E+01  1.00800000E+00  1.00800000E+00
  1.60000000E+01  1.00800000E+00  1.00800000E+00  1.60000000E+01  1.00800000E+00
  1.00800000E+00  1.60000000E+01  1.00800000E+00  1.00800000E+00  1.60000000E+01
  1.00800000E+00  1.00800000E+00  1.60000000E+01  1.00800000E+00  1.00800000E+00
  1.60000000E+01  1.00800000E+00  1.00800000E+00  1.60000000E+01  1.00800000E+00
  1.00800000E+00  1.60000000E+01  1.00800000E+00  1.00800000E+00  1.60000000E+01
  1.00800000E+00  1.00800000E+00  1.60000000E+01  1.00800000E+00  1.00800000E+00
  1.60000000E+01  1.00800000E+00  1.00800000E+00  1.60000000E+01  1.00800000E+00
  1.00800000E+00  1.60000000E+01  1.00800000E+00  1.00800000E+00  1.60000000E+01
  1.00800000E+00  1.00800000E+00  1.60000000E+01  1.00800000E+00  1.00800000E+00
  1.60000000E+01  1.00800000E+00  1.00800000E+00  1.60000000E+01  1.00800000E+00
  1.00800000E+00  1.60000000E+01  1.00800000E+00  1.00800000E+00  1.60000000E+01
  1.00800000E+00  1.00800000E+00  1.60000000E+01  1.00800000E+00  1.00800000E+00
  1.60000000E+01  1.00800000E+00  1.00800000E+00  1.60000000E+01  1.00800000E+00
  1.00800000E+00  1.60000000E+01  1.00800000E+00  1.00800000E+00  1.60000000E+01
  1.00800000E+00  1.00800000E+00  1.60000000E+01  1.00800000E+00  1.00800000E+00
  1.60000000E+01  1.00800000E+00  1.00800000E+00  1.60000000E+01  1.00800000E+00
  1.00800000E+00  1.60000000E+01  1.00800000E+00  1.00800000E+00  1.60000000E+01
  1.00800000E+00  1.00800000E+00  1.60000000E+01  1.00800000E+00  1.00800000E+00
  1.60000000E+01  1.00800000E+00  1.00800000E+00  1.60000000E+01  1.00800000E+00
  1.00800000E+00  1.60000000E+01  1.00800000E+00  1.00800000E+00  1.60000000E+01
  1.00800000E+00  1.00800000E+00  1.60000000E+01  1.00800000E+00  1.00800000E+00
  1.60000000E+01  1.00800000E+00  1.00800000E+00  1.60000000E+01  1.00800000E+00
  1.00800000E+00  1.60000000E+01  1.00800000E+00  1.00800000E+00  1.60000000E+01
  1.00800000E+00  1.00800000E+00  1.60000000E+01  1.00800000E+00  1.00800000E+00
  1.60000000E+01  1.00800000E+00  1.00800000E+00  1.60000000E+01  1.00800000E+00
  1.00800000E+00  1.60000000E+01  1.00800000E+00  1.00800000E+00  1.60000000E+01
  1.00800000E+00  1.00800000E+00  1.60000000E+01  1.00800000E+00  1.00800000E+00
  1.60000000E+01  1.00800000E+00  1.00800000E+00  1.60000000E+01  1.00800000E+00
  1.00800000E+00  1.60000000E+01  1.00800000E+00  1.00800000E+00  1.60000000E+01
  1.00800000E+00  1.00800000E+00  1.60000000E+01  1.00800000E+00  1.00800000E+00
  1.60000000E+01  1.00800000E+00  1.00800000E+00  1.60000000E+01  1.00800000E+00
  1.00800000E+00  1.60000000E+01  1.00800000E+00  1.00800000E+00  1.60000000E+01
  1.00800000E+00  1.00800000E+00  1.60000000E+01  1.00800000E+00  1.00800000E+00
  1.60000000E+01  1.00800000E+00  1.00800000E+00  1.60000000E+01  1.00800000E+00
  1.00800000E+00  1.60000000E+01  1.00800000E+00  1.00800000E+00  1.60000000E+01
  1.00800000E+00  1.00800000E+00  1.60000000E+01  1.00800000E+00  1.00800000E+00
  1.60000000E+01  1.00800000E+00  1.00800000E+00  1.60000000E+01  1.00800000E+00
  1.00800000E+00  1.60000000E+01  1.00800000E+00  1.00800000E+00  1.60000000E+01
  1.00800000E+00  1.00800000E+00  1.60000000E+01  1.00800000E+00  1.00800000E+00
  1.60000000E+01  1.00800000E+00  1.00800000E+00  1.60000000E+01  1.00800000E+00
  1.00800000E+00  1.60000000E+01  1.00800000E+00  1.00800000E+00  1.60000000E+01
  1.00800000E+00  1.00800000E+00  1.60000000E+01  1.00800000E+00  1.00800000E+00
  1.60000000E+01  1.00800000E+00  1.00800000E+00  1.60000000E+01  1.00800000E+00
  1.00800000E+00  1.60000000E+01  1.00800000E+00  1.00800000E+00  1.60000000E+01
  1.00800000E+00  1.00800000E+00  1.60000000E+01  1.00800000E+00  1.00800000E+00
  1.60000000E+01  1.00800000E+00  1.00800000E+00  1.60000000E+01  1.00800000E+00
  1.00800000E+00  1.60000000E+01  1.00800000E+00  1.00800000E+00  1.60000000E+01
  1.00800000E+00  1.00800000E+00  1.60000000E+01  1.00800000E+00  1.00800000E+00
  1.60000000E+01  1.00800000E+00  1.00800000E+00  1.60000000E+01  1.00800000E+00
  1.00800000E+00  1.60000000E+01  1.00800000E+00  1.00800000E+00  1.60000000E+01
  1.00800000E+00  1.00800000E+00  1.60000000E+01  1.00800000E+00  1.00800000E+00
  1.60000000E+01  1.00800000E+00  1.00800000E+00  1.60000000E+01  1.00800000E+00
  1.00800000E+00  1.60000000E+01  1.00800000E+00  1.00800000E+00  1.60000000E+01
  1.00800000E+00  1.00800000E+00  1.60000000E+01  1.00800000E+00  1.00800000E+00
  1.60000000E+01  1.00800000E+00  1.00800000E+00  1.60000000E+01  1.00800000E+00
  1.00800000E+00  1.60000000E+01  1.00800000E+00  1.00800000E+00  1.60000000E+01
  1.00800000E+00  1.00800000E+00  1.60000000E+01  1.00800000E+00  1.00800000E+00
  1.60000000E+01  1.00800000E+00  1.00800000E+00  1.60000000E+01  1.00800000E+00
  1.00800000E+00  1.60000000E+01  1.00800000E+00  1.00800000E+00  1.60000000E+01
  1.00800000E+00  1.00800000E+00  1.60000000E+01  1.00800000E+00  1.00800000E+00
  1.60000000E+01  1.00800000E+00  1.00800000E+00  1.60000000E+01  1.00800000E+00
  1.00800000E+00  1.60000000E+01  1.00800000E+00  1.00800000E+00  1.60000000E+01
  1.00800000E+00  1.00800000E+00  1.60000000E+01  1.00800000E+00  1.00800000E+00
  1.60000000E+01  1.00800000E+00  1.00800000E+00  1.60000000E+01  1.00800000E+00
  1.00800000E+00  1.60000000E+01  1.00800000E+00  1.00800000E+00  1.60000000E+01
  1.00800000E+00  1.00800000E+00  1.60000000E+01  1.00800000E+00  1.00800000E+00
  1.60000000E+01  1.00800000E+00  1.00800000E+00  1.60000000E+01  1.00800000E+00
  1.00800000E+00  1.60000000E+01  1.00800000E+00  1.00800000E+00  1.60000000E+01
  1.00800000E+00  1.00800000E+00  1.60000000E+01  1.00800000E+00  1.00800000E+00
  1.60000000E+01  1.00800000E+00  1.00800000E+00  1.60000000E+01  1.00800000E+00
  1.00800000E+00  1.60000000E+01  1.00800000E+00  1.00800000E+00  1.60000000E+01
  1.00800000E+00  1.00800000E+00  1.60000000E+01  1.00800000E+00  1.00800000E+00
  1.60000000E+01  1.00800000E+00  1.00800000E+00  1.60000000E+01  1.00800000E+00
  1.00800000E+00  1.60000000E+01  1.00800000E+00  1.00800000E+00  1.60000000E+01
  1.00800000E+00  1.00800000E+00  1.60000000E+01  1.00800000E+00  1.00800000E+00
  1.60000000E+01  1.00800000E+00  1.00800000E+00  1.60000000E+01  1.00800000E+00
  1.00800000E+00  1.60000000E+01  1.00800000E+00  1.00800000E+00  1.60000000E+01
  1.00800000E+00  1.00800000E+00  1.60000000E+01  1.00800000E+00  1.00800000E+00
  1.60000000E+01  1.00800000E+00  1.00800000E+00  1.60000000E+01  1.00800000E+00
  1.00800000E+00  1.60000000E+01  1.00800000E+00  1.00800000E+00  1.60000000E+01
  1.00800000E+00  1.00800000E+00  1.60000000E+01  1.00800000E+00  1.00800000E+00
  1.60000000E+01  1.00800000E+00  1.00800000E+00  1.60000000E+01  1.00800000E+00
  1.00800000E+00  1.60000000E+01  1.00800000E+00  1.00800000E+00  1.60000000E+01
  1.00800000E+00  1.00800000E+00  1.60000000E+01  1.00800000E+00  1.00800000E+00
  1.60000000E+01  1.00800000E+00  1.00800000E+00  1.60000000E+01  1.00800000E+00
  1.00800000E+00  1.60000000E+01  1.00800000E+00  1.00800000E+00  1.60000000E+01
  1.00800000E+00  1.00800000E+00  1.60000000E+01  1.00800000E+00  1.00800000E+00
  1.60000000E+01  1.00800000E+00  1.00800000E+00  1.60000000E+01  1.00800000E+00
  1.00800000E+00  1.60000000E+01  1.00800000E+00  1.00800000E+00  1.60000000E+01
  1.00800000E+00  1.00800000E+00  1.60000000E+01  1.00800000E+00  1.00800000E+00
  1.60000000E+01  1.00800000E+00  1.00800000E+00  1.60000000E+01  1.00800000E+00
  1.00800000E+00  1.60000000E+01  1.00800000E+00  1.00800000E+00  1.60000000E+01
  1.00800000E+00  1.00800000E+00  1.60000000E+01  1.00800000E+00  1.00800000E+00
  1.60000000E+01  1.00800000E+00  1.00800000E+00  1.60000000E+01  1.00800000E+00
  1.00800000E+00  1.60000000E+01  1.00800000E+00  1.00800000E+00  1.60000000E+01
  1.00800000E+00  1.00800000E+00  1.60000000E+01  1.00800000E+00  1.00800000E+00
  1.60000000E+01  1.00800000E+00  1.00800000E+00  1.60000000E+01  1.00800000E+00
  1.00800000E+00  1.60000000E+01  1.00800000E+00  1.00800000E+00  1.60000000E+01
  1.00800000E+00  1.00800000E+00  1.60000000E+01  1.00800000E+00  1.00800000E+00
  1.60000000E+01  1.00800000E+00  1.00800000E+00  1.60000000E+01  1.00800000E+00
  1.00800000E+00  1.60000000E+01  1.00800000E+00  1.00800000E+00  1.60000000E+01
  1.00800000E+00  1.00800000E+00  1.60000000E+01  1.00800000E+00  1.00800000E+00
  1.60000000E+01  1.00800000E+00  1.00800000E+00  1.60000000E+01  1.00800000E+00
  1.00800000E+00  1.60000000E+01  1.00800000E+00  1.00800000E+00  1.60000000E+01
  1.00800000E+00  1.00800000E+00  1.60000000E+01  1.00800000E+00  1.00800000E+00
  1.60000000E+01  1.00800000E+00  1.00800000E+00  1.60000000E+01  1.00800000E+00
  1.00800000E+00  1.60000000E+01  1.00800000E+00  1.00800000E+00  1.60000000E+01
  1.00800000E+00  1.00800000E+00  1.60000000E+01  1.00800000E+00  1.00800000E+00
  1.60000000E+01  1.00800000E+00  1.00800000E+00  1.60000000E+01  1.00800000E+00
  1.00800000E+00  1.60000000E+01  1.00800000E+00  1.00800000E+00  1.60000000E+01
  1.00800000E+00  1.00800000E+00  1.60000000E+01  1.00800000E+00  1.00800000E+00
  1.60000000E+01  1.00800000E+00  1.00800000E+00  1.60000000E+01  1.00800000E+00
  1.00800000E+00  1.60000000E+01  1.00800000E+00  1.00800000E+00  1.60000000E+01
  1.00800000E+00  1.00800000E+00  1.60000000E+01  1.00800000E+00  1.00800000E+00
  1.60000000E+01  1.00800000E+00  1.00800000E+00  1.60000000E+01  1.00800000E+00
  1.00800000E+00  1.60000000E+01  1.00800000E+00  1.00800000E+00  1.60000000E+01
  1.00800000E+00  1.00800000E+00  1.60000000E+01  1.00800000E+00  1.00800000E+00
  1.60000000E+01  1.00800000E+00  1.00800000E+00  1.60000000E+01  1.00800000E+00
  1.00800000E+00  1.60000000E+01  1.00800000E+00  1.00800000E+00  1.60000000E+01
  1.00800000E+00  1.00800000E+00  1.60000000E+01  1.00800000E+00  1.00800000E+00
  1.60000000E+01  1.00800000E+00  1.00800000E+00  1.60000000E+01  1.00800000E+00
  1.00800000E+00  1.60000000E+01  1.00800000E+00  1.00800000E+00  1.60000000E+01
  1.00800000E+00  1.00800000E+00  1.60000000E+01  1.00800000E+00  1.00800000E+00
  1.60000000E+01  1.00800000E+00  1.00800000E+00  1.60000000E+01  1.00800000E+00
  1.00800000E+00  1.60000000E+01  1.00800000E+00  1.00800000E+00  1.60000000E+01
  1.00800000E+00  1.00800000E+00  1.60000000E+01  1.00800000E+00  1.00800000E+00
  1.60000000E+01  1.00800000E+00  1.00800000E+00  1.60000000E+01  1.00800000E+00
  1.00800000E+00  1.60000000E+01  1.00800000E+00  1.00800000E+00  1.60000000E+01
  1.00800000E+00  1.00800000E+00  1.60000000E+01  1.00800000E+00  1.00800000E+00
  1.60000000E+01  1.00800000E+00  1.00800000E+00  1.60000000E+01  1.00800000E+00
  1.00800000E+00  1.60000000E+01  1.00800000E+00  1.00800000E+00  1.60000000E+01
  1.00800000E+00  1.00800000E+00  1.60000000E+01  1.00800000E+00  1.00800000E+00
  1.60000000E+01  1.00800000E+00  1.00800000E+00  1.60000000E+01  1.00800000E+00
  1.00800000E+00  1.60000000E+01  1.00800000E+00  1.00800000E+00  1.60000000E+01
  1.00800000E+00  1.00800000E+00  1.60000000E+01  1.00800000E+00  1.00800000E+00
  1.60000000E+01  1.00800000E+00  1.00800000E+00  1.60000000E+01  1.00800000E+00
  1.00800000E+00  1.60000000E+01  1.00800000E+00  1.00800000E+00  1.60000000E+01
  1.00800000E+00  1.00800000E+00  1.60000000E+01  1.00800000E+00  1.00800000E+00
  1.60000000E+01  1.00800000E+00  1.00800000E+00  1.60000000E+01  1.00800000E+00
  1.00800000E+00  1.60000000E+01  1.00800000E+00  1.00800000E+00  1.60000000E+01
  1.00800000E+00  1.00800000E+00  1.60000000E+01  1.00800000E+00  1.00800000E+00
  1.60000000E+01  1.00800000E+00  1.00800000E+00  1.60000000E+01  1.00800000E+00
  1.00800000E+00  1.60000000E+01  1.00800000E+00  1.00800000E+00  1.60000000E+01
  1.00800000E+00  1.00800000E+00  1.60000000E+01  1.00800000E+00  1.00800000E+00
  1.60000000E+01  1.00800000E+00  1.00800000E+00  1.60000000E+01  1.00800000E+00
  1.00800000E+00  1.60000000E+01  1.00800000E+00  1.00800000E+00  1.60000000E+01
  1.00800000E+00  1.00800000E+00  1.60000000E+01  1.00800000E+00  1.00800000E+00
  1.60000000E+01  1.00800000E+00  1.00800000E+00  1.60000000E+01  1.00800000E+00
  1.00800000E+00  1.60000000E+01  1.00800000E+00  1.00800000E+00  1.60000000E+01
  1.00800000E+00  1.00800000E+00  1.60000000E+01  1.00800000E+00  1.00800000E+00
  1.60000000E+01  1.00800000E+00  1.00800000E+00  1.60000000E+01  1.00800000E+00
  1.00800000E+00  1.60000000E+01  1.00800000E+00  1.00800000E+00  1.60000000E+01
  1.00800000E+00  1.00800000E+00  1.60000000E+01  1.00800000E+00  1.00800000E+00
  1.60000000E+01  1.00800000E+00  1.00800000E+00  1.60000000E+01  1.00800000E+00
  1.00800000E+00  1.60000000E+01  1.00800000E+00  1.00800000E+00  1.60000000E+01
  1.00800000E+00  1.00800000E+00  1.60000000E+01  1.00800000E+00  1.00800000E+00
  1.60000000E+01  1.00800000E+00  1.00800000E+00  1.60000000E+01  1.00800000E+00
  1.00800000E+00  1.60000000E+01  1.00800000E+00  1.00800000E+00  1.60000000E+01
  1.00800000E+00  1.00800000E+00  1.60000000E+01  1.00800000E+00  1.00800000E+00
  1.60000000E+01  1.00800000E+00  1.00800000E+00  1.60000000E+01  1.00800000E+00
  1.00800000E+00  1.60000000E+01  1.00800000E+00  1.00800000E+00  1.60000000E+01
  1.00800000E+00  1.00800000E+00  1.60000000E+01  1.00800000E+00  1.00800000E+00
  1.60000000E+01  1.00800000E+00  1.00800000E+00  1.60000000E+01  1.00800000E+00
  1.00800000E+00  1.60000000E+01  1.00800000E+00  1.00800000E+00  1.60000000E+01
  1.00800000E+00  1.00800000E+00  1.60000000E+01  1.00800000E+00  1.00800000E+00
  1.60000000E+01  1.00800000E+00  1.00800000E+00  1.60000000E+01  1.00800000E+00
  1.00800000E+00  1.60000000E+01  1.00800000E+00  1.00800000E+00  1.60000000E+01
  1.00800000E+00  1.00800000E+00  1.60000000E+01  1.00800000E+00  1.00800000E+00
  1.60000000E+01  1.00800000E+00  1.00800000E+00  1.60000000E+01  1.00800000E+00
  1.00800000E+00  1.60000000E+01  1.00800000E+00  1.00800000E+00  1.60000000E+01
  1.00800000E+00  1.00800000E+00  1.60000000E+01  1.00800000E+00  1.00800000E+00
  1.60000000E+01  1.00800000E+00  1.00800000E+00  1.60000000E+01  1.00800000E+00
  1.00800000E+00  1.60000000E+01  1.00800000E+00  1.00800000E+00  1.60000000E+01
  1.00800000E+00  1.00800000E+00  1.60000000E+01  1.00800000E+00  1.00800000E+00
  1.60000000E+01  1.00800000E+00  1.00800000E+00  1.60000000E+01  1.00800000E+00
  1.00800000E+00  1.60000000E+01  1.00800000E+00  1.00800000E+00  1.60000000E+01
  1.00800000E+00  1.00800000E+00  1.60000000E+01  1.00800000E+00  1.00800000E+00
  1.60000000E+01  1.00800000E+00  1.00800000E+00  1.60000000E+01  1.00800000E+00
  1.00800000E+00  1.60000000E+01  1.00800000E+00  1.00800000E+00  1.60000000E+01
  1.00800000E+00  1.00800000E+00  1.60000000E+01  1.00800000E+00  1.00800000E+00
  1.60000000E+01  1.00800000E+00  1.00800000E+00  1.60000000E+01  1.00800000E+00
  1.00800000E+00  1.60000000E+01  1.00800000E+00  1.00800000E+00  1.60000000E+01
  1.00800000E+00  1.00800000E+00  1.60000000E+01  1.00800000E+00  1.00800000E+00
  1.60000000E+01  1.00800000E+00  1.00800000E+00  1.60000000E+01  1.00800000E+00
  1.00800000E+00  1.60000000E+01  1.00800000E+00  1.00800000E+00  1.60000000E+01
  1.00800000E+00  1.00800000E+00  1.60000000E+01  1.00800000E+00  1.00800000E+00
  1.60000000E+01  1.00800000E+00  1.00800000E+00  1.60000000E+01  1.00800000E+00
  1.00800000E+00  1.60000000E+01  1.00800000E+00  1.00800000E+00  1.60000000E+01
  1.00800000E+00  1.00800000E+00  1.60000000E+01  1.00800000E+00  1.00800000E+00
  1.60000000E+01  1.00800000E+00  1.00800000E+00  1.60000000E+01  1.00800000E+00
  1.00800000E+00  1.60000000E+01  1.00800000E+00  1.00800000E+00  1.60000000E+01
  1.00800000E+00  1.00800000E+00  1.60000000E+01  1.00800000E+00  1.00800000E+00
  1.60000000E+01  1.00800000E+00  1.00800000E+00  1.60000000E+01  1.00800000E+00
  1.00800000E+00  1.60000000E+01  1.00800000E+00  1.00800000E+00  1.60000000E+01
  1.00800000E+00  1.00800000E+00  1.60000000E+01  1.00800000E+00  1.00800000E+00
  1.60000000E+01  1.00800000E+00  1.00800000E+00  1.60000000E+01  1.00800000E+00
  1.00800000E+00  1.60000000E+01  1.00800000E+00  1.00800000E+00  1.60000000E+01
  1.00800000E+00  1.00800000E+00  1.60000000E+01  1.00800000E+00  1.00800000E+00
  1.60000000E+01  1.00800000E+00  1.00800000E+00  1.60000000E+01  1.00800000E+00
  1.00800000E+00  1.60000000E+01  1.00800000E+00  1.00800000E+00  1.60000000E+01
  1.00800000E+00  1.00800000E+00  1.60000000E+01  1.00800000E+00  1.00800000E+00
  1.60000000E+01  1.00800000E+00  1.00800000E+00  1.60000000E+01  1.00800000E+00
  1.00800000E+00  1.60000000E+01  1.00800000E+00  1.00800000E+00  1.60000000E+01
  1.00800000E+00  1.00800000E+00  1.60000000E+01  1.00800000E+00  1.00800000E+00
  1.60000000E+01  1.00800000E+00  1.00800000E+00  1.60000000E+01  1.00800000E+00
  1.00800000E+00  1.60000000E+01  1.00800000E+00  1.00800000E+00  1.60000000E+01
  1.00800000E+00  1.00800000E+00  1.60000000E+01  1.00800000E+00  1.00800000E+00
  1.60000000E+01  1.00800000E+00  1.00800000E+00  1.60000000E+01  1.00800000E+00
  1.00800000E+00  1.60000000E+01  1.00800000E+00  1.00800000E+00  1.60000000E+01
  1.00800000E+00  1.00800000E+00  1.60000000E+01  1.00800000E+00  1.00800000E+00
  1.60000000E+01  1.00800000E+00  1.00800000E+00  1.60000000E+01  1.00800000E+00
  1.00800000E+00  1.60000000E+01  1.00800000E+00  1.00800000E+00  1.60000000E+01
  1.00800000E+00  1.00800000E+00  1.60000000E+01  1.00800000E+00  1.00800000E+00
  1.60000000E+01  1.00800000E+00  1.00800000E+00  1.60000000E+01  1.00800000E+00
  1.00800000E+00  1.60000000E+01  1.00800000E+00  1.00800000E+00  1.60000000E+01
  1.00800000E+00  1.00800000E+00  1.60000000E+01  1.00800000E+00  1.00800000E+00
  1.60000000E+01  1.00800000E+00  1.00800000E+00  1.60000000E+01  1.00800000E+00
  1.00800000E+00  1.60000000E+01  1.00800000E+00  1.00800000E+00  1.60000000E+01
  1.00800000E+00  1.00800000E+00  1.60000000E+01  1.00800000E+00  1.00800000E+00
  1.60000000E+01  1.00800000E+00  1.00800000E+00  1.60000000E+01  1.00800000E+00
  1.00800000E+00  1.60000000E+01  1.00800000E+00  1.00800000E+00  1.60000000E+01
  1.00800000E+00  1.00800000E+00  1.60000000E+01  1.00800000E+00  1.00800000E+00
  1.60000000E+01  1.00800000E+00  1.00800000E+00  1.60000000E+01  1.00800000E+00
  1.00800000E+00  1.60000000E+01  1.00800000E+00  1.00800000E+00  1.60000000E+01
  1.00800000E+00  1.00800000E+00  1.60000000E+01  1.00800000E+00  1.00800000E+00
  1.60000000E+01  1.00800000E+00  1.00800000E+00  1.60000000E+01  1.00800000E+00
  1.00800000E+00  1.60000000E+01  1.00800000E+00  1.00800000E+00  1.60000000E+01
  1.00800000E+00  1.00800000E+00  1.60000000E+01  1.00800000E+00  1.00800000E+00
  1.60000000E+01  1.00800000E+00  1.00800000E+00  1.60000000E+01  1.00800000E+00
  1.00800000E+00  1.60000000E+01  1.00800000E+00  1.00800000E+00  1.60000000E+01
  1.00800000E+00  1.00800000E+00  1.60000000E+01  1.00800000E+00  1.00800000E+00
  1.60000000E+01  1.00800000E+00  1.00800000E+00  1.60000000E+01  1.00800000E+00
  1.00800000E+00  1.60000000E+01  1.00800000E+00  1.00800000E+00  1.60000000E+01
  1.00800000E+00  1.00800000E+00  1.60000000E+01  1.00800000E+00  1.00800000E+00
  1.60000000E+01  1.00800000E+00  1.00800000E+00  1.60000000E+01  1.00800000E+00
  1.00800000E+00  1.60000000E+01  1.00800000E+00  1.00800000E+00  1.60000000E+01
  1.00800000E+00  1.00800000E+00  1.60000000E+01  1.00800000E+00  1.00800000E+00
  1.60000000E+01  1.00800000E+00  1.00800000E+00  1.60000000E+01  1.00800000E+00
  1.00800000E+00  1.60000000E+01  1.00800000E+00  1.00800000E+00  1.60000000E+01
  1.00800000E+00  1.00800000E+00  1.60000000E+01  1.00800000E+00  1.00800000E+00
  1.60000000E+01  1.00800000E+00  1.00800000E+00  1.60000000E+01  1.00800000E+00
  1.00800000E+00  1.60000000E+01  1.00800000E+00  1.00800000E+00  1.60000000E+01
  1.00800000E+00  1.00800000E+00  1.60000000E+01  1.00800000E+00  1.00800000E+00
  1.60000000E+01  1.00800000E+00  1.00800000E+00  1.60000000E+01  1.00800000E+00
  1.00800000E+00  1.60000000E+01  1.00800000E+00  1.00800000E+00  1.60000000E+01
  1.00800000E+00  1.00800000E+00  1.60000000E+01  1.00800000E+00  1.00800000E+00
  1.60000000E+01  1.00800000E+00  1.00800000E+00  1.60000000E+01  1.00800000E+00
  1.00800000E+00  1.60000000E+01  1.00800000E+00  1.00800000E+00  1.60000000E+01
  1.00800000E+00  1.00800000E+00  1.60000000E+01  1.00800000E+00  1.00800000E+00
  1.60000000E+01  1.00800000E+00  1.00800000E+00  1.60000000E+01  1.00800000E+00
  1.00800000E+00  1.60000000E+01  1.00800000E+00  1.00800000E+00  1.60000000E+01
  1.00800000E+00  1.00800000E+00  1.60000000E+01  1.00800000E+00  1.00800000E+00
  1.60000000E+01  1.00800000E+00  1.00800000E+00  1.60000000E+01  1.00800000E+00
  1.00800000E+00  1.60000000E+01  1.00800000E+00  1.00800000E+00  1.60000000E+01
  1.00800000E+00  1.00800000E+00  1.60000000E+01  1.00800000E+00  1.00800000E+00
  1.60000000E+01  1.00800000E+00  1.00800000E+00  1.60000000E+01  1.00800000E+00
  1.00800000E+00  1.60000000E+01  1.00800000E+00  1.00800000E+00  1.60000000E+01
  1.00800000E+00  1.00800000E+00  1.60000000E+01  1.00800000E+00  1.00800000E+00
  1.60000000E+01  1.00800000E+00  1.00800000E+00  1.60000000E+01  1.00800000E+00
  1.00800000E+00  1.60000000E+01  1.00800000E+00  1.00800000E+00  1.60000000E+01
  1.00800000E+00  1.00800000E+00  1.60000000E+01  1.00800000E+00  1.00800000E+00
  1.60000000E+01  1.00800000E+00  1.00800000E+00  1.60000000E+01  1.00800000E+00
  1.00800000E+00  1.60000000E+01  1.00800000E+00  1.00800000E+00  1.60000000E+01
  1.00800000E+00  1.00800000E+00  1.60000000E+01  1.00800000E+00  1.00800000E+00
  1.60000000E+01  1.00800000E+00  1.00800000E+00  1.60000000E+01  1.00800000E+00
  1.00800000E+00  1.60000000E+01  1.00800000E+00  1.00800000E+00  1.60000000E+01
  1.00800000E+00  1.00800000E+00  1.60000000E+01  1.00800000E+00  1.00800000E+00
  1.60000000E+01  1.00800000E+00  1.00800000E+00  1.60000000E+01  1.00800000E+00
  1.00800000E+00  1.60000000E+01  1.00800000E+00  1.00800000E+00  1.60000000E+01
  1.00800000E+00  1.00800000E+00  1.60000000E+01  1.00800000E+00  1.00800000E+00
  1.60000000E+01  1.00800000E+00  1.00800000E+00  1.60000000E+01  1.00800000E+00
  1.00800000E+00  1.60000000E+01  1.00800000E+00  1.00800000E+00  1.60000000E+01
  1.00800000E+00  1.00800000E+00  1.60000000E+01  1.00800000E+00  1.00800000E+00
  1.60000000E+01  1.00800000E+00  1.00800000E+00  1.60000000E+01  1.00800000E+00
  1.00800000E+00  1.60000000E+01  1.00800000E+00  1.00800000E+00  1.60000000E+01
  1.00800000E+00  1.00800000E+00  1.60000000E+01  1.00800000E+00  1.00800000E+00
  1.60000000E+01  1.00800000E+00  1.00800000E+00  1.60000000E+01  1.00800000E+00
  1.00800000E+00  1.60000000E+01  1.00800000E+00  1.00800000E+00  1.60000000E+01
  1.00800000E+00  1.00800000E+00  1.60000000E+01  1.00800000E+00  1.00800000E+00
  1.60000000E+01  1.00800000E+00  1.00800000E+00  1.60000000E+01  1.00800000E+00
  1.00800000E+00  1.60000000E+01  1.00800000E+00  1.00800000E+00  1.60000000E+01
  1.00800000E+00  1.00800000E+00  1.60000000E+01  1.00800000E+00  1.00800000E+00
  1.60000000E+01  1.00800000E+00  1.00800000E+00  1.60000000E+01  1.00800000E+00
  1.00800000E+00  1.60000000E+01  1.00800000E+00  1.00800000E+00  1.60000000E+01
  1.00800000E+00  1.00800000E+00  1.60000000E+01  1.00800000E+00  1.00800000E+00
  1.60000000E+01  1.00800000E+00  1.00800000E+00  1.60000000E+01  1.00800000E+00
  1.00800000E+00  1.60000000E+01  1.00800000E+00  1.00800000E+00  1.60000000E+01
  1.00800000E+00  1.00800000E+00  1.60000000E+01  1.00800000E+00  1.00800000E+00
  1.60000000E+01  1.00800000E+00  1.00800000E+00  1.60000000E+01  1.00800000E+00
  1.00800000E+00  1.60000000E+01  1.00800000E+00  1.00800000E+00  1.60000000E+01
  1.00800000E+00  1.00800000E+00  1.60000000E+01  1.00800000E+00  1.00800000E+00
  1.60000000E+01  1.00800000E+00  1.00800000E+00  1.60000000E+01  1.00800000E+00
  1.00800000E+00  1.60000000E+01  1.00800000E+00  1.00800000E+00  1.60000000E+01
  1.00800000E+00  1.00800000E+00  1.60000000E+01  1.00800000E+00  1.00800000E+00
  1.60000000E+01  1.00800000E+00  1.00800000E+00  1.60000000E+01  1.00800000E+00
  1.00800000E+00  1.60000000E+01  1.00800000E+00  1.00800000E+00  1.60000000E+01
  1.00800000E+00  1.00800000E+00  1.60000000E+01  1.00800000E+00  1.00800000E+00
  1.60000000E+01  1.00800000E+00  1.00800000E+00  1.60000000E+01  1.00800000E+00
  1.00800000E+00  1.60000000E+01  1.00800000E+00  1.00800000E+00  1.60000000E+01
  1.00800000E+00  1.00800000E+00  1.60000000E+01  1.00800000E+00  1.00800000E+00
  1.60000000E+01  1.00800000E+00  1.00800000E+00  1.60000000E+01  1.00800000E+00
  1.00800000E+00  1.60000000E+01  1.00800000E+00  1.00800000E+00  1.60000000E+01
  1.00800000E+00  1.00800000E+00  1.60000000E+01  1.00800000E+00  1.00800000E+00
  1.60000000E+01  1.00800000E+00  1.00800000E+00  1.60000000E+01  1.00800000E+00
  1.00800000E+00  1.60000000E+01  1.00800000E+00  1.00800000E+00  1.60000000E+01
  1.00800000E+00  1.00800000E+00  1.60000000E+01  1.00800000E+00  1.00800000E+00
  1.60000000E+01  1.00800000E+00  1.00800000E+00  1.60000000E+01  1.00800000E+00
  1.00800000E+00  1.60000000E+01  1.00800000E+00  1.00800000E+00  1.60000000E+01
  1.00800000E+00  1.00800000E+00  1.60000000E+01  1.00800000E+00  1.00800000E+00
  1.60000000E+01  1.00800000E+00  1.00800000E+00  1.60000000E+01  1.00800000E+00
  1.00800000E+00  1.60000000E+01  1.00800000E+00  1.00800000E+00  1.60000000E+01
  1.00800000E+00  1.00800000E+00  1.60000000E+01  1.00800000E+00  1.00800000E+00
  1.60000000E+01  1.00800000E+00  1.00800000E+00  1.60000000E+01  1.00800000E+00
  1.00800000E+00  1.60000000E+01  1.00800000E+00  1.00800000E+00  1.60000000E+01
  1.00800000E+00  1.00800000E+00  1.60000000E+01  1.00800000E+00  1.00800000E+00
  1.60000000E+01  1.00800000E+00  1.00800000E+00  1.60000000E+01  1.00800000E+00
  1.00800000E+00  1.60000000E+01  1.00800000E+00  1.00800000E+00  1.60000000E+01
  1.00800000E+00  1.00800000E+00  1.60000000E+01  1.00800000E+00  1.00800000E+00
  1.60000000E+01  1.00800000E+00  1.00800000E+00  1.60000000E+01  1.00800000E+00
  1.00800000E+00  1.60000000E+01  1.00800000E+00  1.00800000E+00  1.60000000E+01
  1.00800000E+00  1.00800000E+00  1.60000000E+01  1.00800000E+00  1.00800000E+00
  1.60000000E+01  1.00800000E+00  1.00800000E+00  1.60000000E+01  1.00800000E+00
  1.00800000E+00  1.60000000E+01  1.00800000E+00  1.00800000E+00  1.60000000E+01
  1.00800000E+00  1.00800000E+00  1.60000000E+01  1.00800000E+00  1.00800000E+00
  1.60000000E+01  1.00800000E+00  1.00800000E+00  1.60000000E+01  1.00800000E+00
  1.00800000E+00  1.60000000E+01  1.00800000E+00  1.00800000E+00  1.60000000E+01
  1.00800000E+00  1.00800000E+00  1.60000000E+01  1.00800000E+00  1.00800000E+00
  1.60000000E+01  1.00800000E+00  1.00800000E+00  1.60000000E+01  1.00800000E+00
  1.00800000E+00  1.60000000E+01  1.00800000E+00  1.00800000E+00  1.60000000E+01
  1.00800000E+00  1.00800000E+00  1.60000000E+01  1.00800000E+00  1.00800000E+00
  1.60000000E+01  1.00800000E+00  1.00800000E+00  1.60000000E+01  1.00800000E+00
  1.00800000E+00  1.60000000E+01  1.00800000E+00  1.00800000E+00  1.60000000E+01
  1.00800000E+00  1.00800000E+00  1.60000000E+01  1.00800000E+00  1.00800000E+00
  1.60000000E+01  1.00800000E+00  1.00800000E+00  1.60000000E+01  1.00800000E+00
  1.00800000E+00  1.60000000E+01  1.00800000E+00  1.00800000E+00  1.60000000E+01
  1.00800000E+00  1.00800000E+00  1.60000000E+01  1.00800000E+00  1.00800000E+00
  1.60000000E+01  1.00800000E+00  1.00800000E+00  1.60000000E+01  1.00800000E+00
  1.00800000E+00  1.60000000E+01  1.00800000E+00  1.00800000E+00  1.60000000E+01
  1.00800000E+00  1.00800000E+00  1.60000000E+01  1.00800000E+00  1.00800000E+00
  1.60000000E+01  1.00800000E+00  1.00800000E+00  1.60000000E+01  1.00800000E+00
  1.00800000E+00  1.60000000E+01  1.00800000E+00  1.00800000E+00  1.60000000E+01
  1.00800000E+00  1.00800000E+00  1.60000000E+01  1.00800000E+00  1.00800000E+00
  1.60000000E+01  1.00800000E+00  1.00800000E+00  1.60000000E+01  1.00800000E+00
  1.00800000E+00  1.60000000E+01  1.00800000E+00  1.00800000E+00  1.60000000E+01
  1.00800000E+00  1.00800000E+00  1.60000000E+01  1.00800000E+00  1.00800000E+00
  1.60000000E+01  1.00800000E+00  1.00800000E+00  1.60000000E+01  1.00800000E+00
  1.00800000E+00  1.60000000E+01  1.00800000E+00  1.00800000E+00  1.60000000E+01
  1.00800000E+00  1.00800000E+00  1.60000000E+01  1.00800000E+00  1.00800000E+00
  1.60000000E+01  1.00800000E+00  1.00800000E+00  1.60000000E+01  1.00800000E+00
  1.00800000E+00  1.60000000E+01  1.00800000E+00  1.00800000E+00  1.60000000E+01
  1.00800000E+00  1.00800000E+00  1.60000000E+01  1.00800000E+00  1.00800000E+00
  1.60000000E+01  1.00800000E+00  1.00800000E+00  1.60000000E+01  1.00800000E+00
  1.00800000E+00  1.60000000E+01  1.00800000E+00  1.00800000E+00  1.60000000E+01
  1.00800000E+00  1.00800000E+00  1.60000000E+01  1.00800000E+00  1.00800000E+00
  1.60000000E+01  1.00800000E+00  1.00800000E+00  1.60000000E+01  1.00800000E+00
  1.00800000E+00  1.60000000E+01  1.00800000E+00  1.00800000E+00  1.60000000E+01
  1.00800000E+00  1.00800000E+00  1.60000000E+01  1.00800000E+00  1.00800000E+00
  1.60000000E+01  1.00800000E+00  1.00800000E+00  1.60000000E+01  1.00800000E+00
  1.00800000E+00  1.60000000E+01  1.00800000E+00  1.00800000E+00  1.60000000E+01
  1.00800000E+00  1.00800000E+00  1.60000000E+01  1.00800000E+00  1.00800000E+00
  1.60000000E+01  1.00800000E+00  1.00800000E+00  1.60000000E+01  1.00800000E+00
  1.00800000E+00  1.60000000E+01  1.00800000E+00  1.00800000E+00  1.60000000E+01
  1.00800000E+00  1.00800000E+00  1.60000000E+01  1.00800000E+00  1.00800000E+00
  1.60000000E+01  1.00800000E+00  1.00800000E+00  1.60000000E+01  1.00800000E+00
  1.00800000E+00  1.60000000E+01  1.00800000E+00  1.00800000E+00  1.60000000E+01
  1.00800000E+00  1.00800000E+00  1.60000000E+01  1.00800000E+00  1.00800000E+00
  1.60000000E+01  1.00800000E+00  1.00800000E+00  1.60000000E+01  1.00800000E+00
  1.00800000E+00  1.60000000E+01  1.00800000E+00  1.00800000E+00  1.60000000E+01
  1.00800000E+00  1.00800000E+00  1.60000000E+01  1.00800000E+00  1.00800000E+00
  1.60000000E+01  1.00800000E+00  1.00800000E+00  1.60000000E+01  1.00800000E+00
  1.00800000E+00  1.60000000E+01  1.00800000E+00  1.00800000E+00  1.60000000E+01
  1.00800000E+00  1.00800000E+00  1.60000000E+01  1.00800000E+00  1.00800000E+00
  1.60000000E+01  1.00800000E+00  1.00800000E+00  1.60000000E+01  1.00800000E+00
  1.00800000E+00  1.60000000E+01  1.00800000E+00  1.00800000E+00  1.60000000E+01
  1.00800000E+00  1.00800000E+00  1.60000000E+01  1.00800000E+00  1.00800000E+00
  1.60000000E+01  1.00800000E+00  1.00800000E+00  1.60000000E+01  1.00800000E+00
  1.00800000E+00  1.60000000E+01  1.00800000E+00  1.00800000E+00  1.60000000E+01
  1.00800000E+00  1.00800000E+00  1.60000000E+01  1.00800000E+00  1.00800000E+00
  1.60000000E+01  1.00800000E+00  1.00800000E+00  1.60000000E+01  1.00800000E+00
  1.00800000E+00  1.60000000E+01  1.00800000E+00  1.00800000E+00  1.60000000E+01
  1.00800000E+00  1.00800000E+00  1.60000000E+01  1.00800000E+00  1.00800000E+00
  1.60000000E+01  1.00800000E+00  1.00800000E+00  1.60000000E+01  1.00800000E+00
  1.00800000E+00  1.60000000E+01  1.00800000E+00  1.00800000E+00  1.60000000E+01
  1.00800000E+00  1.00800000E+00  1.60000000E+01  1.00800000E+00  1.00800000E+00
  1.60000000E+01  1.00800000E+00  1.00800000E+00  1.60000000E+01  1.00800000E+00
  1.00800000E+00  1.60000000E+01  1.00800000E+00  1.00800000E+00  1.60000000E+01
  1.00800000E+00  1.00800000E+00  1.60000000E+01  1.00800000E+00  1.00800000E+00
  1.60000000E+01  1.00800000E+00  1.00800000E+00  1.60000000E+01  1.00800000E+00
  1.00800000E+00  1.60000000E+01  1.00800000E+00  1.00800000E+00  1.60000000E+01
  1.00800000E+00  1.00800000E+00  1.60000000E+01  1.00800000E+00  1.00800000E+00
  1.60000000E+01  1.00800000E+00  1.00800000E+00  1.60000000E+01  1.00800000E+00
  1.00800000E+00  1.60000000E+01  1.00800000E+00  1.00800000E+00  1.60000000E+01
  1.00800000E+00  1.00800000E+00  1.60000000E+01  1.00800000E+00  1.00800000E+00
  1.60000000E+01  1.00800000E+00  1.00800000E+00  1.60000000E+01  1.00800000E+00
  1.00800000E+00  1.60000000E+01  1.00800000E+00  1.00800000E+00  1.60000000E+01
  1.00800000E+00  1.00800000E+00  1.60000000E+01  1.00800000E+00  1.00800000E+00
  1.60000000E+01  1.00800000E+00  1.00800000E+00  1.60000000E+01  1.00800000E+00
  1.00800000E+00  1.60000000E+01  1.00800000E+00  1.00800000E+00  1.60000000E+01
  1.00800000E+00  1.00800000E+00  1.60000000E+01  1.00800000E+00  1.00800000E+00
  1.60000000E+01  1.00800000E+00  1.00800000E+00  1.60000000E+01  1.00800000E+00
  1.00800000E+00  1.60000000E+01  1.00800000E+00  1.00800000E+00  1.60000000E+01
  1.00800000E+00  1.00800000E+00  1.60000000E+01  1.00800000E+00  1.00800000E+00
  1.60000000E+01  1.00800000E+00  1.00800000E+00  1.60000000E+01  1.00800000E+00
  1.00800000E+00  1.60000000E+01  1.00800000E+00  1.00800000E+00  1.60000000E+01
  1.00800000E+00  1.00800000E+00  1.60000000E+01  1.00800000E+00  1.00800000E+00
  1.60000000E+01  1.00800000E+00  1.00800000E+00  1.60000000E+01  1.00800000E+00
  1.00800000E+00  1.60000000E+01  1.00800000E+00  1.00800000E+00  1.60000000E+01
  1.00800000E+00  1.00800000E+00  1.60000000E+01  1.00800000E+00  1.00800000E+00
  1.60000000E+01  1.00800000E+00  1.00800000E+00  1.60000000E+01  1.00800000E+00
  1.00800000E+00  1.60000000E+01  1.00800000E+00  1.00800000E+00  1.60000000E+01
  1.00800000E+00  1.00800000E+00  1.60000000E+01  1.00800000E+00  1.00800000E+00
  1.60000000E+01  1.00800000E+00  1.00800000E+00  1.60000000E+01  1.00800000E+00
  1.00800000E+00  1.60000000E+01  1.00800000E+00  1.00800000E+00  1.60000000E+01
  1.00800000E+00  1.00800000E+00  1.60000000E+01  1.00800000E+00  1.00800000E+00
  1.60000000E+01  1.00800000E+00  1.00800000E+00  1.60000000E+01  1.00800000E+00
  1.00800000E+00  1.60000000E+01  1.00800000E+00  1.00800000E+00  1.60000000E+01
  1.00800000E+00  1.00800000E+00  1.60000000E+01  1.00800000E+00  1.00800000E+00
  1.60000000E+01  1.00800000E+00  1.00800000E+00  1.60000000E+01  1.00800000E+00
  1.00800000E+00  1.60000000E+01  1.00800000E+00  1.00800000E+00  1.60000000E+01
  1.00800000E+00  1.00800000E+00  1.60000000E+01  1.00800000E+00  1.00800000E+00
  1.60000000E+01  1.00800000E+00  1.00800000E+00  1.60000000E+01  1.00800000E+00
  1.00800000E+00  1.60000000E+01  1.00800000E+00  1.00800000E+00  1.60000000E+01
  1.00800000E+00  1.00800000E+00  1.60000000E+01  1.00800000E+00  1.00800000E+00
  1.60000000E+01  1.00800000E+00  1.00800000E+00  1.60000000E+01  1.00800000E+00
  1.00800000E+00  1.60000000E+01  1.00800000E+00  1.00800000E+00  1.60000000E+01
  1.00800000E+00  1.00800000E+00  1.60000000E+01  1.00800000E+00  1.00800000E+00
  1.60000000E+01  1.00800000E+00  1.00800000E+00  1.60000000E+01  1.00800000E+00
  1.00800000E+00  1.60000000E+01  1.00800000E+00  1.00800000E+00  1.60000000E+01
  1.00800000E+00  1.00800000E+00  1.60000000E+01  1.00800000E+00  1.00800000E+00
  1.60000000E+01  1.00800000E+00  1.00800000E+00  1.60000000E+01  1.00800000E+00
  1.00800000E+00  1.60000000E+01  1.00800000E+00  1.00800000E+00  1.60000000E+01
  1.00800000E+00  1.00800000E+00  1.60000000E+01  1.00800000E+00  1.00800000E+00
  1.60000000E+01  1.00800000E+00  1.00800000E+00  1.60000000E+01  1.00800000E+00
  1.00800000E+00  1.60000000E+01  1.00800000E+00  1.00800000E+00  1.60000000E+01
  1.00800000E+00  1.00800000E+00  1.60000000E+01  1.00800000E+00  1.00800000E+00
  1.60000000E+01  1.00800000E+00  1.00800000E+00  1.60000000E+01  1.00800000E+00
  1.00800000E+00  1.60000000E+01  1.00800000E+00  1.00800000E+00  1.60000000E+01
  1.00800000E+00  1.00800000E+00  1.60000000E+01  1.00800000E+00  1.00800000E+00
  1.60000000E+01  1.00800000E+00  1.00800000E+00  1.60000000E+01  1.00800000E+00
  1.00800000E+00  1.60000000E+01  1.00800000E+00  1.00800000E+00  1.60000000E+01
  1.00800000E+00  1.00800000E+00  1.60000000E+01  1.00800000E+00  1.00800000E+00
  1.60000000E+01  1.00800000E+00  1.00800000E+00  1.60000000E+01  1.00800000E+00
  1.00800000E+00  1.60000000E+01  1.00800000E+00  1.00800000E+00  1.60000000E+01
  1.00800000E+00  1.00800000E+00  1.60000000E+01  1.00800000E+00  1.00800000E+00
  1.60000000E+01  1.00800000E+00  1.00800000E+00  1.60000000E+01  1.00800000E+00
  1.00800000E+00  1.60000000E+01  1.00800000E+00  1.00800000E+00  1.60000000E+01
  1.00800000E+00  1.00800000E+00  1.60000000E+01  1.00800000E+00  1.00800000E+00
  1.60000000E+01  1.00800000E+00  1.00800000E+00  1.60000000E+01  1.00800000E+00
  1.00800000E+00  1.60000000E+01  1.00800000E+00  1.00800000E+00  1.60000000E+01
  1.00800000E+00  1.00800000E+00  1.60000000E+01  1.00800000E+00  1.00800000E+00
  1.60000000E+01  1.00800000E+00  1.00800000E+00  1.60000000E+01  1.00800000E+00
  1.00800000E+00  1.60000000E+01  1.00800000E+00  1.00800000E+00  1.60000000E+01
  1.00800000E+00  1.00800000E+00  1.60000000E+01  1.00800000E+00  1.00800000E+00
  1.60000000E+01  1.00800000E+00  1.00800000E+00  1.60000000E+01  1.00800000E+00
  1.00800000E+00  1.60000000E+01  1.00800000E+00  1.00800000E+00  1.60000000E+01
  1.00800000E+00  1.00800000E+00  1.60000000E+01  1.00800000E+00  1.00800000E+00
  1.60000000E+01  1.00800000E+00  1.00800000E+00  1.60000000E+01  1.00800000E+00
  1.00800000E+00  1.60000000E+01  1.00800000E+00  1.00800000E+00  1.60000000E+01
  1.00800000E+00  1.00800000E+00  1.60000000E+01  1.00800000E+00  1.00800000E+00
  1.60000000E+01  1.00800000E+00  1.00800000E+00  1.60000000E+01  1.00800000E+00
  1.00800000E+00  1.60000000E+01  1.00800000E+00  1.00800000E+00  1.60000000E+01
  1.00800000E+00  1.00800000E+00  1.60000000E+01  1.00800000E+00  1.00800000E+00
  1.60000000E+01  1.00800000E+00  1.00800000E+00  1.60000000E+01  1.00800000E+00
  1.00800000E+00  1.60000000E+01  1.00800000E+00  1.00800000E+00  1.60000000E+01
  1.00800000E+00  1.00800000E+00  1.60000000E+01  1.00800000E+00  1.00800000E+00
  1.60000000E+01  1.00800000E+00  1.00800000E+00  1.60000000E+01  1.00800000E+00
  1.00800000E+00  1.60000000E+01  1.00800000E+00  1.00800000E+00  1.60000000E+01
  1.00800000E+00  1.00800000E+00  1.60000000E+01  1.00800000E+00  1.00800000E+00
  1.60000000E+01  1.00800000E+00  1.00800000E+00  1.60000000E+01  1.00800000E+00
  1.00800000E+00  1.60000000E+01  1.00800000E+00  1.00800000E+00  1.60000000E+01
  1.00800000E+00  1.00800000E+00  1.60000000E+01  1.00800000E+00  1.00800000E+00
  1.60000000E+01  1.00800000E+00  1.00800000E+00  1.60000000E+01  1.00800000E+00
  1.00800000E+00  1.60000000E+01  1.00800000E+00  1.00800000E+00  1.60000000E+01
  1.00800000E+00  1.00800000E+00  1.60000000E+01  1.00800000E+00  1.00800000E+00
  1.60000000E+01  1.00800000E+00  1.00800000E+00  1.60000000E+01  1.00800000E+00
  1.00800000E+00  1.60000000E+01  1.00800000E+00  1.00800000E+00  1.60000000E+01
  1.00800000E+00  1.00800000E+00  1.60000000E+01  1.00800000E+00  1.00800000E+00
  1.60000000E+01  1.00800000E+00  1.00800000E+00  1.60000000E+01  1.00800000E+00
  1.00800000E+00  1.60000000E+01  1.00800000E+00  1.00800000E+00  1.60000000E+01
  1.00800000E+00  1.00800000E+00  1.60000000E+01  1.00800000E+00  1.00800000E+00
  1.60000000E+01  1.00800000E+00  1.00800000E+00  1.60000000E+01  1.00800000E+00
  1.00800000E+00  1.60000000E+01  1.00800000E+00  1.00800000E+00  1.60000000E+01
  1.00800000E+00  1.00800000E+00  1.60000000E+01  1.00800000E+00  1.00800000E+00
  1.60000000E+01  1.00800000E+00  1.00800000E+00  1.60000000E+01  1.00800000E+00
  1.00800000E+00  1.60000000E+01  1.00800000E+00  1.00800000E+00  1.60000000E+01
  1.00800000E+00  1.00800000E+00  1.60000000E+01  1.00800000E+00  1.00800000E+00
  1.60000000E+01  1.00800000E+00  1.00800000E+00  1.60000000E+01  1.00800000E+00
  1.00800000E+00  1.60000000E+01  1.00800000E+00  1.00800000E+00  1.60000000E+01
  1.00800000E+00  1.00800000E+00  1.60000000E+01  1.00800000E+00  1.00800000E+00
  1.60000000E+01  1.00800000E+00  1.00800000E+00  1.60000000E+01  1.00800000E+00
  1.00800000E+00  1.60000000E+01  1.00800000E+00  1.00800000E+00  1.60000000E+01
  1.00800000E+00  1.00800000E+00  1.60000000E+01  1.00800000E+00  1.00800000E+00
  1.60000000E+01  1.00800000E+00  1.00800000E+00  1.60000000E+01  1.00800000E+00
  1.00800000E+00  1.60000000E+01  1.00800000E+00  1.00800000E+00  1.60000000E+01
  1.00800000E+00  1.00800000E+00  1.60000000E+01  1.00800000E+00  1.00800000E+00
  1.60000000E+01  1.00800000E+00  1.00800000E+00  1.60000000E+01  1.00800000E+00
  1.00800000E+00  1.60000000E+01  1.00800000E+00  1.00800000E+00  1.60000000E+01
  1.00800000E+00  1.00800000E+00  1.60000000E+01  1.00800000E+00  1.00800000E+00
  1.60000000E+01  1.00800000E+00  1.00800000E+00  1.60000000E+01  1.00800000E+00
  1.00800000E+00  1.60000000E+01  1.00800000E+00  1.00800000E+00  1.60000000E+01
  1.00800000E+00  1.00800000E+00  1.60000000E+01  1.00800000E+00  1.00800000E+00
  1.60000000E+01  1.00800000E+00  1.00800000E+00  1.60000000E+01  1.00800000E+00
  1.00800000E+00  1.60000000E+01  1.00800000E+00  1.00800000E+00  1.60000000E+01
  1.00800000E+00  1.00800000E+00  1.60000000E+01  1.00800000E+00  1.00800000E+00
  1.60000000E+01  1.00800000E+00  1.00800000E+00  1.60000000E+01  1.00800000E+00
  1.00800000E+00  1.60000000E+01  1.00800000E+00  1.00800000E+00  1.60000000E+01
  1.00800000E+00  1.00800000E+00  1.60000000E+01  1.00800000E+00  1.00800000E+00
  1.60000000E+01  1.00800000E+00  1.00800000E+00  1.60000000E+01  1.00800000E+00
  1.00800000E+00  1.60000000E+01  1.00800000E+00  1.00800000E+00  1.60000000E+01
  1.00800000E+00  1.00800000E+00  1.60000000E+01  1.00800000E+00  1.00800000E+00
  1.60000000E+01  1.00800000E+00  1.00800000E+00  1.60000000E+01  1.00800000E+00
  1.00800000E+00  1.60000000E+01  1.00800000E+00  1.00800000E+00  1.60000000E+01
  1.00800000E+00  1.00800000E+00  1.60000000E+01  1.00800000E+00  1.00800000E+00
  1.60000000E+01  1.00800000E+00  1.00800000E+00  1.60000000E+01  1.00800000E+00
  1.00800000E+00  1.60000000E+01  1.00800000E+00  1.00800000E+00  1.60000000E+01
  1.00800000E+00  1.00800000E+00  1.60000000E+01  1.00800000E+00  1.00800000E+00
  1.60000000E+01  1.00800000E+00  1.00800000E+00  1.60000000E+01  1.00800000E+00
  1.00800000E+00  1.60000000E+01  1.00800000E+00  1.00800000E+00  1.60000000E+01
  1.00800000E+00  1.00800000E+00  1.60000000E+01  1.00800000E+00  1.00800000E+00
  1.60000000E+01  1.00800000E+00  1.00800000E+00  1.60000000E+01  1.00800000E+00
  1.00800000E+00  1.60000000E+01  1.00800000E+00  1.00800000E+00  1.60000000E+01
  1.00800000E+00  1.00800000E+00  1.60000000E+01  1.00800000E+00  1.00800000E+00
  1.60000000E+01  1.00800000E+00  1.00800000E+00  1.60000000E+01  1.00800000E+00
  1.00800000E+00  1.60000000E+01  1.00800000E+00  1.00800000E+00  1.60000000E+01
  1.00800000E+00  1.00800000E+00  1.60000000E+01  1.00800000E+00  1.00800000E+00
  1.60000000E+01  1.00800000E+00  1.00800000E+00  1.60000000E+01  1.00800000E+00
  1.00800000E+00  1.60000000E+01  1.00800000E+00  1.00800000E+00  1.60000000E+01
  1.00800000E+00  1.00800000E+00  1.60000000E+01  1.00800000E+00  1.00800000E+00
  1.60000000E+01  1.00800000E+00  1.00800000E+00  1.60000000E+01  1.00800000E+00
  1.00800000E+00  1.60000000E+01  1.00800000E+00  1.00800000E+00  1.60000000E+01
  1.00800000E+00  1.00800000E+00  1.60000000E+01  1.00800000E+00  1.00800000E+00
  1.60000000E+01  1.00800000E+00  1.00800000E+00  1.60000000E+01  1.00800000E+00
  1.00800000E+00  1.60000000E+01  1.00800000E+00  1.00800000E+00  1.60000000E+01
  1.00800000E+00  1.00800000E+00  1.60000000E+01  1.00800000E+00  1.00800000E+00
  1.60000000E+01  1.00800000E+00  1.00800000E+00  1.60000000E+01  1.00800000E+00
  1.00800000E+00  1.60000000E+01  1.00800000E+00  1.00800000E+00  1.60000000E+01
  1.00800000E+00  1.00800000E+00  1.60000000E+01  1.00800000E+00  1.00800000E+00
  1.60000000E+01  1.00800000E+00  1.00800000E+00  1.60000000E+01  1.00800000E+00
  1.00800000E+00  1.60000000E+01  1.00800000E+00  1.00800000E+00  1.60000000E+01
  1.00800000E+00  1.00800000E+00  1.60000000E+01  1.00800000E+00  1.00800000E+00
  1.60000000E+01  1.00800000E+00  1.00800000E+00  1.60000000E+01  1.00800000E+00
  1.00800000E+00  1.60000000E+01  1.00800000E+00  1.00800000E+00  1.60000000E+01
  1.00800000E+00  1.00800000E+00  1.60000000E+01  1.00800000E+00  1.00800000E+00
  1.60000000E+01  1.00800000E+00  1.00800000E+00  1.60000000E+01  1.00800000E+00
  1.00800000E+00  1.60000000E+01  1.00800000E+00  1.00800000E+00  1.60000000E+01
  1.00800000E+00  1.00800000E+00  1.60000000E+01  1.00800000E+00  1.00800000E+00
  1.60000000E+01  1.00800000E+00  1.00800000E+00  1.60000000E+01  1.00800000E+00
  1.00800000E+00  1.60000000E+01  1.00800000E+00  1.00800000E+00  1.60000000E+01
  1.00800000E+00  1.00800000E+00  1.60000000E+01  1.00800000E+00  1.00800000E+00
  1.60000000E+01  1.00800000E+00  1.00800000E+00  1.60000000E+01  1.00800000E+00
  1.00800000E+00  1.60000000E+01  1.00800000E+00  1.00800000E+00  1.60000000E+01
  1.00800000E+00  1.00800000E+00  1.60000000E+01  1.00800000E+00  1.00800000E+00
  1.60000000E+01  1.00800000E+00  1.00800000E+00  1.60000000E+01  1.00800000E+00
  1.00800000E+00  1.60000000E+01  1.00800000E+00  1.00800000E+00  1.60000000E+01
  1.00800000E+00  1.00800000E+00  1.60000000E+01  1.00800000E+00  1.00800000E+00
  1.60000000E+01  1.00800000E+00  1.00800000E+00  1.60000000E+01  1.00800000E+00
  1.00800000E+00  1.60000000E+01  1.00800000E+00  1.00800000E+00  1.60000000E+01
  1.00800000E+00  1.00800000E+00  1.60000000E+01  1.00800000E+00  1.00800000E+00
  1.60000000E+01  1.00800000E+00  1.00800000E+00  1.60000000E+01  1.00800000E+00
  1.00800000E+00  1.60000000E+01  1.00800000E+00  1.00800000E+00  1.60000000E+01
  1.00800000E+00  1.00800000E+00  1.60000000E+01  1.00800000E+00  1.00800000E+00
  1.60000000E+01  1.00800000E+00  1.00800000E+00  1.60000000E+01  1.00800000E+00
  1.00800000E+00  1.60000000E+01  1.00800000E+00  1.00800000E+00  1.60000000E+01
  1.00800000E+00  1.00800000E+00  1.60000000E+01  1.00800000E+00  1.00800000E+00
  1.60000000E+01  1.00800000E+00  1.00800000E+00  1.60000000E+01  1.00800000E+00
  1.00800000E+00  1.60000000E+01  1.00800000E+00  1.00800000E+00  1.60000000E+01
  1.00800000E+00  1.00800000E+00  1.60000000E+01  1.00800000E+00  1.00800000E+00
  1.60000000E+01  1.00800000E+00  1.00800000E+00  1.60000000E+01  1.00800000E+00
  1.00800000E+00  1.60000000E+01  1.00800000E+00  1.00800000E+00  1.60000000E+01
  1.00800000E+00  1.00800000E+00  1.60000000E+01  1.00800000E+00  1.00800000E+00
  1.60000000E+01  1.00800000E+00  1.00800000E+00  1.60000000E+01  1.00800000E+00
  1.00800000E+00  1.60000000E+01  1.00800000E+00  1.00800000E+00  1.60000000E+01
  1.00800000E+00  1.00800000E+00  1.60000000E+01  1.00800000E+00  1.00800000E+00
  1.60000000E+01  1.00800000E+00  1.00800000E+00  1.60000000E+01  1.00800000E+00
  1.00800000E+00  1.60000000E+01  1.00800000E+00  1.00800000E+00  1.60000000E+01
  1.00800000E+00  1.00800000E+00  1.60000000E+01  1.00800000E+00  1.00800000E+00
  1.60000000E+01  1.00800000E+00  1.00800000E+00  1.60000000E+01  1.00800000E+00
  1.00800000E+00  1.60000000E+01  1.00800000E+00  1.00800000E+00  1.60000000E+01
  1.00800000E+00  1.00800000E+00  1.60000000E+01  1.00800000E+00  1.00800000E+00
  1.60000000E+01  1.00800000E+00  1.00800000E+00  1.60000000E+01  1.00800000E+00
  1.00800000E+00  1.60000000E+01  1.00800000E+00  1.00800000E+00  1.60000000E+01
  1.00800000E+00  1.00800000E+00  1.60000000E+01  1.00800000E+00  1.00800000E+00
  1.60000000E+01  1.00800000E+00  1.00800000E+00  1.60000000E+01  1.00800000E+00
  1.00800000E+00  1.60000000E+01  1.00800000E+00  1.00800000E+00  1.60000000E+01
  1.00800000E+00  1.00800000E+00  1.60000000E+01  1.00800000E+00  1.00800000E+00
  1.60000000E+01  1.00800000E+00  1.00800000E+00  1.60000000E+01  1.00800000E+00
  1.00800000E+00  1.60000000E+01  1.00800000E+00  1.00800000E+00  1.60000000E+01
  1.00800000E+00  1.00800000E+00  1.60000000E+01  1.00800000E+00  1.00800000E+00
  1.60000000E+01  1.00800000E+00  1.00800000E+00  1.60000000E+01  1.00800000E+00
  1.00800000E+00  1.60000000E+01  1.00800000E+00  1.00800000E+00  1.60000000E+01
  1.00800000E+00  1.00800000E+00  1.60000000E+01  1.00800000E+00  1.00800000E+00
  1.60000000E+01  1.00800000E+00  1.00800000E+00  1.60000000E+01  1.00800000E+00
  1.00800000E+00  1.60000000E+01  1.00800000E+00  1.00800000E+00  1.60000000E+01
  1.00800000E+00  1.00800000E+00  1.60000000E+01  1.00800000E+00  1.00800000E+00
  1.60000000E+01  1.00800000E+00  1.00800000E+00  1.60000000E+01  1.00800000E+00
  1.00800000E+00  1.60000000E+01  1.00800000E+00  1.00800000E+00  1.60000000E+01
  1.00800000E+00  1.00800000E+00  1.60000000E+01  1.00800000E+00  1.00800000E+00
  1.60000000E+01  1.00800000E+00  1.00800000E+00  1.60000000E+01  1.00800000E+00
  1.00800000E+00  1.60000000E+01  1.00800000E+00  1.00800000E+00  1.60000000E+01
  1.00800000E+00  1.00800000E+00  1.60000000E+01  1.00800000E+00  1.00800000E+00
  1.60000000E+01  1.00800000E+00  1.00800000E+00  1.60000000E+01  1.00800000E+00
  1.00800000E+00  1.60000000E+01  1.00800000E+00  1.00800000E+00  1.60000000E+01
  1.00800000E+00  1.00800000E+00  1.60000000E+01  1.00800000E+00  1.00800000E+00
  1.60000000E+01  1.00800000E+00  1.00800000E+00  1.60000000E+01  1.00800000E+00
  1.00800000E+00  1.60000000E+01  1.00800000E+00  1.00800000E+00  1.60000000E+01
  1.00800000E+00  1.00800000E+00  1.60000000E+01  1.00800000E+00  1.00800000E+00
  1.60000000E+01  1.00800000E+00  1.00800000E+00  1.60000000E+01  1.00800000E+00
  1.00800000E+00  1.60000000E+01  1.00800000E+00  1.00800000E+00  1.60000000E+01
  1.00800000E+00  1.00800000E+00  1.60000000E+01  1.00800000E+00  1.00800000E+00
  1.60000000E+01  1.00800000E+00  1.00800000E+00  1.60000000E+01  1.00800000E+00
  1.00800000E+00  1.60000000E+01  1.00800000E+00  1.00800000E+00  1.60000000E+01
  1.00800000E+00  1.00800000E+00  1.60000000E+01  1.00800000E+00  1.00800000E+00
  1.60000000E+01  1.00800000E+00  1.00800000E+00  1.60000000E+01  1.00800000E+00
  1.00800000E+00  1.60000000E+01  1.00800000E+00  1.00800000E+00  1.60000000E+01
  1.00800000E+00  1.00800000E+00  1.60000000E+01  1.00800000E+00  1.00800000E+00
  1.60000000E+01  1.00800000E+00  1.00800000E+00  1.60000000E+01  1.00800000E+00
  1.00800000E+00  1.60000000E+01  1.00800000E+00  1.00800000E+00  1.60000000E+01
  1.00800000E+00  1.00800000E+00  1.60000000E+01  1.00800000E+00  1.00800000E+00
  1.60000000E+01  1.00800000E+00  1.00800000E+00  1.60000000E+01  1.00800000E+00
  1.00800000E+00  1.60000000E+01  1.00800000E+00  1.00800000E+00  1.60000000E+01
  1.00800000E+00  1.00800000E+00  1.60000000E+01  1.00800000E+00  1.00800000E+00
  1.60000000E+01  1.00800000E+00  1.00800000E+00  1.60000000E+01  1.00800000E+00
  1.00800000E+00  1.60000000E+01  1.00800000E+00  1.00800000E+00  1.60000000E+01
  1.00800000E+00  1.00800000E+00  1.60000000E+01  1.00800000E+00  1.00800000E+00
  1.60000000E+01  1.00800000E+00  1.00800000E+00  1.60000000E+01  1.00800000E+00
  1.00800000E+00  1.60000000E+01  1.00800000E+00  1.00800000E+00  1.60000000E+01
  1.00800000E+00  1.00800000E+00  1.60000000E+01  1.00800000E+00  1.00800000E+00
  1.60000000E+01  1.00800000E+00  1.00800000E+00  1.60000000E+01  1.00800000E+00
  1.00800000E+00  1.60000000E+01  1.00800000E+00  1.00800000E+00  1.60000000E+01
  1.00800000E+00  1.00800000E+00  1.60000000E+01  1.00800000E+00  1.00800000E+00
  1.60000000E+01  1.00800000E+00  1.00800000E+00  1.60000000E+01  1.00800000E+00
  1.00800000E+00  1.60000000E+01  1.00800000E+00  1.00800000E+00  1.60000000E+01
  1.00800000E+00  1.00800000E+00  1.60000000E+01  1.00800000E+00  1.00800000E+00
  1.60000000E+01  1.00800000E+00  1.00800000E+00  1.60000000E+01  1.00800000E+00
  1.00800000E+00  1.60000000E+01  1.00800000E+00  1.00800000E+00  1.60000000E+01
  1.00800000E+00  1.00800000E+00  1.60000000E+01  1.00800000E+00  1.00800000E+00
  1.60000000E+01  1.00800000E+00  1.00800000E+00  1.60000000E+01  1.00800000E+00
  1.00800000E+00  1.60000000E+01  1.00800000E+00  1.00800000E+00  1.60000000E+01
  1.00800000E+00  1.00800000E+00  1.60000000E+01  1.00800000E+00  1.00800000E+00
  1.60000000E+01  1.00800000E+00  1.00800000E+00  1.60000000E+01  1.00800000E+00
  1.00800000E+00  1.60000000E+01  1.00800000E+00  1.00800000E+00  1.60000000E+01
  1.00800000E+00  1.00800000E+00  1.60000000E+01  1.00800000E+00  1.00800000E+00
  1.60000000E+01  1.00800000E+00  1.00800000E+00  1.60000000E+01  1.00800000E+00
  1.00800000E+00  1.60000000E+01  1.00800000E+00  1.00800000E+00  1.60000000E+01
  1.00800000E+00  1.00800000E+00  1.60000000E+01  1.00800000E+00  1.00800000E+00
  1.60000000E+01  1.00800000E+00  1.00800000E+00  1.60000000E+01  1.00800000E+00
  1.00800000E+00  1.60000000E+01  1.00800000E+00  1.00800000E+00  1.60000000E+01
  1.00800000E+00  1.00800000E+00  1.60000000E+01  1.00800000E+00  1.00800000E+00
  1.60000000E+01  1.00800000E+00  1.00800000E+00  1.60000000E+01  1.00800000E+00
  1.00800000E+00  1.60000000E+01  1.00800000E+00  1.00800000E+00  1.60000000E+01
  1.00800000E+00  1.00800000E+00  1.60000000E+01  1.00800000E+00  1.00800000E+00
  1.60000000E+01  1.00800000E+00  1.00800000E+00  1.60000000E+01  1.00800000E+00
  1.00800000E+00  1.60000000E+01  1.00800000E+00  1.00800000E+00  1.60000000E+01
  1.00800000E+00  1.00800000E+00  1.60000000E+01  1.00800000E+00  1.00800000E+00
  1.60000000E+01  1.00800000E+00  1.00800000E+00  1.60000000E+01  1.00800000E+00
  1.00800000E+00  1.60000000E+01  1.00800000E+00  1.00800000E+00  1.60000000E+01
  1.00800000E+00  1.00800000E+00  1.60000000E+01  1.00800000E+00  1.00800000E+00
  1.60000000E+01  1.00800000E+00  1.00800000E+00  1.60000000E+01  1.00800000E+00
  1.00800000E+00  1.60000000E+01  1.00800000E+00  1.00800000E+00  1.60000000E+01
  1.00800000E+00  1.00800000E+00  1.60000000E+01  1.00800000E+00  1.00800000E+00
  1.60000000E+01  1.00800000E+00  1.00800000E+00  1.60000000E+01  1.00800000E+00
  1.00800000E+00  1.60000000E+01  1.00800000E+00  1.00800000E+00  1.60000000E+01
  1.00800000E+00  1.00800000E+00  1.60000000E+01  1.00800000E+00  1.00800000E+00
  1.60000000E+01  1.00800000E+00  1.00800000E+00  1.60000000E+01  1.00800000E+00
  1.00800000E+00  1.60000000E+01  1.00800000E+00  1.00800000E+00  1.60000000E+01
  1.00800000E+00  1.00800000E+00  1.60000000E+01  1.00800000E+00  1.00800000E+00
  1.60000000E+01  1.00800000E+00  1.00800000E+00  1.60000000E+01  1.00800000E+00
  1.00800000E+00  1.60000000E+01  1.00800000E+00  1.00800000E+00  1.60000000E+01
  1.00800000E+00  1.00800000E+00  1.60000000E+01  1.00800000E+00  1.00800000E+00
  1.60000000E+01  1.00800000E+00  1.00800000E+00  1.60000000E+01  1.00800000E+00
  1.00800000E+00  1.60000000E+01  1.00800000E+00  1.00800000E+00  1.60000000E+01
  1.00800000E+00  1.00800000E+00  1.60000000E+01  1.00800000E+00  1.00800000E+00
  1.60000000E+01  1.00800000E+00  1.00800000E+00  1.60000000E+01  1.00800000E+00
  1.00800000E+00  1.60000000E+01  1.00800000E+00  1.00800000E+00  1.60000000E+01
  1.00800000E+00  1.00800000E+00  1.60000000E+01  1.00800000E+00  1.00800000E+00
  1.60000000E+01  1.00800000E+00  1.00800000E+00  1.60000000E+01  1.00800000E+00
  1.00800000E+00  1.60000000E+01  1.00800000E+00  1.00800000E+00  1.60000000E+01
  1.00800000E+00  1.00800000E+00  1.60000000E+01  1.00800000E+00  1.00800000E+00
  1.60000000E+01  1.00800000E+00  1.00800000E+00  1.60000000E+01  1.00800000E+00
  1.00800000E+00  1.60000000E+01  1.00800000E+00  1.00800000E+00  1.60000000E+01
  1.00800000E+00  1.00800000E+00  1.60000000E+01  1.00800000E+00  1.00800000E+00
  1.60000000E+01  1.00800000E+00  1.00800000E+00  1.60000000E+01  1.00800000E+00
  1.00800000E+00  1.60000000E+01  1.00800000E+00  1.00800000E+00  1.60000000E+01
  1.00800000E+00  1.00800000E+00  1.60000000E+01  1.00800000E+00  1.00800000E+00
  1.60000000E+01  1.00800000E+00  1.00800000E+00  1.60000000E+01  1.00800000E+00
  1.00800000E+00  1.60000000E+01  1.00800000E+00  1.00800000E+00  1.60000000E+01
  1.00800000E+00  1.00800000E+00  1.60000000E+01  1.00800000E+00  1.00800000E+00
  1.60000000E+01  1.00800000E+00  1.00800000E+00  1.60000000E+01  1.00800000E+00
  1.00800000E+00  1.60000000E+01  1.00800000E+00  1.00800000E+00  1.60000000E+01
  1.00800000E+00  1.00800000E+00  1.60000000E+01  1.00800000E+00  1.00800000E+00
  1.60000000E+01  1.00800000E+00  1.00800000E+00  1.60000000E+01  1.00800000E+00
  1.00800000E+00  1.60000000E+01  1.00800000E+00  1.00800000E+00  1.60000000E+01
  1.00800000E+00  1.00800000E+00  1.60000000E+01  1.00800000E+00  1.00800000E+00
  1.60000000E+01  1.00800000E+00  1.00800000E+00  1.60000000E+01  1.00800000E+00
  1.00800000E+00  1.60000000E+01  1.00800000E+00  1.00800000E+00  1.60000000E+01
  1.00800000E+00  1.00800000E+00  1.60000000E+01  1.00800000E+00  1.00800000E+00
  1.60000000E+01  1.00800000E+00  1.00800000E+00  1.60000000E+01  1.00800000E+00
  1.00800000E+00  1.60000000E+01  1.00800000E+00  1.00800000E+00  1.60000000E+01
  1.00800000E+00  1.00800000E+00  1.60000000E+01  1.00800000E+00  1.00800000E+00
  1.60000000E+01  1.00800000E+00  1.00800000E+00  1.60000000E+01  1.00800000E+00
  1.00800000E+00  1.60000000E+01  1.00800000E+00  1.00800000E+00  1.60000000E+01
  1.00800000E+00  1.00800000E+00  1.60000000E+01  1.00800000E+00  1.00800000E+00
  1.60000000E+01  1.00800000E+00  1.00800000E+00  1.60000000E+01  1.00800000E+00
  1.00800000E+00  1.60000000E+01  1.00800000E+00  1.00800000E+00  1.60000000E+01
  1.00800000E+00  1.00800000E+00  1.60000000E+01  1.00800000E+00  1.00800000E+00
  1.60000000E+01  1.00800000E+00  1.00800000E+00  1.60000000E+01  1.00800000E+00
  1.00800000E+00  1.60000000E+01  1.00800000E+00  1.00800000E+00  1.60000000E+01
  1.00800000E+00  1.00800000E+00  1.60000000E+01  1.00800000E+00  1.00800000E+00
  1.60000000E+01  1.00800000E+00  1.00800000E+00  1.60000000E+01  1.00800000E+00
  1.00800000E+00  1.60000000E+01  1.00800000E+00  1.00800000E+00  1.60000000E+01
  1.00800000E+00  1.00800000E+00  1.60000000E+01  1.00800000E+00  1.00800000E+00
  1.60000000E+01  1.00800000E+00  1.00800000E+00  1.60000000E+01  1.00800000E+00
  1.00800000E+00  1.60000000E+01  1.00800000E+00  1.00800000E+00  1.60000000E+01
  1.00800000E+00  1.00800000E+00  1.60000000E+01  1.00800000E+00  1.00800000E+00
  1.60000000E+01  1.00800000E+00  1.00800000E+00  1.60000000E+01  1.00800000E+00
  1.00800000E+00  1.60000000E+01  1.00800000E+00  1.00800000E+00  1.60000000E+01
  1.00800000E+00  1.00800000E+00  1.60000000E+01  1.00800000E+00  1.00800000E+00
  1.60000000E+01  1.00800000E+00  1.00800000E+00  1.60000000E+01  1.00800000E+00
  1.00800000E+00  1.60000000E+01  1.00800000E+00  1.00800000E+00  1.60000000E+01
  1.00800000E+00  1.00800000E+00  1.60000000E+01  1.00800000E+00  1.00800000E+00
  1.60000000E+01  1.00800000E+00  1.00800000E+00  1.60000000E+01  1.00800000E+00
  1.00800000E+00  1.60000000E+01  1.00800000E+00  1.00800000E+00  1.60000000E+01
  1.00800000E+00  1.00800000E+00  1.60000000E+01  1.00800000E+00  1.00800000E+00
  1.60000000E+01  1.00800000E+00  1.00800000E+00  1.60000000E+01  1.00800000E+00
  1.00800000E+00  1.60000000E+01  1.00800000E+00  1.00800000E+00  1.60000000E+01
  1.00800000E+00  1.00800000E+00  1.60000000E+01  1.00800000E+00  1.00800000E+00
  1.60000000E+01  1.00800000E+00  1.00800000E+00  1.60000000E+01  1.00800000E+00
  1.00800000E+00  1.60000000E+01  1.00800000E+00  1.00800000E+00  1.60000000E+01
  1.00800000E+00  1.00800000E+00  1.60000000E+01  1.00800000E+00  1.00800000E+00
  1.60000000E+01  1.00800000E+00  1.00800000E+00  1.60000000E+01  1.00800000E+00
  1.00800000E+00  1.60000000E+01  1.00800000E+00  1.00800000E+00  1.60000000E+01
  1.00800000E+00  1.00800000E+00  1.60000000E+01  1.00800000E+00  1.00800000E+00
  1.60000000E+01  1.00800000E+00  1.00800000E+00  1.60000000E+01  1.00800000E+00
  1.00800000E+00  1.60000000E+01  1.00800000E+00  1.00800000E+00  1.60000000E+01
  1.00800000E+00  1.00800000E+00  1.60000000E+01  1.00800000E+00  1.00800000E+00
  1.60000000E+01  1.00800000E+00  1.00800000E+00  1.60000000E+01  1.00800000E+00
  1.00800000E+00  1.60000000E+01  1.00800000E+00  1.00800000E+00  1.60000000E+01
  1.00800000E+00  1.00800000E+00  1.60000000E+01  1.00800000E+00  1.00800000E+00
  1.60000000E+01  1.00800000E+00  1.00800000E+00  1.60000000E+01  1.00800000E+00
  1.00800000E+00  1.60000000E+01  1.00800000E+00  1.00800000E+00  1.60000000E+01
  1.00800000E+00  1.00800000E+00  1.60000000E+01  1.00800000E+00  1.00800000E+00
  1.60000000E+01  1.00800000E+00  1.00800000E+00  1.60000000E+01  1.00800000E+00
  1.00800000E+00  1.60000000E+01  1.00800000E+00  1.00800000E+00  1.60000000E+01
  1.00800000E+00  1.00800000E+00  1.60000000E+01  1.00800000E+00  1.00800000E+00
  1.60000000E+01  1.00800000E+00  1.00800000E+00  1.60000000E+01  1.00800000E+00
  1.00800000E+00  1.60000000E+01  1.00800000E+00  1.00800000E+00  1.60000000E+01
  1.00800000E+00  1.00800000E+00  1.60000000E+01  1.00800000E+00  1.00800000E+00
  1.60000000E+01  1.00800000E+00  1.00800000E+00  1.60000000E+01  1.00800000E+00
  1.00800000E+00  1.60000000E+01  1.00800000E+00  1.00800000E+00  1.60000000E+01
  1.00800000E+00  1.00800000E+00  1.60000000E+01  1.00800000E+00  1.00800000E+00
  1.60000000E+01  1.00800000E+00  1.00800000E+00  1.60000000E+01  1.00800000E+00
  1.00800000E+00  1.60000000E+01  1.00800000E+00  1.00800000E+00  1.60000000E+01
  1.00800000E+00  1.00800000E+00  1.60000000E+01  1.00800000E+00  1.00800000E+00
  1.60000000E+01  1.00800000E+00  1.00800000E+00  1.60000000E+01  1.00800000E+00
  1.00800000E+00  1.60000000E+01  1.00800000E+00  1.00800000E+00  1.60000000E+01
  1.00800000E+00  1.00800000E+00  1.60000000E+01  1.00800000E+00  1.00800000E+00
  1.60000000E+01  1.00800000E+00  1.00800000E+00  1.60000000E+01  1.00800000E+00
  1.00800000E+00  1.60000000E+01  1.00800000E+00  1.00800000E+00  1.60000000E+01
  1.00800000E+00  1.00800000E+00  1.60000000E+01  1.00800000E+00  1.00800000E+00
  1.60000000E+01  1.00800000E+00  1.00800000E+00  1.60000000E+01  1.00800000E+00
  1.00800000E+00  1.60000000E+01  1.00800000E+00  1.00800000E+00  1.60000000E+01
  1.00800000E+00  1.00800000E+00  1.60000000E+01  1.00800000E+00  1.00800000E+00
  1.60000000E+01  1.00800000E+00  1.00800000E+00  1.60000000E+01  1.00800000E+00
  1.00800000E+00  1.60000000E+01  1.00800000E+00  1.00800000E+00  1.60000000E+01
  1.00800000E+00  1.00800000E+00  1.60000000E+01  1.00800000E+00  1.00800000E+00
  1.60000000E+01  1.00800000E+00  1.00800000E+00  1.60000000E+01  1.00800000E+00
  1.00800000E+00  1.60000000E+01  1.00800000E+00  1.00800000E+00  1.60000000E+01
  1.00800000E+00  1.00800000E+00  1.60000000E+01  1.00800000E+00  1.00800000E+00
  1.60000000E+01  1.00800000E+00  1.00800000E+00  1.60000000E+01  1.00800000E+00
  1.00800000E+00  1.60000000E+01  1.00800000E+00  1.00800000E+00  1.60000000E+01
  1.00800000E+00  1.00800000E+00  1.60000000E+01  1.00800000E+00  1.00800000E+00
  1.60000000E+01  1.00800000E+00  1.00800000E+00  1.60000000E+01  1.00800000E+00
  1.00800000E+00  1.60000000E+01  1.00800000E+00  1.00800000E+00  1.60000000E+01
  1.00800000E+00  1.00800000E+00  1.60000000E+01  1.00800000E+00  1.00800000E+00
  1.60000000E+01  1.00800000E+00  1.00800000E+00  1.60000000E+01  1.00800000E+00
  1.00800000E+00  1.60000000E+01  1.00800000E+00  1.00800000E+00  1.60000000E+01
  1.00800000E+00  1.00800000E+00  1.60000000E+01  1.00800000E+00  1.00800000E+00
  1.60000000E+01  1.00800000E+00  1.00800000E+00  1.60000000E+01  1.00800000E+00
  1.00800000E+00  1.60000000E+01  1.00800000E+00  1.00800000E+00  1.60000000E+01
  1.00800000E+00  1.00800000E+00  1.60000000E+01  1.00800000E+00  1.00800000E+00
  1.60000000E+01  1.00800000E+00  1.00800000E+00  1.60000000E+01  1.00800000E+00
  1.00800000E+00  1.60000000E+01  1.00800000E+00  1.00800000E+00  1.60000000E+01
  1.00800000E+00  1.00800000E+00  1.60000000E+01  1.00800000E+00  1.00800000E+00
  1.60000000E+01  1.00800000E+00  1.00800000E+00  1.60000000E+01  1.00800000E+00
  1.00800000E+00  1.60000000E+01  1.00800000E+00  1.00800000E+00  1.60000000E+01
  1.00800000E+00  1.00800000E+00  1.60000000E+01  1.00800000E+00  1.00800000E+00
  1.60000000E+01  1.00800000E+00  1.00800000E+00  1.60000000E+01  1.00800000E+00
  1.00800000E+00  1.60000000E+01  1.00800000E+00  1.00800000E+00  1.60000000E+01
  1.00800000E+00  1.00800000E+00  1.60000000E+01  1.00800000E+00  1.00800000E+00
  1.60000000E+01  1.00800000E+00  1.00800000E+00  1.60000000E+01  1.00800000E+00
  1.00800000E+00  1.60000000E+01  1.00800000E+00  1.00800000E+00  1.60000000E+01
  1.00800000E+00  1.00800000E+00  1.60000000E+01  1.00800000E+00  1.00800000E+00
  1.60000000E+01  1.00800000E+00  1.00800000E+00  1.60000000E+01  1.00800000E+00
  1.00800000E+00  1.60000000E+01  1.00800000E+00  1.00800000E+00  1.60000000E+01
  1.00800000E+00  1.00800000E+00  1.60000000E+01  1.00800000E+00  1.00800000E+00
  1.60000000E+01  1.00800000E+00  1.00800000E+00  1.60000000E+01  1.00800000E+00
  1.00800000E+00  1.60000000E+01  1.00800000E+00  1.00800000E+00  1.60000000E+01
  1.00800000E+00  1.00800000E+00  1.60000000E+01  1.00800000E+00  1.00800000E+00
  1.60000000E+01  1.00800000E+00  1.00800000E+00  1.60000000E+01  1.00800000E+00
  1.00800000E+00  1.60000000E+01  1.00800000E+00  1.00800000E+00  1.60000000E+01
  1.00800000E+00  1.00800000E+00  1.60000000E+01  1.00800000E+00  1.00800000E+00
  1.60000000E+01  1.00800000E+00  1.00800000E+00  1.60000000E+01  1.00800000E+00
  1.00800000E+00  1.60000000E+01  1.00800000E+00  1.00800000E+00  1.60000000E+01
  1.00800000E+00  1.00800000E+00  1.60000000E+01  1.00800000E+00  1.00800000E+00
  1.60000000E+01  1.00800000E+00  1.00800000E+00  1.60000000E+01  1.00800000E+00
  1.00800000E+00  1.60000000E+01  1.00800000E+00  1.00800000E+00  1.60000000E+01
  1.00800000E+00  1.00800000E+00  1.60000000E+01  1.00800000E+00  1.00800000E+00
  1.60000000E+01  1.00800000E+00  1.00800000E+00  1.60000000E+01  1.00800000E+00
  1.00800000E+00  1.60000000E+01  1.00800000E+00  1.00800000E+00  1.60000000E+01
  1.00800000E+00  1.00800000E+00  1.60000000E+01  1.00800000E+00  1.00800000E+00
  1.60000000E+01  1.00800000E+00  1.00800000E+00  1.60000000E+01  1.00800000E+00
  1.00800000E+00  1.60000000E+01  1.00800000E+00  1.00800000E+00  1.60000000E+01
  1.00800000E+00  1.00800000E+00  1.60000000E+01  1.00800000E+00  1.00800000E+00
  1.60000000E+01  1.00800000E+00  1.00800000E+00  1.60000000E+01  1.00800000E+00
  1.00800000E+00  1.60000000E+01  1.00800000E+00  1.00800000E+00  1.60000000E+01
  1.00800000E+00  1.00800000E+00  1.60000000E+01  1.00800000E+00  1.00800000E+00
  1.60000000E+01  1.00800000E+00  1.00800000E+00  1.60000000E+01  1.00800000E+00
  1.00800000E+00  1.60000000E+01  1.00800000E+00  1.00800000E+00  1.60000000E+01
  1.00800000E+00  1.00800000E+00  1.60000000E+01  1.00800000E+00  1.00800000E+00
  1.60000000E+01  1.00800000E+00  1.00800000E+00  1.60000000E+01  1.00800000E+00
  1.00800000E+00  1.60000000E+01  1.00800000E+00  1.00800000E+00  1.60000000E+01
  1.00800000E+00  1.00800000E+00  1.60000000E+01  1.00800000E+00  1.00800000E+00
  1.60000000E+01  1.00800000E+00  1.00800000E+00  1.60000000E+01  1.00800000E+00
  1.00800000E+00  1.60000000E+01  1.00800000E+00  1.00800000E+00  1.60000000E+01
  1.00800000E+00  1.00800000E+00  1.60000000E+01  1.00800000E+00  1.00800000E+00
  1.60000000E+01  1.00800000E+00  1.00800000E+00  1.60000000E+01  1.00800000E+00
  1.00800000E+00  1.60000000E+01  1.00800000E+00  1.00800000E+00  1.60000000E+01
  1.00800000E+00  1.00800000E+00  1.60000000E+01  1.00800000E+00  1.00800000E+00
  1.60000000E+01  1.00800000E+00  1.00800000E+00  1.60000000E+01  1.00800000E+00
  1.00800000E+00  1.60000000E+01  1.00800000E+00  1.00800000E+00  1.60000000E+01
  1.00800000E+00  1.00800000E+00  1.60000000E+01  1.00800000E+00  1.00800000E+00
  1.60000000E+01  1.00800000E+00  1.00800000E+00  1.60000000E+01  1.00800000E+00
  1.00800000E+00  1.60000000E+01  1.00800000E+00  1.00800000E+00  1.60000000E+01
  1.00800000E+00  1.00800000E+00  1.60000000E+01  1.00800000E+00  1.00800000E+00
  1.60000000E+01  1.00800000E+00  1.00800000E+00  1.60000000E+01  1.00800000E+00
  1.00800000E+00  1.60000000E+01  1.00800000E+00  1.00800000E+00  1.60000000E+01
  1.00800000E+00  1.00800000E+00  1.60000000E+01  1.00800000E+00  1.00800000E+00
  1.60000000E+01  1.00800000E+00  1.00800000E+00  1.60000000E+01  1.00800000E+00
  1.00800000E+00  1.60000000E+01  1.00800000E+00  1.00800000E+00  1.60000000E+01
  1.00800000E+00  1.00800000E+00  1.60000000E+01  1.00800000E+00  1.00800000E+00
  1.60000000E+01  1.00800000E+00  1.00800000E+00  1.60000000E+01  1.00800000E+00
  1.00800000E+00  1.60000000E+01  1.00800000E+00  1.00800000E+00  1.60000000E+01
  1.00800000E+00  1.00800000E+00  1.60000000E+01  1.00800000E+00  1.00800000E+00
  1.60000000E+01  1.00800000E+00  1.00800000E+00  1.60000000E+01  1.00800000E+00
  1.00800000E+00  1.60000000E+01  1.00800000E+00  1.00800000E+00  1.60000000E+01
  1.00800000E+00  1.00800000E+00  1.60000000E+01  1.00800000E+00  1.00800000E+00
  1.60000000E+01  1.00800000E+00  1.00800000E+00  1.60000000E+01  1.00800000E+00
  1.00800000E+00  1.60000000E+01  1.00800000E+00  1.00800000E+00  1.60000000E+01
  1.00800000E+00  1.00800000E+00  1.60000000E+01  1.00800000E+00  1.00800000E+00
  1.60000000E+01  1.00800000E+00  1.00800000E+00  1.60000000E+01  1.00800000E+00
  1.00800000E+00  1.60000000E+01  1.00800000E+00  1.00800000E+00  1.60000000E+01
  1.00800000E+00  1.00800000E+00  1.60000000E+01  1.00800000E+00  1.00800000E+00
  1.60000000E+01  1.00800000E+00  1.00800000E+00  1.60000000E+01  1.00800000E+00
  1.00800000E+00  1.60000000E+01  1.00800000E+00  1.00800000E+00  1.60000000E+01
  1.00800000E+00  1.00800000E+00  1.60000000E+01  1.00800000E+00  1.00800000E+00
  1.60000000E+01  1.00800000E+00  1.00800000E+00  1.60000000E+01  1.00800000E+00
  1.00800000E+00  1.60000000E+01  1.00800000E+00  1.00800000E+00  1.60000000E+01
  1.00800000E+00  1.00800000E+00  1.60000000E+01  1.00800000E+00  1.00800000E+00
  1.60000000E+01  1.00800000E+00  1.00800000E+00  1.60000000E+01  1.00800000E+00
  1.00800000E+00  1.60000000E+01  1.00800000E+00  1.00800000E+00  1.60000000E+01
  1.00800000E+00  1.00800000E+00  1.60000000E+01  1.00800000E+00  1.00800000E+00
  1.60000000E+01  1.00800000E+00  1.00800000E+00  1.60000000E+01  1.00800000E+00
  1.00800000E+00  1.60000000E+01  1.00800000E+00  1.00800000E+00  1.60000000E+01
  1.00800000E+00  1.00800000E+00  1.60000000E+01  1.00800000E+00  1.00800000E+00
  1.60000000E+01  1.00800000E+00  1.00800000E+00  1.60000000E+01  1.00800000E+00
  1.00800000E+00  1.60000000E+01  1.00800000E+00  1.00800000E+00  1.60000000E+01
  1.00800000E+00  1.00800000E+00  1.60000000E+01  1.00800000E+00  1.00800000E+00
  1.60000000E+01  1.00800000E+00  1.00800000E+00  1.60000000E+01  1.00800000E+00
  1.00800000E+00  1.60000000E+01  1.00800000E+00  1.00800000E+00  1.60000000E+01
  1.00800000E+00  1.00800000E+00  1.60000000E+01  1.00800000E+00  1.00800000E+00
  1.60000000E+01  1.00800000E+00  1.00800000E+00  1.60000000E+01  1.00800000E+00
  1.00800000E+00  1.60000000E+01  1.00800000E+00  1.00800000E+00  1.60000000E+01
  1.00800000E+00  1.00800000E+00  1.60000000E+01  1.00800000E+00  1.00800000E+00
  1.60000000E+01  1.00800000E+00  1.00800000E+00  1.60000000E+01  1.00800000E+00
  1.00800000E+00  1.60000000E+01  1.00800000E+00  1.00800000E+00  1.60000000E+01
  1.00800000E+00  1.00800000E+00  1.60000000E+01  1.00800000E+00  1.00800000E+00
  1.60000000E+01  1.00800000E+00  1.00800000E+00  1.60000000E+01  1.00800000E+00
  1.00800000E+00  1.60000000E+01  1.00800000E+00  1.00800000E+00  1.60000000E+01
  1.00800000E+00  1.00800000E+00  1.60000000E+01  1.00800000E+00  1.00800000E+00
  1.60000000E+01  1.00800000E+00  1.00800000E+00  1.60000000E+01  1.00800000E+00
  1.00800000E+00  1.60000000E+01  1.00800000E+00  1.00800000E+00  1.60000000E+01
  1.00800000E+00  1.00800000E+00  1.60000000E+01  1.00800000E+00  1.00800000E+00
  1.60000000E+01  1.00800000E+00  1.00800000E+00  1.60000000E+01  1.00800000E+00
  1.00800000E+00  1.60000000E+01  1.00800000E+00  1.00800000E+00  1.60000000E+01
  1.00800000E+00  1.00800000E+00  1.60000000E+01  1.00800000E+00  1.00800000E+00
  1.60000000E+01  1.00800000E+00  1.00800000E+00  1.60000000E+01  1.00800000E+00
  1.00800000E+00  1.60000000E+01  1.00800000E+00  1.00800000E+00  1.60000000E+01
  1.00800000E+00  1.00800000E+00  1.60000000E+01  1.00800000E+00  1.00800000E+00
  1.60000000E+01  1.00800000E+00  1.00800000E+00  1.60000000E+01  1.00800000E+00
  1.00800000E+00  1.60000000E+01  1.00800000E+00  1.00800000E+00  1.60000000E+01
  1.00800000E+00  1.00800000E+00  1.60000000E+01  1.00800000E+00  1.00800000E+00
  1.60000000E+01  1.00800000E+00  1.00800000E+00  1.60000000E+01  1.00800000E+00
  1.00800000E+00  1.60000000E+01  1.00800000E+00  1.00800000E+00  1.60000000E+01
  1.00800000E+00  1.00800000E+00  1.60000000E+01  1.00800000E+00  1.00800000E+00
  1.60000000E+01  1.00800000E+00  1.00800000E+00  1.60000000E+01  1.00800000E+00
  1.00800000E+00  1.60000000E+01  1.00800000E+00  1.00800000E+00  1.60000000E+01
  1.00800000E+00  1.00800000E+00  1.60000000E+01  1.00800000E+00  1.00800000E+00
  1.60000000E+01  1.00800000E+00  1.00800000E+00  1.60000000E+01  1.00800000E+00
  1.00800000E+00  1.60000000E+01  1.00800000E+00  1.00800000E+00  1.60000000E+01
  1.00800000E+00  1.00800000E+00  1.60000000E+01  1.00800000E+00  1.00800000E+00
  1.60000000E+01  1.00800000E+00  1.00800000E+00  1.60000000E+01  1.00800000E+00
  1.00800000E+00  1.60000000E+01  1.00800000E+00  1.00800000E+00  1.60000000E+01
  1.00800000E+00  1.00800000E+00  1.60000000E+01  1.00800000E+00  1.00800000E+00
  1.60000000E+01  1.00800000E+00  1.00800000E+00  1.60000000E+01  1.00800000E+00
  1.00800000E+00  1.60000000E+01  1.00800000E+00  1.00800000E+00  1.60000000E+01
  1.00800000E+00  1.00800000E+00  1.60000000E+01  1.00800000E+00  1.00800000E+00
  1.60000000E+01  1.00800000E+00  1.00800000E+00  1.60000000E+01  1.00800000E+00
  1.00800000E+00  1.60000000E+01  1.00800000E+00  1.00800000E+00  1.60000000E+01
  1.00800000E+00  1.00800000E+00  1.60000000E+01  1.00800000E+00  1.00800000E+00
  1.60000000E+01  1.00800000E+00  1.00800000E+00  1.60000000E+01  1.00800000E+00
  1.00800000E+00  1.60000000E+01  1.00800000E+00  1.00800000E+00  1.60000000E+01
  1.00800000E+00  1.00800000E+00  1.60000000E+01  1.00800000E+00  1.00800000E+00
  1.60000000E+01  1.00800000E+00  1.00800000E+00  1.60000000E+01  1.00800000E+00
  1.00800000E+00  1.60000000E+01  1.00800000E+00  1.00800000E+00  1.60000000E+01
  1.00800000E+00  1.00800000E+00  1.60000000E+01  1.00800000E+00  1.00800000E+00
  1.60000000E+01  1.00800000E+00  1.00800000E+00  1.60000000E+01  1.00800000E+00
  1.00800000E+00  1.60000000E+01  1.00800000E+00  1.00800000E+00  1.60000000E+01
  1.00800000E+00  1.00800000E+00  1.60000000E+01  1.00800000E+00  1.00800000E+00
  1.60000000E+01  1.00800000E+00  1.00800000E+00  1.60000000E+01  1.00800000E+00
  1.00800000E+00  1.60000000E+01  1.00800000E+00  1.00800000E+00  1.60000000E+01
  1.00800000E+00  1.00800000E+00  1.60000000E+01  1.00800000E+00  1.00800000E+00
  1.60000000E+01  1.00800000E+00  1.00800000E+00  1.60000000E+01  1.00800000E+00
  1.00800000E+00  1.60000000E+01  1.00800000E+00  1.00800000E+00  1.60000000E+01
  1.00800000E+00  1.00800000E+00  1.60000000E+01  1.00800000E+00  1.00800000E+00
  1.60000000E+01  1.00800000E+00  1.00800000E+00  1.60000000E+01  1.00800000E+00
  1.00800000E+00  1.60000000E+01  1.00800000E+00  1.00800000E+00  1.60000000E+01
  1.00800000E+00  1.00800000E+00  1.60000000E+01  1.00800000E+00  1.00800000E+00
  1.60000000E+01  1.00800000E+00  1.00800000E+00  1.60000000E+01  1.00800000E+00
  1.00800000E+00  1.60000000E+01  1.00800000E+00  1.00800000E+00  1.60000000E+01
  1.00800000E+00  1.00800000E+00  1.60000000E+01  1.00800000E+00  1.00800000E+00
  1.60000000E+01  1.00800000E+00  1.00800000E+00  1.60000000E+01  1.00800000E+00
  1.00800000E+00  1.60000000E+01  1.00800000E+00  1.00800000E+00  1.60000000E+01
  1.00800000E+00  1.00800000E+00  1.60000000E+01  1.00800000E+00  1.00800000E+00
  1.60000000E+01  1.00800000E+00  1.00800000E+00  1.60000000E+01  1.00800000E+00
  1.00800000E+00  1.60000000E+01  1.00800000E+00  1.00800000E+00  1.60000000E+01
  1.00800000E+00  1.00800000E+00  1.60000000E+01  1.00800000E+00  1.00800000E+00
  1.60000000E+01  1.00800000E+00  1.00800000E+00  1.60000000E+01  1.00800000E+00
  1.00800000E+00  1.60000000E+01  1.00800000E+00  1.00800000E+00  1.60000000E+01
  1.00800000E+00  1.00800000E+00  1.60000000E+01  1.00800000E+00  1.00800000E+00
  1.60000000E+01  1.00800000E+00  1.00800000E+00  1.60000000E+01  1.00800000E+00
  1.00800000E+00  1.60000000E+01  1.00800000E+00  1.00800000E+00  1.60000000E+01
  1.00800000E+00  1.00800000E+00  1.60000000E+01  1.00800000E+00  1.00800000E+00
  1.60000000E+01  1.00800000E+00  1.00800000E+00  1.60000000E+01  1.00800000E+00
  1.00800000E+00  1.60000000E+01  1.00800000E+00  1.00800000E+00  1.60000000E+01
  1.00800000E+00  1.00800000E+00  1.60000000E+01  1.00800000E+00  1.00800000E+00
  1.60000000E+01  1.00800000E+00  1.00800000E+00  1.60000000E+01  1.00800000E+00
  1.00800000E+00  1.60000000E+01  1.00800000E+00  1.00800000E+00  1.60000000E+01
  1.00800000E+00  1.00800000E+00  1.60000000E+01  1.00800000E+00  1.00800000E+00
  1.60000000E+01  1.00800000E+00  1.00800000E+00  1.60000000E+01  1.00800000E+00
  1.00800000E+00  1.60000000E+01  1.00800000E+00  1.00800000E+00  1.60000000E+01
  1.00800000E+00  1.00800000E+00  1.60000000E+01  1.00800000E+00  1.00800000E+00
  1.60000000E+01  1.00800000E+00  1.00800000E+00  1.60000000E+01  1.00800000E+00
  1.00800000E+00  1.60000000E+01  1.00800000E+00  1.00800000E+00  1.60000000E+01
  1.00800000E+00  1.00800000E+00  1.60000000E+01  1.00800000E+00  1.00800000E+00
  1.60000000E+01  1.00800000E+00  1.00800000E+00  1.60000000E+01  1.00800000E+00
  1.00800000E+00  1.60000000E+01  1.00800000E+00  1.00800000E+00  1.60000000E+01
  1.00800000E+00  1.00800000E+00  1.60000000E+01  1.00800000E+00  1.00800000E+00
  1.60000000E+01  1.00800000E+00  1.00800000E+00  1.60000000E+01  1.00800000E+00
  1.00800000E+00  1.60000000E+01  1.00800000E+00  1.00800000E+00  1.60000000E+01
  1.00800000E+00  1.00800000E+00  1.60000000E+01  1.00800000E+00  1.00800000E+00
  1.60000000E+01  1.00800000E+00  1.00800000E+00  1.60000000E+01  1.00800000E+00
  1.00800000E+00  1.60000000E+01  1.00800000E+00  1.00800000E+00  1.60000000E+01
  1.00800000E+00  1.00800000E+00  1.60000000E+01  1.00800000E+00  1.00800000E+00
  1.60000000E+01  1.00800000E+00  1.00800000E+00  1.60000000E+01  1.00800000E+00
  1.00800000E+00  1.60000000E+01  1.00800000E+00  1.00800000E+00  1.60000000E+01
  1.00800000E+00  1.00800000E+00  1.60000000E+01  1.00800000E+00  1.00800000E+00
  1.60000000E+01  1.00800000E+00  1.00800000E+00  1.60000000E+01  1.00800000E+00
  1.00800000E+00  1.60000000E+01  1.00800000E+00  1.00800000E+00  1.60000000E+01
  1.00800000E+00  1.00800000E+00  1.60000000E+01  1.00800000E+00  1.00800000E+00
  1.60000000E+01  1.00800000E+00  1.00800000E+00  1.60000000E+01  1.00800000E+00
  1.00800000E+00  1.60000000E+01  1.00800000E+00  1.00800000E+00  1.60000000E+01
  1.00800000E+00  1.00800000E+00  1.60000000E+01  1.00800000E+00  1.00800000E+00
  1.60000000E+01  1.00800000E+00  1.00800000E+00  1.60000000E+01  1.00800000E+00
  1.00800000E+00  1.60000000E+01  1.00800000E+00  1.00800000E+00  1.60000000E+01
  1.00800000E+00  1.00800000E+00  1.60000000E+01  1.00800000E+00  1.00800000E+00
  1.60000000E+01  1.00800000E+00  1.00800000E+00  1.60000000E+01  1.00800000E+00
  1.00800000E+00  1.60000000E+01  1.00800000E+00  1.00800000E+00  1.60000000E+01
  1.00800000E+00  1.00800000E+00  1.60000000E+01  1.00800000E+00  1.00800000E+00
  1.60000000E+01  1.00800000E+00  1.00800000E+00  1.60000000E+01  1.00800000E+00
  1.00800000E+00  1.60000000E+01  1.00800000E+00  1.00800000E+00  1.60000000E+01
  1.00800000E+00  1.00800000E+00  1.60000000E+01  1.00800000E+00  1.00800000E+00
  1.60000000E+01  1.00800000E+00  1.00800000E+00  1.60000000E+01  1.00800000E+00
  1.00800000E+00  1.60000000E+01  1.00800000E+00  1.00800000E+00  1.60000000E+01
  1.00800000E+00  1.00800000E+00  1.60000000E+01  1.00800000E+00  1.00800000E+00
  1.60000000E+01  1.00800000E+00  1.00800000E+00  1.60000000E+01  1.00800000E+00
  1.00800000E+00  1.60000000E+01  1.00800000E+00  1.00800000E+00  1.60000000E+01
  1.00800000E+00  1.00800000E+00  1.60000000E+01  1.00800000E+00  1.00800000E+00
  1.60000000E+01  1.00800000E+00  1.00800000E+00  1.60000000E+01  1.00800000E+00
  1.00800000E+00  1.60000000E+01  1.00800000E+00  1.00800000E+00  1.60000000E+01
  1.00800000E+00  1.00800000E+00  1.60000000E+01  1.00800000E+00  1.00800000E+00
  1.60000000E+01  1.00800000E+00  1.00800000E+00  1.60000000E+01  1.00800000E+00
  1.00800000E+00  1.60000000E+01  1.00800000E+00  1.00800000E+00  1.60000000E+01
  1.00800000E+00  1.00800000E+00  1.60000000E+01  1.00800000E+00  1.00800000E+00
  1.60000000E+01  1.00800000E+00  1.00800000E+00  1.60000000E+01  1.00800000E+00
  1.00800000E+00  1.60000000E+01  1.00800000E+00  1.00800000E+00  1.60000000E+01
  1.00800000E+00  1.00800000E+00  1.60000000E+01  1.00800000E+00  1.00800000E+00
  1.60000000E+01  1.00800000E+00  1.00800000E+00  1.60000000E+01  1.00800000E+00
  1.00800000E+00  1.60000000E+01  1.00800000E+00  1.00800000E+00  1.60000000E+01
  1.00800000E+00  1.00800000E+00  1.60000000E+01  1.00800000E+00  1.00800000E+00
  1.60000000E+01  1.00800000E+00  1.00800000E+00  1.60000000E+01  1.00800000E+00
  1.00800000E+00  1.60000000E+01  1.00800000E+00  1.00800000E+00  1.60000000E+01
  1.00800000E+00  1.00800000E+00  1.60000000E+01  1.00800000E+00  1.00800000E+00
  1.60000000E+01  1.00800000E+00  1.00800000E+00  1.60000000E+01  1.00800000E+00
  1.00800000E+00  1.60000000E+01  1.00800000E+00  1.00800000E+00  1.60000000E+01
  1.00800000E+00  1.00800000E+00  1.60000000E+01  1.00800000E+00  1.00800000E+00
  1.60000000E+01  1.00800000E+00  1.00800000E+00  1.60000000E+01  1.00800000E+00
  1.00800000E+00  1.60000000E+01  1.00800000E+00  1.00800000E+00  1.60000000E+01
  1.00800000E+00  1.00800000E+00  1.60000000E+01  1.00800000E+00  1.00800000E+00
  1.60000000E+01  1.00800000E+00  1.00800000E+00  1.60000000E+01  1.00800000E+00
  1.00800000E+00  1.60000000E+01  1.00800000E+00  1.00800000E+00  1.60000000E+01
  1.00800000E+00  1.00800000E+00  1.60000000E+01  1.00800000E+00  1.00800000E+00
  1.60000000E+01  1.00800000E+00  1.00800000E+00  1.60000000E+01  1.00800000E+00
  1.00800000E+00  1.60000000E+01  1.00800000E+00  1.00800000E+00  1.60000000E+01
  1.00800000E+00  1.00800000E+00  1.60000000E+01  1.00800000E+00  1.00800000E+00
  1.60000000E+01  1.00800000E+00  1.00800000E+00  1.60000000E+01  1.00800000E+00
  1.00800000E+00  1.60000000E+01  1.00800000E+00  1.00800000E+00  1.60000000E+01
  1.00800000E+00  1.00800000E+00  1.60000000E+01  1.00800000E+00  1.00800000E+00
  1.60000000E+01  1.00800000E+00  1.00800000E+00  1.60000000E+01  1.00800000E+00
  1.00800000E+00  1.60000000E+01  1.00800000E+00  1.00800000E+00  1.60000000E+01
  1.00800000E+00  1.00800000E+00  1.60000000E+01  1.00800000E+00  1.00800000E+00
  1.60000000E+01  1.00800000E+00  1.00800000E+00  1.60000000E+01  1.00800000E+00
  1.00800000E+00  1.60000000E+01  1.00800000E+00  1.00800000E+00  1.60000000E+01
  1.00800000E+00  1.00800000E+00  1.60000000E+01  1.00800000E+00  1.00800000E+00
  1.60000000E+01  1.00800000E+00  1.00800000E+00  1.60000000E+01  1.00800000E+00
  1.00800000E+00  1.60000000E+01  1.00800000E+00  1.00800000E+00  1.60000000E+01
  1.00800000E+00  1.00800000E+00  1.60000000E+01  1.00800000E+00  1.00800000E+00
  1.60000000E+01  1.00800000E+00  1.00800000E+00  1.60000000E+01  1.00800000E+00
  1.00800000E+00  1.60000000E+01  1.00800000E+00  1.00800000E+00  1.60000000E+01
  1.00800000E+00  1.00800000E+00  1.60000000E+01  1.00800000E+00  1.00800000E+00
  1.60000000E+01  1.00800000E+00  1.00800000E+00  1.60000000E+01  1.00800000E+00
  1.00800000E+00  1.60000000E+01  1.00800000E+00  1.00800000E+00  1.60000000E+01
  1.00800000E+00  1.00800000E+00  1.60000000E+01  1.00800000E+00  1.00800000E+00
  1.60000000E+01  1.00800000E+00  1.00800000E+00  1.60000000E+01  1.00800000E+00
  1.00800000E+00  1.60000000E+01  1.00800000E+00  1.00800000E+00  1.60000000E+01
  1.00800000E+00  1.00800000E+00  1.60000000E+01  1.00800000E+00  1.00800000E+00
  1.60000000E+01  1.00800000E+00  1.00800000E+00  1.60000000E+01  1.00800000E+00
  1.00800000E+00  1.60000000E+01  1.00800000E+00  1.00800000E+00  1.60000000E+01
  1.00800000E+00  1.00800000E+00  1.60000000E+01  1.00800000E+00  1.00800000E+00
  1.60000000E+01  1.00800000E+00  1.00800000E+00  1.60000000E+01  1.00800000E+00
  1.00800000E+00  1.60000000E+01  1.00800000E+00  1.00800000E+00  1.60000000E+01
  1.00800000E+00  1.00800000E+00  1.60000000E+01  1.00800000E+00  1.00800000E+00
  1.60000000E+01  1.00800000E+00  1.00800000E+00  1.60000000E+01  1.00800000E+00
  1.00800000E+00  1.60000000E+01  1.00800000E+00  1.00800000E+00  1.60000000E+01
  1.00800000E+00  1.00800000E+00  1.60000000E+01  1.00800000E+00  1.00800000E+00
  1.60000000E+01  1.00800000E+00  1.00800000E+00  1.60000000E+01  1.00800000E+00
  1.00800000E+00  1.60000000E+01  1.00800000E+00  1.00800000E+00  1.60000000E+01
  1.00800000E+00  1.00800000E+00  1.60000000E+01  1.00800000E+00  1.00800000E+00
  1.60000000E+01  1.00800000E+00  1.00800000E+00  1.60000000E+01  1.00800000E+00
  1.00800000E+00  1.60000000E+01  1.00800000E+00  1.00800000E+00  1.60000000E+01
  1.00800000E+00  1.00800000E+00  1.60000000E+01  1.00800000E+00  1.00800000E+00
  1.60000000E+01  1.00800000E+00  1.00800000E+00  1.60000000E+01  1.00800000E+00
  1.00800000E+00  1.60000000E+01  1.00800000E+00  1.00800000E+00  1.60000000E+01
  1.00800000E+00  1.00800000E+00  1.60000000E+01  1.00800000E+00  1.00800000E+00
  1.60000000E+01  1.00800000E+00  1.00800000E+00  1.60000000E+01  1.00800000E+00
  1.00800000E+00  1.60000000E+01  1.00800000E+00  1.00800000E+00  1.60000000E+01
  1.00800000E+00  1.00800000E+00  1.60000000E+01  1.00800000E+00  1.00800000E+00
  1.60000000E+01  1.00800000E+00  1.00800000E+00  1.60000000E+01  1.00800000E+00
  1.00800000E+00  1.60000000E+01  1.00800000E+00  1.00800000E+00  1.60000000E+01
  1.00800000E+00  1.00800000E+00  1.60000000E+01  1.00800000E+00  1.00800000E+00
  1.60000000E+01  1.00800000E+00  1.00800000E+00  1.60000000E+01  1.00800000E+00
  1.00800000E+00  1.60000000E+01  1.00800000E+00  1.00800000E+00  1.60000000E+01
  1.00800000E+00  1.00800000E+00  1.60000000E+01  1.00800000E+00  1.00800000E+00
  1.60000000E+01  1.00800000E+00  1.00800000E+00  1.60000000E+01  1.00800000E+00
  1.00800000E+00  1.60000000E+01  1.00800000E+00  1.00800000E+00  1.60000000E+01
  1.00800000E+00  1.00800000E+00  1.60000000E+01  1.00800000E+00  1.00800000E+00
  1.60000000E+01  1.00800000E+00  1.00800000E+00  1.60000000E+01  1.00800000E+00
  1.00800000E+00  1.60000000E+01  1.00800000E+00  1.00800000E+00  1.60000000E+01
  1.00800000E+00  1.00800000E+00  1.60000000E+01  1.00800000E+00  1.00800000E+00
  1.60000000E+01  1.00800000E+00  1.00800000E+00  1.60000000E+01  1.00800000E+00
  1.00800000E+00  1.60000000E+01  1.00800000E+00  1.00800000E+00  1.60000000E+01
  1.00800000E+00  1.00800000E+00  1.60000000E+01  1.00800000E+00  1.00800000E+00
  1.60000000E+01  1.00800000E+00  1.00800000E+00  1.60000000E+01  1.00800000E+00
  1.00800000E+00  1.60000000E+01  1.00800000E+00  1.00800000E+00  1.60000000E+01
  1.00800000E+00  1.00800000E+00  1.60000000E+01  1.00800000E+00  1.00800000E+00
  1.60000000E+01  1.00800000E+00  1.00800000E+00  1.60000000E+01  1.00800000E+00
  1.00800000E+00  1.60000000E+01  1.00800000E+00  1.00800000E+00  1.60000000E+01
  1.00800000E+00  1.00800000E+00  1.60000000E+01  1.00800000E+00  1.00800000E+00
  1.60000000E+01  1.00800000E+00  1.00800000E+00  1.60000000E+01  1.00800000E+00
  1.00800000E+00  1.60000000E+01  1.00800000E+00  1.00800000E+00  1.60000000E+01
  1.00800000E+00  1.00800000E+00  1.60000000E+01  1.00800000E+00  1.00800000E+00
  1.60000000E+01  1.00800000E+00  1.00800000E+00  1.60000000E+01  1.00800000E+00
  1.00800000E+00  1.60000000E+01  1.00800000E+00  1.00800000E+00  1.60000000E+01
  1.00800000E+00  1.00800000E+00  1.60000000E+01  1.00800000E+00  1.00800000E+00
  1.60000000E+01  1.00800000E+00  1.00800000E+00  1.60000000E+01  1.00800000E+00
  1.00800000E+00  1.60000000E+01  1.00800000E+00  1.00800000E+00  1.60000000E+01
  1.00800000E+00  1.00800000E+00  1.60000000E+01  1.00800000E+00  1.00800000E+00
  1.60000000E+01  1.00800000E+00  1.00800000E+00  1.60000000E+01  1.00800000E+00
  1.00800000E+00  1.60000000E+01  1.00800000E+00  1.00800000E+00  1.60000000E+01
  1.00800000E+00  1.00800000E+00  1.60000000E+01  1.00800000E+00  1.00800000E+00
  1.60000000E+01  1.00800000E+00  1.00800000E+00  1.60000000E+01  1.00800000E+00
  1.00800000E+00  1.60000000E+01  1.00800000E+00  1.00800000E+00  1.60000000E+01
  1.00800000E+00  1.00800000E+00  1.60000000E+01  1.00800000E+00  1.00800000E+00
  1.60000000E+01  1.00800000E+00  1.00800000E+00  1.60000000E+01  1.00800000E+00
  1.00800000E+00  1.60000000E+01  1.00800000E+00  1.00800000E+00  1.60000000E+01
  1.00800000E+00  1.00800000E+00  1.60000000E+01  1.00800000E+00  1.00800000E+00
  1.60000000E+01  1.00800000E+00  1.00800000E+00  1.60000000E+01  1.00800000E+00
  1.00800000E+00  1.60000000E+01  1.00800000E+00  1.00800000E+00  1.60000000E+01
  1.00800000E+00  1.00800000E+00  1.60000000E+01  1.00800000E+00  1.00800000E+00
  1.60000000E+01  1.00800000E+00  1.00800000E+00  1.60000000E+01  1.00800000E+00
  1.00800000E+00  1.60000000E+01  1.00800000E+00  1.00800000E+00  1.60000000E+01
  1.00800000E+00  1.00800000E+00  1.60000000E+01  1.00800000E+00  1.00800000E+00
  1.60000000E+01  1.00800000E+00  1.00800000E+00  1.60000000E+01  1.00800000E+00
  1.00800000E+00  1.60000000E+01  1.00800000E+00  1.00800000E+00  1.60000000E+01
  1.00800000E+00  1.00800000E+00  1.60000000E+01  1.00800000E+00  1.00800000E+00
  1.60000000E+01  1.00800000E+00  1.00800000E+00  1.60000000E+01  1.00800000E+00
  1.00800000E+00  1.60000000E+01  1.00800000E+00  1.00800000E+00  1.60000000E+01
  1.00800000E+00  1.00800000E+00  1.60000000E+01  1.00800000E+00  1.00800000E+00
  1.60000000E+01  1.00800000E+00  1.00800000E+00  1.60000000E+01  1.00800000E+00
  1.00800000E+00  1.60000000E+01  1.00800000E+00  1.00800000E+00  1.60000000E+01
  1.00800000E+00  1.00800000E+00  1.60000000E+01  1.00800000E+00  1.00800000E+00
  1.60000000E+01  1.00800000E+00  1.00800000E+00  1.60000000E+01  1.00800000E+00
  1.00800000E+00  1.60000000E+01  1.00800000E+00  1.00800000E+00  1.60000000E+01
  1.00800000E+00  1.00800000E+00  1.60000000E+01  1.00800000E+00  1.00800000E+00
  1.60000000E+01  1.00800000E+00  1.00800000E+00  1.60000000E+01  1.00800000E+00
  1.00800000E+00  1.60000000E+01  1.00800000E+00  1.00800000E+00  1.60000000E+01
  1.00800000E+00  1.00800000E+00  1.60000000E+01  1.00800000E+00  1.00800000E+00
  1.60000000E+01  1.00800000E+00  1.00800000E+00  1.60000000E+01  1.00800000E+00
  1.00800000E+00  1.60000000E+01  1.00800000E+00  1.00800000E+00  1.60000000E+01
  1.00800000E+00  1.00800000E+00  1.60000000E+01  1.00800000E+00  1.00800000E+00
  1.60000000E+01  1.00800000E+00  1.00800000E+00  1.60000000E+01  1.00800000E+00
  1.00800000E+00  1.60000000E+01  1.00800000E+00  1.00800000E+00  1.60000000E+01
  1.00800000E+00  1.00800000E+00  1.60000000E+01  1.00800000E+00  1.00800000E+00
  1.60000000E+01  1.00800000E+00  1.00800000E+00  1.60000000E+01  1.00800000E+00
  1.00800000E+00  1.60000000E+01  1.00800000E+00  1.00800000E+00  1.60000000E+01
  1.00800000E+00  1.00800000E+00  1.60000000E+01  1.00800000E+00  1.00800000E+00
  1.60000000E+01  1.00800000E+00  1.00800000E+00  1.60000000E+01  1.00800000E+00
  1.00800000E+00  1.60000000E+01  1.00800000E+00  1.00800000E+00  1.60000000E+01
  1.00800000E+00  1.00800000E+00  1.60000000E+01  1.00800000E+00  1.00800000E+00
  1.60000000E+01  1.00800000E+00  1.00800000E+00  1.60000000E+01  1.00800000E+00
  1.00800000E+00  1.60000000E+01  1.00800000E+00  1.00800000E+00  1.60000000E+01
  1.00800000E+00  1.00800000E+00  1.60000000E+01  1.00800000E+00  1.00800000E+00
  1.60000000E+01  1.00800000E+00  1.00800000E+00  1.60000000E+01  1.00800000E+00
  1.00800000E+00  1.60000000E+01  1.00800000E+00  1.00800000E+00  1.60000000E+01
  1.00800000E+00  1.00800000E+00  1.60000000E+01  1.00800000E+00  1.00800000E+00
  1.60000000E+01  1.00800000E+00  1.00800000E+00  1.60000000E+01  1.00800000E+00
  1.00800000E+00  1.60000000E+01  1.00800000E+00  1.00800000E+00  1.60000000E+01
  1.00800000E+00  1.00800000E+00  1.60000000E+01  1.00800000E+00  1.00800000E+00
  1.60000000E+01  1.00800000E+00  1.00800000E+00  1.60000000E+01  1.00800000E+00
  1.00800000E+00  1.60000000E+01  1.00800000E+00  1.00800000E+00  1.60000000E+01
  1.00800000E+00  1.00800000E+00  1.60000000E+01  1.00800000E+00  1.00800000E+00
  1.60000000E+01  1.00800000E+00  1.00800000E+00  1.60000000E+01  1.00800000E+00
  1.00800000E+00  1.60000000E+01  1.00800000E+00  1.00800000E+00  1.60000000E+01
  1.00800000E+00  1.00800000E+00  1.60000000E+01  1.00800000E+00  1.00800000E+00
  1.60000000E+01  1.00800000E+00  1.00800000E+00  1.60000000E+01  1.00800000E+00
  1.00800000E+00  1.60000000E+01  1.00800000E+00  1.00800000E+00  1.60000000E+01
  1.00800000E+00  1.00800000E+00  1.60000000E+01  1.00800000E+00  1.00800000E+00
  1.60000000E+01  1.00800000E+00  1.00800000E+00  1.60000000E+01  1.00800000E+00
  1.00800000E+00  1.60000000E+01  1.00800000E+00  1.00800000E+00  1.60000000E+01
  1.00800000E+00  1.00800000E+00  1.60000000E+01  1.00800000E+00  1.00800000E+00
  1.60000000E+01  1.00800000E+00  1.00800000E+00  1.60000000E+01  1.00800000E+00
  1.00800000E+00  1.60000000E+01  1.00800000E+00  1.00800000E+00  1.60000000E+01
  1.00800000E+00  1.00800000E+00  1.60000000E+01  1.00800000E+00  1.00800000E+00
  1.60000000E+01  1.00800000E+00  1.00800000E+00  1.60000000E+01  1.00800000E+00
  1.00800000E+00  1.60000000E+01  1.00800000E+00  1.00800000E+00  1.60000000E+01
  1.00800000E+00  1.00800000E+00  1.60000000E+01  1.00800000E+00  1.00800000E+00
  1.60000000E+01  1.00800000E+00  1.00800000E+00  1.60000000E+01  1.00800000E+00
  1.00800000E+00  1.60000000E+01  1.00800000E+00  1.00800000E+00  1.60000000E+01
  1.00800000E+00  1.00800000E+00  1.60000000E+01  1.00800000E+00  1.00800000E+00
  1.60000000E+01  1.00800000E+00  1.00800000E+00  1.60000000E+01  1.00800000E+00
  1.00800000E+00  1.60000000E+01  1.00800000E+00  1.00800000E+00  1.60000000E+01
  1.00800000E+00  1.00800000E+00  1.60000000E+01  1.00800000E+00  1.00800000E+00
  1.60000000E+01  1.00800000E+00  1.00800000E+00  1.60000000E+01  1.00800000E+00
  1.00800000E+00  1.60000000E+01  1.00800000E+00  1.00800000E+00  1.60000000E+01
  1.00800000E+00  1.00800000E+00  1.60000000E+01  1.00800000E+00  1.00800000E+00
  1.60000000E+01  1.00800000E+00  1.00800000E+00  1.60000000E+01  1.00800000E+00
  1.00800000E+00  1.60000000E+01  1.00800000E+00  1.00800000E+00  1.60000000E+01
  1.00800000E+00  1.00800000E+00  1.60000000E+01  1.00800000E+00  1.00800000E+00
  1.60000000E+01  1.00800000E+00  1.00800000E+00  1.60000000E+01  1.00800000E+00
  1.00800000E+00  1.60000000E+01  1.00800000E+00  1.00800000E+00  1.60000000E+01
  1.00800000E+00  1.00800000E+00  1.60000000E+01  1.00800000E+00  1.00800000E+00
  1.60000000E+01  1.00800000E+00  1.00800000E+00  1.60000000E+01  1.00800000E+00
  1.00800000E+00  1.60000000E+01  1.00800000E+00  1.00800000E+00  1.60000000E+01
  1.00800000E+00  1.00800000E+00  1.60000000E+01  1.00800000E+00  1.00800000E+00
  1.60000000E+01  1.00800000E+00  1.00800000E+00  1.60000000E+01  1.00800000E+00
  1.00800000E+00  1.60000000E+01  1.00800000E+00  1.00800000E+00  1.60000000E+01
  1.00800000E+00  1.00800000E+00  1.60000000E+01  1.00800000E+00  1.00800000E+00
  1.60000000E+01  1.00800000E+00  1.00800000E+00  1.60000000E+01  1.00800000E+00
  1.00800000E+00  1.60000000E+01  1.00800000E+00  1.00800000E+00  1.60000000E+01
  1.00800000E+00  1.00800000E+00  1.60000000E+01  1.00800000E+00  1.00800000E+00
  1.60000000E+01  1.00800000E+00  1.00800000E+00  1.60000000E+01  1.00800000E+00
  1.00800000E+00  1.60000000E+01  1.00800000E+00  1.00800000E+00  1.60000000E+01
  1.00800000E+00  1.00800000E+00  1.60000000E+01  1.00800000E+00  1.00800000E+00
  1.60000000E+01  1.00800000E+00  1.00800000E+00  1.60000000E+01  1.00800000E+00
  1.00800000E+00  1.60000000E+01  1.00800000E+00  1.00800000E+00  1.60000000E+01
  1.00800000E+00  1.00800000E+00  1.60000000E+01  1.00800000E+00  1.00800000E+00
  1.60000000E+01  1.00800000E+00  1.00800000E+00  1.60000000E+01  1.00800000E+00
  1.00800000E+00  1.60000000E+01  1.00800000E+00  1.00800000E+00  1.60000000E+01
  1.00800000E+00  1.00800000E+00  1.60000000E+01  1.00800000E+00  1.00800000E+00
  1.60000000E+01  1.00800000E+00  1.00800000E+00  1.60000000E+01  1.00800000E+00
  1.00800000E+00  1.60000000E+01  1.00800000E+00  1.00800000E+00  1.60000000E+01
  1.00800000E+00  1.00800000E+00  1.60000000E+01  1.00800000E+00  1.00800000E+00
  1.60000000E+01  1.00800000E+00  1.00800000E+00  1.60000000E+01  1.00800000E+00
  1.00800000E+00  1.60000000E+01  1.00800000E+00  1.00800000E+00  1.60000000E+01
  1.00800000E+00  1.00800000E+00  1.60000000E+01  1.00800000E+00  1.00800000E+00
  1.60000000E+01  1.00800000E+00  1.00800000E+00  1.60000000E+01  1.00800000E+00
  1.00800000E+00  1.60000000E+01  1.00800000E+00  1.00800000E+00  1.60000000E+01
  1.00800000E+00  1.00800000E+00  1.60000000E+01  1.00800000E+00  1.00800000E+00
  1.60000000E+01  1.00800000E+00  1.00800000E+00  1.60000000E+01  1.00800000E+00
  1.00800000E+00  1.60000000E+01  1.00800000E+00  1.00800000E+00  1.60000000E+01
  1.00800000E+00  1.00800000E+00  1.60000000E+01  1.00800000E+00  1.00800000E+00
  1.60000000E+01  1.00800000E+00  1.00800000E+00  1.60000000E+01  1.00800000E+00
  1.00800000E+00  1.60000000E+01  1.00800000E+00  1.00800000E+00  1.60000000E+01
  1.00800000E+00  1.00800000E+00  1.60000000E+01  1.00800000E+00  1.00800000E+00
  1.60000000E+01  1.00800000E+00  1.00800000E+00  1.60000000E+01  1.00800000E+00
  1.00800000E+00  1.60000000E+01  1.00800000E+00  1.00800000E+00  1.60000000E+01
  1.00800000E+00  1.00800000E+00  1.60000000E+01  1.00800000E+00  1.00800000E+00
  1.60000000E+01  1.00800000E+00  1.00800000E+00  1.60000000E+01  1.00800000E+00
  1.00800000E+00  1.60000000E+01  1.00800000E+00  1.00800000E+00  1.60000000E+01
  1.00800000E+00  1.00800000E+00  1.60000000E+01  1.00800000E+00  1.00800000E+00
  1.60000000E+01  1.00800000E+00  1.00800000E+00  1.60000000E+01  1.00800000E+00
  1.00800000E+00  1.60000000E+01  1.00800000E+00  1.00800000E+00  1.60000000E+01
  1.00800000E+00  1.00800000E+00  1.60000000E+01  1.00800000E+00  1.00800000E+00
  1.60000000E+01  1.00800000E+00  1.00800000E+00  1.60000000E+01  1.00800000E+00
  1.00800000E+00  1.60000000E+01  1.00800000E+00  1.00800000E+00  1.60000000E+01
  1.00800000E+00  1.00800000E+00  1.60000000E+01  1.00800000E+00  1.00800000E+00
  1.60000000E+01  1.00800000E+00  1.00800000E+00  1.60000000E+01  1.00800000E+00
  1.00800000E+00  1.60000000E+01  1.00800000E+00  1.00800000E+00  1.60000000E+01
  1.00800000E+00  1.00800000E+00  1.60000000E+01  1.00800000E+00  1.00800000E+00
  1.60000000E+01  1.00800000E+00  1.00800000E+00  1.60000000E+01  1.00800000E+00
  1.00800000E+00  1.60000000E+01  1.00800000E+00  1.00800000E+00  1.60000000E+01
  1.00800000E+00  1.00800000E+00  1.60000000E+01  1.00800000E+00  1.00800000E+00
  1.60000000E+01  1.00800000E+00  1.00800000E+00  1.60000000E+01  1.00800000E+00
  1.00800000E+00  1.60000000E+01  1.00800000E+00  1.00800000E+00  1.60000000E+01
  1.00800000E+00  1.00800000E+00  1.60000000E+01  1.00800000E+00  1.00800000E+00
  1.60000000E+01  1.00800000E+00  1.00800000E+00  1.60000000E+01  1.00800000E+00
  1.00800000E+00  1.60000000E+01  1.00800000E+00  1.00800000E+00  1.60000000E+01
  1.00800000E+00  1.00800000E+00  1.60000000E+01  1.00800000E+00  1.00800000E+00
  1.60000000E+01  1.00800000E+00  1.00800000E+00  1.60000000E+01  1.00800000E+00
  1.00800000E+00  1.60000000E+01  1.00800000E+00  1.00800000E+00  1.60000000E+01
  1.00800000E+00  1.00800000E+00  1.60000000E+01  1.00800000E+00  1.00800000E+00
  1.60000000E+01  1.00800000E+00  1.00800000E+00  1.60000000E+01  1.00800000E+00
  1.00800000E+00  1.60000000E+01  1.00800000E+00  1.00800000E+00  1.60000000E+01
  1.00800000E+00  1.00800000E+00  1.60000000E+01  1.00800000E+00  1.00800000E+00
  1.60000000E+01  1.00800000E+00  1.00800000E+00  1.60000000E+01  1.00800000E+00
  1.00800000E+00  1.60000000E+01  1.00800000E+00  1.00800000E+00  1.60000000E+01
  1.00800000E+00  1.00800000E+00  1.60000000E+01  1.00800000E+00  1.00800000E+00
  1.60000000E+01  1.00800000E+00  1.00800000E+00  1.60000000E+01  1.00800000E+00
  1.00800000E+00  1.60000000E+01  1.00800000E+00  1.00800000E+00  1.60000000E+01
  1.00800000E+00  1.00800000E+00  1.60000000E+01  1.00800000E+00  1.00800000E+00
  1.60000000E+01  1.00800000E+00  1.00800000E+00  1.60000000E+01  1.00800000E+00
  1.00800000E+00  1.60000000E+01  1.00800000E+00  1.00800000E+00  1.60000000E+01
  1.00800000E+00  1.00800000E+00  1.60000000E+01  1.00800000E+00  1.00800000E+00
  1.60000000E+01  1.00800000E+00  1.00800000E+00  1.60000000E+01  1.00800000E+00
  1.00800000E+00  1.60000000E+01  1.00800000E+00  1.00800000E+00  1.60000000E+01
  1.00800000E+00  1.00800000E+00  1.60000000E+01  1.00800000E+00  1.00800000E+00
  1.60000000E+01  1.00800000E+00  1.00800000E+00  1.60000000E+01  1.00800000E+00
  1.00800000E+00  1.60000000E+01  1.00800000E+00  1.00800000E+00  1.60000000E+01
  1.00800000E+00  1.00800000E+00  1.60000000E+01  1.00800000E+00  1.00800000E+00
  1.60000000E+01  1.00800000E+00  1.00800000E+00  1.60000000E+01  1.00800000E+00
  1.00800000E+00  1.60000000E+01  1.00800000E+00  1.00800000E+00  1.60000000E+01
  1.00800000E+00  1.00800000E+00  1.60000000E+01  1.00800000E+00  1.00800000E+00
  1.60000000E+01  1.00800000E+00  1.00800000E+00  1.60000000E+01  1.00800000E+00
  1.00800000E+00  1.60000000E+01  1.00800000E+00  1.00800000E+00  1.60000000E+01
  1.00800000E+00  1.00800000E+00  1.60000000E+01  1.00800000E+00  1.00800000E+00
  1.60000000E+01  1.00800000E+00  1.00800000E+00  1.60000000E+01  1.00800000E+00
  1.00800000E+00  1.60000000E+01  1.00800000E+00  1.00800000E+00  1.60000000E+01
  1.00800000E+00  1.00800000E+00  1.60000000E+01  1.00800000E+00  1.00800000E+00
  1.60000000E+01  1.00800000E+00  1.00800000E+00  1.60000000E+01  1.00800000E+00
  1.00800000E+00  1.60000000E+01  1.00800000E+00  1.00800000E+00  1.60000000E+01
  1.00800000E+00  1.00800000E+00  1.60000000E+01  1.00800000E+00  1.00800000E+00
  1.60000000E+01  1.00800000E+00  1.00800000E+00  1.60000000E+01  1.00800000E+00
  1.00800000E+00  1.60000000E+01  1.00800000E+00  1.00800000E+00  1.60000000E+01
  1.00800000E+00  1.00800000E+00  1.60000000E+01  1.00800000E+00  1.00800000E+00
  1.60000000E+01  1.00800000E+00  1.00800000E+00  1.60000000E+01  1.00800000E+00
  1.00800000E+00  1.60000000E+01  1.00800000E+00  1.00800000E+00  1.60000000E+01
  1.00800000E+00  1.00800000E+00  1.60000000E+01  1.00800000E+00  1.00800000E+00
  1.60000000E+01  1.00800000E+00  1.00800000E+00  1.60000000E+01  1.00800000E+00
  1.00800000E+00  1.60000000E+01  1.00800000E+00  1.00800000E+00  1.60000000E+01
  1.00800000E+00  1.00800000E+00  1.60000000E+01  1.00800000E+00  1.00800000E+00
  1.60000000E+01  1.00800000E+00  1.00800000E+00  1.60000000E+01  1.00800000E+00
  1.00800000E+00  1.60000000E+01  1.00800000E+00  1.00800000E+00  1.60000000E+01
  1.00800000E+00  1.00800000E+00  1.60000000E+01  1.00800000E+00  1.00800000E+00
  1.60000000E+01  1.00800000E+00  1.00800000E+00  1.60000000E+01  1.00800000E+00
  1.00800000E+00  1.60000000E+01  1.00800000E+00  1.00800000E+00  1.60000000E+01
  1.00800000E+00  1.00800000E+00  1.60000000E+01  1.00800000E+00  1.00800000E+00
  1.60000000E+01  1.00800000E+00  1.00800000E+00  1.60000000E+01  1.00800000E+00
  1.00800000E+00  1.60000000E+01  1.00800000E+00  1.00800000E+00  1.60000000E+01
  1.00800000E+00  1.00800000E+00  1.60000000E+01  1.00800000E+00  1.00800000E+00
  1.60000000E+01  1.00800000E+00  1.00800000E+00  1.60000000E+01  1.00800000E+00
  1.00800000E+00  1.60000000E+01  1.00800000E+00  1.00800000E+00  1.60000000E+01
  1.00800000E+00  1.00800000E+00  1.60000000E+01  1.00800000E+00  1.00800000E+00
  1.60000000E+01  1.00800000E+00  1.00800000E+00  1.60000000E+01  1.00800000E+00
  1.00800000E+00  1.60000000E+01  1.00800000E+00  1.00800000E+00  1.60000000E+01
  1.00800000E+00  1.00800000E+00  1.60000000E+01  1.00800000E+00  1.00800000E+00
  1.60000000E+01  1.00800000E+00  1.00800000E+00  1.60000000E+01  1.00800000E+00
  1.00800000E+00  1.60000000E+01  1.00800000E+00  1.00800000E+00  1.60000000E+01
  1.00800000E+00  1.00800000E+00  1.60000000E+01  1.00800000E+00  1.00800000E+00
  1.60000000E+01  1.00800000E+00  1.00800000E+00  1.60000000E+01  1.00800000E+00
  1.00800000E+00  1.60000000E+01  1.00800000E+00  1.00800000E+00  1.60000000E+01
  1.00800000E+00  1.00800000E+00  1.60000000E+01  1.00800000E+00  1.00800000E+00
  1.60000000E+01  1.00800000E+00  1.00800000E+00  1.60000000E+01  1.00800000E+00
  1.00800000E+00  1.60000000E+01  1.00800000E+00  1.00800000E+00  1.60000000E+01
  1.00800000E+00  1.00800000E+00  1.60000000E+01  1.00800000E+00  1.00800000E+00
  1.60000000E+01  1.00800000E+00  1.00800000E+00  1.60000000E+01  1.00800000E+00
  1.00800000E+00  1.60000000E+01  1.00800000E+00  1.00800000E+00  1.60000000E+01
  1.00800000E+00  1.00800000E+00  1.60000000E+01  1.00800000E+00  1.00800000E+00
  1.60000000E+01  1.00800000E+00  1.00800000E+00  1.60000000E+01  1.00800000E+00
  1.00800000E+00  1.60000000E+01  1.00800000E+00  1.00800000E+00  1.60000000E+01
  1.00800000E+00  1.00800000E+00  1.60000000E+01  1.00800000E+00  1.00800000E+00
  1.60000000E+01  1.00800000E+00  1.00800000E+00  1.60000000E+01  1.00800000E+00
  1.00800000E+00  1.60000000E+01  1.00800000E+00  1.00800000E+00  1.60000000E+01
  1.00800000E+00  1.00800000E+00  1.60000000E+01  1.00800000E+00  1.00800000E+00
  1.60000000E+01  1.00800000E+00  1.00800000E+00  1.60000000E+01  1.00800000E+00
  1.00800000E+00  1.60000000E+01  1.00800000E+00  1.00800000E+00  1.60000000E+01
  1.00800000E+00  1.00800000E+00  1.60000000E+01  1.00800000E+00  1.00800000E+00
  1.60000000E+01  1.00800000E+00  1.00800000E+00  1.60000000E+01  1.00800000E+00
  1.00800000E+00  1.60000000E+01  1.00800000E+00  1.00800000E+00  1.60000000E+01
  1.00800000E+00  1.00800000E+00  1.60000000E+01  1.00800000E+00  1.00800000E+00
  1.60000000E+01  1.00800000E+00  1.00800000E+00  1.60000000E+01  1.00800000E+00
  1.00800000E+00  1.60000000E+01  1.00800000E+00  1.00800000E+00  1.60000000E+01
  1.00800000E+00  1.00800000E+00  1.60000000E+01  1.00800000E+00  1.00800000E+00
  1.60000000E+01  1.00800000E+00  1.00800000E+00  1.60000000E+01  1.00800000E+00
  1.00800000E+00  1.60000000E+01  1.00800000E+00  1.00800000E+00  1.60000000E+01
  1.00800000E+00  1.00800000E+00  1.60000000E+01  1.00800000E+00  1.00800000E+00
  1.60000000E+01  1.00800000E+00  1.00800000E+00  1.60000000E+01  1.00800000E+00
  1.00800000E+00  1.60000000E+01  1.00800000E+00  1.00800000E+00  1.60000000E+01
  1.00800000E+00  1.00800000E+00  1.60000000E+01  1.00800000E+00  1.00800000E+00
  1.60000000E+01  1.00800000E+00  1.00800000E+00  1.60000000E+01  1.00800000E+00
  1.00800000E+00  1.60000000E+01  1.00800000E+00  1.00800000E+00  1.60000000E+01
  1.00800000E+00  1.00800000E+00  1.60000000E+01  1.00800000E+00  1.00800000E+00
  1.60000000E+01  1.00800000E+00  1.00800000E+00  1.60000000E+01  1.00800000E+00
  1.00800000E+00  1.60000000E+01  1.00800000E+00  1.00800000E+00  1.60000000E+01
  1.00800000E+00  1.00800000E+00  1.60000000E+01  1.00800000E+00  1.00800000E+00
  1.60000000E+01  1.00800000E+00  1.00800000E+00  1.60000000E+01  1.00800000E+00
  1.00800000E+00  1.60000000E+01  1.00800000E+00  1.00800000E+00  1.60000000E+01
  1.00800000E+00  1.00800000E+00  1.60000000E+01  1.00800000E+00  1.00800000E+00
  1.60000000E+01  1.00800000E+00  1.00800000E+00  1.60000000E+01  1.00800000E+00
  1.00800000E+00  1.60000000E+01  1.00800000E+00  1.00800000E+00  1.60000000E+01
  1.00800000E+00  1.00800000E+00  1.60000000E+01  1.00800000E+00  1.00800000E+00
  1.60000000E+01  1.00800000E+00  1.00800000E+00  1.60000000E+01  1.00800000E+00
  1.00800000E+00  1.60000000E+01  1.00800000E+00  1.00800000E+00  1.60000000E+01
  1.00800000E+00  1.00800000E+00  1.60000000E+01  1.00800000E+00  1.00800000E+00
  1.60000000E+01  1.00800000E+00  1.00800000E+00  1.60000000E+01  1.00800000E+00
  1.00800000E+00  1.60000000E+01  1.00800000E+00  1.00800000E+00  1.60000000E+01
  1.00800000E+00  1.00800000E+00  1.60000000E+01  1.00800000E+00  1.00800000E+00
  1.60000000E+01  1.00800000E+00  1.00800000E+00  1.60000000E+01  1.00800000E+00
  1.00800000E+00  1.60000000E+01  1.00800000E+00  1.00800000E+00  1.60000000E+01
  1.00800000E+00  1.00800000E+00  1.60000000E+01  1.00800000E+00  1.00800000E+00
  1.60000000E+01  1.00800000E+00  1.00800000E+00  1.60000000E+01  1.00800000E+00
  1.00800000E+00  1.60000000E+01  1.00800000E+00  1.00800000E+00  1.60000000E+01
  1.00800000E+00  1.00800000E+00  1.60000000E+01  1.00800000E+00  1.00800000E+00
  1.60000000E+01  1.00800000E+00  1.00800000E+00  1.60000000E+01  1.00800000E+00
  1.00800000E+00  1.60000000E+01  1.00800000E+00  1.00800000E+00  1.60000000E+01
  1.00800000E+00  1.00800000E+00  1.60000000E+01  1.00800000E+00  1.00800000E+00
  1.60000000E+01  1.00800000E+00  1.00800000E+00  1.60000000E+01  1.00800000E+00
  1.00800000E+00  1.60000000E+01  1.00800000E+00  1.00800000E+00  1.60000000E+01
  1.00800000E+00  1.00800000E+00  1.60000000E+01  1.00800000E+00  1.00800000E+00
  1.60000000E+01  1.00800000E+00  1.00800000E+00  1.60000000E+01  1.00800000E+00
  1.00800000E+00  1.60000000E+01  1.00800000E+00  1.00800000E+00  1.60000000E+01
  1.00800000E+00  1.00800000E+00  1.60000000E+01  1.00800000E+00  1.00800000E+00
  1.60000000E+01  1.00800000E+00  1.00800000E+00  1.60000000E+01  1.00800000E+00
  1.00800000E+00  1.60000000E+01  1.00800000E+00  1.00800000E+00  1.60000000E+01
  1.00800000E+00  1.00800000E+00  1.60000000E+01  1.00800000E+00  1.00800000E+00
  1.60000000E+01  1.00800000E+00  1.00800000E+00  1.60000000E+01  1.00800000E+00
  1.00800000E+00  1.60000000E+01  1.00800000E+00  1.00800000E+00  1.60000000E+01
  1.00800000E+00  1.00800000E+00  1.60000000E+01  1.00800000E+00  1.00800000E+00
  1.60000000E+01  1.00800000E+00  1.00800000E+00  1.60000000E+01  1.00800000E+00
  1.00800000E+00  1.60000000E+01  1.00800000E+00  1.00800000E+00  1.60000000E+01
  1.00800000E+00  1.00800000E+00  1.60000000E+01  1.00800000E+00  1.00800000E+00
  1.60000000E+01  1.00800000E+00  1.00800000E+00  1.60000000E+01  1.00800000E+00
  1.00800000E+00  1.60000000E+01  1.00800000E+00  1.00800000E+00  1.60000000E+01
  1.00800000E+00  1.00800000E+00  1.60000000E+01  1.00800000E+00  1.00800000E+00
  1.60000000E+01  1.00800000E+00  1.00800000E+00  1.60000000E+01  1.00800000E+00
  1.00800000E+00  1.60000000E+01  1.00800000E+00  1.00800000E+00  1.60000000E+01
  1.00800000E+00  1.00800000E+00  1.60000000E+01  1.00800000E+00  1.00800000E+00
  1.60000000E+01  1.00800000E+00  1.00800000E+00  1.60000000E+01  1.00800000E+00
  1.00800000E+00  1.60000000E+01  1.00800000E+00  1.00800000E+00  1.60000000E+01
  1.00800000E+00  1.00800000E+00  1.60000000E+01  1.00800000E+00  1.00800000E+00
  1.60000000E+01  1.00800000E+00  1.00800000E+00  1.60000000E+01  1.00800000E+00
  1.00800000E+00  1.60000000E+01  1.00800000E+00  1.00800000E+00  1.60000000E+01
  1.00800000E+00  1.00800000E+00  1.60000000E+01  1.00800000E+00  1.00800000E+00
  1.60000000E+01  1.00800000E+00  1.00800000E+00  1.60000000E+01  1.00800000E+00
  1.00800000E+00  1.60000000E+01  1.00800000E+00  1.00800000E+00  1.60000000E+01
  1.00800000E+00  1.00800000E+00  1.60000000E+01  1.00800000E+00  1.00800000E+00
  1.60000000E+01  1.00800000E+00  1.00800000E+00  1.60000000E+01  1.00800000E+00
  1.00800000E+00  1.60000000E+01  1.00800000E+00  1.00800000E+00  1.60000000E+01
  1.00800000E+00  1.00800000E+00  1.60000000E+01  1.00800000E+00  1.00800000E+00
  1.60000000E+01  1.00800000E+00  1.00800000E+00  1.60000000E+01  1.00800000E+00
  1.00800000E+00  1.60000000E+01  1.00800000E+00  1.00800000E+00  1.60000000E+01
  1.00800000E+00  1.00800000E+00  1.60000000E+01  1.00800000E+00  1.00800000E+00
  1.60000000E+01  1.00800000E+00  1.00800000E+00  1.60000000E+01  1.00800000E+00
  1.00800000E+00  1.60000000E+01  1.00800000E+00  1.00800000E+00  1.60000000E+01
  1.00800000E+00  1.00800000E+00  1.60000000E+01  1.00800000E+00  1.00800000E+00
  1.60000000E+01  1.00800000E+00  1.00800000E+00  1.60000000E+01  1.00800000E+00
  1.00800000E+00  1.60000000E+01  1.00800000E+00  1.00800000E+00  1.60000000E+01
  1.00800000E+00  1.00800000E+00  1.60000000E+01  1.00800000E+00  1.00800000E+00
  1.60000000E+01  1.00800000E+00  1.00800000E+00  1.60000000E+01  1.00800000E+00
  1.00800000E+00  1.60000000E+01  1.00800000E+00  1.00800000E+00  1.60000000E+01
  1.00800000E+00  1.00800000E+00  1.60000000E+01  1.00800000E+00  1.00800000E+00
  1.60000000E+01  1.00800000E+00  1.00800000E+00  1.60000000E+01  1.00800000E+00
  1.00800000E+00  1.60000000E+01  1.00800000E+00  1.00800000E+00  1.60000000E+01
  1.00800000E+00  1.00800000E+00  1.60000000E+01  1.00800000E+00  1.00800000E+00
  1.60000000E+01  1.00800000E+00  1.00800000E+00  1.60000000E+01  1.00800000E+00
  1.00800000E+00  1.60000000E+01  1.00800000E+00  1.00800000E+00  1.60000000E+01
  1.00800000E+00  1.00800000E+00  1.60000000E+01  1.00800000E+00  1.00800000E+00
  1.60000000E+01  1.00800000E+00  1.00800000E+00  1.60000000E+01  1.00800000E+00
  1.00800000E+00  1.60000000E+01  1.00800000E+00  1.00800000E+00  1.60000000E+01
  1.00800000E+00  1.00800000E+00  1.60000000E+01  1.00800000E+00  1.00800000E+00
  1.60000000E+01  1.00800000E+00  1.00800000E+00  1.60000000E+01  1.00800000E+00
  1.00800000E+00  1.60000000E+01  1.00800000E+00  1.00800000E+00  1.60000000E+01
  1.00800000E+00  1.00800000E+00  1.60000000E+01  1.00800000E+00  1.00800000E+00
  1.60000000E+01  1.00800000E+00  1.00800000E+00  1.60000000E+01  1.00800000E+00
  1.00800000E+00  1.60000000E+01  1.00800000E+00  1.00800000E+00  1.60000000E+01
  1.00800000E+00  1.00800000E+00  1.60000000E+01  1.00800000E+00  1.00800000E+00
  1.60000000E+01  1.00800000E+00  1.00800000E+00  1.60000000E+01  1.00800000E+00
  1.00800000E+00  1.60000000E+01  1.00800000E+00  1.00800000E+00  1.60000000E+01
  1.00800000E+00  1.00800000E+00  1.60000000E+01  1.00800000E+00  1.00800000E+00
  1.60000000E+01  1.00800000E+00  1.00800000E+00  1.60000000E+01  1.00800000E+00
  1.00800000E+00  1.60000000E+01  1.00800000E+00  1.00800000E+00  1.60000000E+01
  1.00800000E+00  1.00800000E+00  1.60000000E+01  1.00800000E+00  1.00800000E+00
  1.60000000E+01  1.00800000E+00  1.00800000E+00  1.60000000E+01  1.00800000E+00
  1.00800000E+00  1.60000000E+01  1.00800000E+00  1.00800000E+00  1.60000000E+01
  1.00800000E+00  1.00800000E+00  1.60000000E+01  1.00800000E+00  1.00800000E+00
  1.60000000E+01  1.00800000E+00  1.00800000E+00  1.60000000E+01  1.00800000E+00
  1.00800000E+00  1.60000000E+01  1.00800000E+00  1.00800000E+00  1.60000000E+01
  1.00800000E+00  1.00800000E+00  1.60000000E+01  1.00800000E+00  1.00800000E+00
  1.60000000E+01  1.00800000E+00  1.00800000E+00  1.60000000E+01  1.00800000E+00
  1.00800000E+00  1.60000000E+01  1.00800000E+00  1.00800000E+00  1.60000000E+01
  1.00800000E+00  1.00800000E+00  1.60000000E+01  1.00800000E+00  1.00800000E+00
  1.60000000E+01  1.00800000E+00  1.00800000E+00  1.60000000E+01  1.00800000E+00
  1.00800000E+00  1.60000000E+01  1.00800000E+00  1.00800000E+00  1.60000000E+01
  1.00800000E+00  1.00800000E+00  1.60000000E+01  1.00800000E+00  1.00800000E+00
  1.60000000E+01  1.00800000E+00  1.00800000E+00  1.60000000E+01  1.00800000E+00
  1.00800000E+00  1.60000000E+01  1.00800000E+00  1.00800000E+00  1.60000000E+01
  1.00800000E+00  1.00800000E+00  1.60000000E+01  1.00800000E+00  1.00800000E+00
  1.60000000E+01  1.00800000E+00  1.00800000E+00  1.60000000E+01  1.00800000E+00
  1.00800000E+00  1.60000000E+01  1.00800000E+00  1.00800000E+00  1.60000000E+01
  1.00800000E+00  1.00800000E+00  1.60000000E+01  1.00800000E+00  1.00800000E+00
  1.60000000E+01  1.00800000E+00  1.00800000E+00  1.60000000E+01  1.00800000E+00
  1.00800000E+00  1.60000000E+01  1.00800000E+00  1.00800000E+00  1.60000000E+01
  1.00800000E+00  1.00800000E+00  1.60000000E+01  1.00800000E+00  1.00800000E+00
  1.60000000E+01  1.00800000E+00  1.00800000E+00  1.60000000E+01  1.00800000E+00
  1.00800000E+00  1.60000000E+01  1.00800000E+00  1.00800000E+00  1.60000000E+01
  1.00800000E+00  1.00800000E+00  1.60000000E+01  1.00800000E+00  1.00800000E+00
  1.60000000E+01  1.00800000E+00  1.00800000E+00  1.60000000E+01  1.00800000E+00
  1.00800000E+00  1.60000000E+01  1.00800000E+00  1.00800000E+00  1.60000000E+01
  1.00800000E+00  1.00800000E+00  1.60000000E+01  1.00800000E+00  1.00800000E+00
  1.60000000E+01  1.00800000E+00  1.00800000E+00  1.60000000E+01  1.00800000E+00
  1.00800000E+00  1.60000000E+01  1.00800000E+00  1.00800000E+00  1.60000000E+01
  1.00800000E+00  1.00800000E+00  1.60000000E+01  1.00800000E+00  1.00800000E+00
  1.60000000E+01  1.00800000E+00  1.00800000E+00  1.60000000E+01  1.00800000E+00
  1.00800000E+00  1.60000000E+01  1.00800000E+00  1.00800000E+00  1.60000000E+01
  1.00800000E+00  1.00800000E+00  1.60000000E+01  1.00800000E+00  1.00800000E+00
  1.60000000E+01  1.00800000E+00  1.00800000E+00  1.60000000E+01  1.00800000E+00
  1.00800000E+00  1.60000000E+01  1.00800000E+00  1.00800000E+00  1.60000000E+01
  1.00800000E+00  1.00800000E+00  1.60000000E+01  1.00800000E+00  1.00800000E+00
  1.60000000E+01  1.00800000E+00  1.00800000E+00  1.60000000E+01  1.00800000E+00
  1.00800000E+00  1.60000000E+01  1.00800000E+00  1.00800000E+00  1.60000000E+01
  1.00800000E+00  1.00800000E+00  1.60000000E+01  1.00800000E+00  1.00800000E+00
  1.60000000E+01  1.00800000E+00  1.00800000E+00  1.60000000E+01  1.00800000E+00
  1.00800000E+00  1.60000000E+01  1.00800000E+00  1.00800000E+00  1.60000000E+01
  1.00800000E+00  1.00800000E+00  1.60000000E+01  1.00800000E+00  1.00800000E+00
  1.60000000E+01  1.00800000E+00  1.00800000E+00  1.60000000E+01  1.00800000E+00
  1.00800000E+00  1.60000000E+01  1.00800000E+00  1.00800000E+00  1.60000000E+01
  1.00800000E+00  1.00800000E+00  1.60000000E+01  1.00800000E+00  1.00800000E+00
  1.60000000E+01  1.00800000E+00  1.00800000E+00  1.60000000E+01  1.00800000E+00
  1.00800000E+00  1.60000000E+01  1.00800000E+00  1.00800000E+00  1.60000000E+01
  1.00800000E+00  1.00800000E+00  1.60000000E+01  1.00800000E+00  1.00800000E+00
  1.60000000E+01  1.00800000E+00  1.00800000E+00  1.60000000E+01  1.00800000E+00
  1.00800000E+00  1.60000000E+01  1.00800000E+00  1.00800000E+00  1.60000000E+01
  1.00800000E+00  1.00800000E+00  1.60000000E+01  1.00800000E+00  1.00800000E+00
  1.60000000E+01  1.00800000E+00  1.00800000E+00  1.60000000E+01  1.00800000E+00
  1.00800000E+00  1.60000000E+01  1.00800000E+00  1.00800000E+00  1.60000000E+01
  1.00800000E+00  1.00800000E+00  1.60000000E+01  1.00800000E+00  1.00800000E+00
  1.60000000E+01  1.00800000E+00  1.00800000E+00  1.60000000E+01  1.00800000E+00
  1.00800000E+00  1.60000000E+01  1.00800000E+00  1.00800000E+00  1.60000000E+01
  1.00800000E+00  1.00800000E+00  1.60000000E+01  1.00800000E+00  1.00800000E+00
  1.60000000E+01  1.00800000E+00  1.00800000E+00  1.60000000E+01  1.00800000E+00
  1.00800000E+00  1.60000000E+01  1.00800000E+00  1.00800000E+00  1.60000000E+01
  1.00800000E+00  1.00800000E+00  1.60000000E+01  1.00800000E+00  1.00800000E+00
  1.60000000E+01  1.00800000E+00  1.00800000E+00  1.60000000E+01  1.00800000E+00
  1.00800000E+00  1.60000000E+01  1.00800000E+00  1.00800000E+00  1.60000000E+01
  1.00800000E+00  1.00800000E+00  1.60000000E+01  1.00800000E+00  1.00800000E+00
  1.60000000E+01  1.00800000E+00  1.00800000E+00  1.60000000E+01  1.00800000E+00
  1.00800000E+00  1.60000000E+01  1.00800000E+00  1.00800000E+00  1.60000000E+01
  1.00800000E+00  1.00800000E+00  1.60000000E+01  1.00800000E+00  1.00800000E+00
  1.60000000E+01  1.00800000E+00  1.00800000E+00  1.60000000E+01  1.00800000E+00
  1.00800000E+00  1.60000000E+01  1.00800000E+00  1.00800000E+00  1.60000000E+01
  1.00800000E+00  1.00800000E+00  1.60000000E+01  1.00800000E+00  1.00800000E+00
  1.60000000E+01  1.00800000E+00  1.00800000E+00  1.60000000E+01  1.00800000E+00
  1.00800000E+00  1.60000000E+01  1.00800000E+00  1.00800000E+00  1.60000000E+01
  1.00800000E+00  1.00800000E+00  1.60000000E+01  1.00800000E+00  1.00800000E+00
  1.60000000E+01  1.00800000E+00  1.00800000E+00  1.60000000E+01  1.00800000E+00
  1.00800000E+00  1.60000000E+01  1.00800000E+00  1.00800000E+00  1.60000000E+01
  1.00800000E+00  1.00800000E+00  1.60000000E+01  1.00800000E+00  1.00800000E+00
  1.60000000E+01  1.00800000E+00  1.00800000E+00  1.60000000E+01  1.00800000E+00
  1.00800000E+00  1.60000000E+01  1.00800000E+00  1.00800000E+00  1.60000000E+01
  1.00800000E+00  1.00800000E+00  1.60000000E+01  1.00800000E+00  1.00800000E+00
  1.60000000E+01  1.00800000E+00  1.00800000E+00  1.60000000E+01  1.00800000E+00
  1.00800000E+00  1.60000000E+01  1.00800000E+00  1.00800000E+00  1.60000000E+01
  1.00800000E+00  1.00800000E+00  1.60000000E+01  1.00800000E+00  1.00800000E+00
  1.60000000E+01  1.00800000E+00  1.00800000E+00  1.60000000E+01  1.00800000E+00
  1.00800000E+00  1.60000000E+01  1.00800000E+00  1.00800000E+00  1.60000000E+01
  1.00800000E+00  1.00800000E+00  1.60000000E+01  1.00800000E+00  1.00800000E+00
  1.60000000E+01  1.00800000E+00  1.00800000E+00  1.60000000E+01  1.00800000E+00
  1.00800000E+00  1.60000000E+01  1.00800000E+00  1.00800000E+00  1.60000000E+01
  1.00800000E+00  1.00800000E+00  1.60000000E+01  1.00800000E+00  1.00800000E+00
  1.60000000E+01  1.00800000E+00  1.00800000E+00  1.60000000E+01  1.00800000E+00
  1.00800000E+00  1.60000000E+01  1.00800000E+00  1.00800000E+00  1.60000000E+01
  1.00800000E+00  1.00800000E+00  1.60000000E+01  1.00800000E+00  1.00800000E+00
  1.60000000E+01  1.00800000E+00  1.00800000E+00  1.60000000E+01  1.00800000E+00
  1.00800000E+00  1.60000000E+01  1.00800000E+00  1.00800000E+00  1.60000000E+01
  1.00800000E+00  1.00800000E+00  1.60000000E+01  1.00800000E+00  1.00800000E+00
  1.60000000E+01  1.00800000E+00  1.00800000E+00  1.60000000E+01  1.00800000E+00
  1.00800000E+00  1.60000000E+01  1.00800000E+00  1.00800000E+00  1.60000000E+01
  1.00800000E+00  1.00800000E+00  1.60000000E+01  1.00800000E+00  1.00800000E+00
  1.60000000E+01  1.00800000E+00  1.00800000E+00  1.60000000E+01  1.00800000E+00
  1.00800000E+00  1.60000000E+01  1.00800000E+00  1.00800000E+00  1.60000000E+01
  1.00800000E+00  1.00800000E+00  1.60000000E+01  1.00800000E+00  1.00800000E+00
  1.60000000E+01  1.00800000E+00  1.00800000E+00  1.60000000E+01  1.00800000E+00
  1.00800000E+00  1.60000000E+01  1.00800000E+00  1.00800000E+00  1.60000000E+01
  1.00800000E+00  1.00800000E+00  1.60000000E+01  1.00800000E+00  1.00800000E+00
  1.60000000E+01  1.00800000E+00  1.00800000E+00  1.60000000E+01  1.00800000E+00
  1.00800000E+00  1.60000000E+01  1.00800000E+00  1.00800000E+00  1.60000000E+01
  1.00800000E+00  1.00800000E+00  1.60000000E+01  1.00800000E+00  1.00800000E+00
  1.60000000E+01  1.00800000E+00  1.00800000E+00  1.60000000E+01  1.00800000E+00
  1.00800000E+00  1.60000000E+01  1.00800000E+00  1.00800000E+00  1.60000000E+01
  1.00800000E+00  1.00800000E+00  1.60000000E+01  1.00800000E+00  1.00800000E+00
  1.60000000E+01  1.00800000E+00  1.00800000E+00  1.60000000E+01  1.00800000E+00
  1.00800000E+00  1.60000000E+01  1.00800000E+00  1.00800000E+00  1.60000000E+01
  1.00800000E+00  1.00800000E+00  1.60000000E+01  1.00800000E+00  1.00800000E+00
  1.60000000E+01  1.00800000E+00  1.00800000E+00  1.60000000E+01  1.00800000E+00
  1.00800000E+00  1.60000000E+01  1.00800000E+00  1.00800000E+00  1.60000000E+01
  1.00800000E+00  1.00800000E+00  1.60000000E+01  1.00800000E+00  1.00800000E+00
  1.60000000E+01  1.00800000E+00  1.00800000E+00  1.60000000E+01  1.00800000E+00
  1.00800000E+00  1.60000000E+01  1.00800000E+00  1.00800000E+00  1.60000000E+01
  1.00800000E+00  1.00800000E+00  1.60000000E+01  1.00800000E+00  1.00800000E+00
  1.60000000E+01  1.00800000E+00  1.00800000E+00  1.60000000E+01  1.00800000E+00
  1.00800000E+00  1.60000000E+01  1.00800000E+00  1.00800000E+00  1.60000000E+01
  1.00800000E+00  1.00800000E+00  1.60000000E+01  1.00800000E+00  1.00800000E+00
  1.60000000E+01  1.00800000E+00  1.00800000E+00  1.60000000E+01  1.00800000E+00
  1.00800000E+00  1.60000000E+01  1.00800000E+00  1.00800000E+00  1.60000000E+01
  1.00800000E+00  1.00800000E+00  1.60000000E+01  1.00800000E+00  1.00800000E+00
  1.60000000E+01  1.00800000E+00  1.00800000E+00  1.60000000E+01  1.00800000E+00
  1.00800000E+00  1.60000000E+01  1.00800000E+00  1.00800000E+00  1.60000000E+01
  1.00800000E+00  1.00800000E+00  1.60000000E+01  1.00800000E+00  1.00800000E+00
  1.60000000E+01  1.00800000E+00  1.00800000E+00  1.60000000E+01  1.00800000E+00
  1.00800000E+00  1.60000000E+01  1.00800000E+00  1.00800000E+00  1.60000000E+01
  1.00800000E+00  1.00800000E+00  1.60000000E+01  1.00800000E+00  1.00800000E+00
  1.60000000E+01  1.00800000E+00  1.00800000E+00  1.60000000E+01  1.00800000E+00
  1.00800000E+00  1.60000000E+01  1.00800000E+00  1.00800000E+00  1.60000000E+01
  1.00800000E+00  1.00800000E+00  1.60000000E+01  1.00800000E+00  1.00800000E+00
  1.60000000E+01  1.00800000E+00  1.00800000E+00  1.60000000E+01  1.00800000E+00
  1.00800000E+00  1.60000000E+01  1.00800000E+00  1.00800000E+00  1.60000000E+01
  1.00800000E+00  1.00800000E+00  1.60000000E+01  1.00800000E+00  1.00800000E+00
  1.60000000E+01  1.00800000E+00  1.00800000E+00  1.60000000E+01  1.00800000E+00
  1.00800000E+00  1.60000000E+01  1.00800000E+00  1.00800000E+00  1.60000000E+01
  1.00800000E+00  1.00800000E+00  1.60000000E+01  1.00800000E+00  1.00800000E+00
  1.60000000E+01  1.00800000E+00  1.00800000E+00  1.60000000E+01  1.00800000E+00
  1.00800000E+00  1.60000000E+01  1.00800000E+00  1.00800000E+00  1.60000000E+01
  1.00800000E+00  1.00800000E+00  1.60000000E+01  1.00800000E+00  1.00800000E+00
  1.60000000E+01  1.00800000E+00  1.00800000E+00  1.60000000E+01  1.00800000E+00
  1.00800000E+00  1.60000000E+01  1.00800000E+00  1.00800000E+00  1.60000000E+01
  1.00800000E+00  1.00800000E+00  1.60000000E+01  1.00800000E+00  1.00800000E+00
  1.60000000E+01  1.00800000E+00  1.00800000E+00  1.60000000E+01  1.00800000E+00
  1.00800000E+00  1.60000000E+01  1.00800000E+00  1.00800000E+00  1.60000000E+01
  1.00800000E+00  1.00800000E+00  1.60000000E+01  1.00800000E+00  1.00800000E+00
  1.60000000E+01  1.00800000E+00  1.00800000E+00  1.60000000E+01  1.00800000E+00
  1.00800000E+00  1.60000000E+01  1.00800000E+00  1.00800000E+00  1.60000000E+01
  1.00800000E+00  1.00800000E+00  1.60000000E+01  1.00800000E+00  1.00800000E+00
  1.60000000E+01  1.00800000E+00  1.00800000E+00  1.60000000E+01  1.00800000E+00
  1.00800000E+00  1.60000000E+01  1.00800000E+00  1.00800000E+00  1.60000000E+01
  1.00800000E+00  1.00800000E+00  1.60000000E+01  1.00800000E+00  1.00800000E+00
  1.60000000E+01  1.00800000E+00  1.00800000E+00  1.60000000E+01  1.00800000E+00
  1.00800000E+00  1.60000000E+01  1.00800000E+00  1.00800000E+00  1.60000000E+01
  1.00800000E+00  1.00800000E+00  1.60000000E+01  1.00800000E+00  1.00800000E+00
  1.60000000E+01  1.00800000E+00  1.00800000E+00  1.60000000E+01  1.00800000E+00
  1.00800000E+00  1.60000000E+01  1.00800000E+00  1.00800000E+00  1.60000000E+01
  1.00800000E+00  1.00800000E+00  1.60000000E+01  1.00800000E+00  1.00800000E+00
  1.60000000E+01  1.00800000E+00  1.00800000E+00  1.60000000E+01  1.00800000E+00
  1.00800000E+00  1.60000000E+01  1.00800000E+00  1.00800000E+00  1.60000000E+01
  1.00800000E+00  1.00800000E+00  1.60000000E+01  1.00800000E+00  1.00800000E+00
  1.60000000E+01  1.00800000E+00  1.00800000E+00  1.60000000E+01  1.00800000E+00
  1.00800000E+00  1.60000000E+01  1.00800000E+00  1.00800000E+00  1.60000000E+01
  1.00800000E+00  1.00800000E+00  1.60000000E+01  1.00800000E+00  1.00800000E+00
  1.60000000E+01  1.00800000E+00  1.00800000E+00  1.60000000E+01  1.00800000E+00
  1.00800000E+00  1.60000000E+01  1.00800000E+00  1.00800000E+00  1.60000000E+01
  1.00800000E+00  1.00800000E+00  1.60000000E+01  1.00800000E+00  1.00800000E+00
  1.60000000E+01  1.00800000E+00  1.00800000E+00  1.60000000E+01  1.00800000E+00
  1.00800000E+00  1.60000000E+01  1.00800000E+00  1.00800000E+00  1.60000000E+01
  1.00800000E+00  1.00800000E+00  1.60000000E+01  1.00800000E+00  1.00800000E+00
  1.60000000E+01  1.00800000E+00  1.00800000E+00  1.60000000E+01  1.00800000E+00
  1.00800000E+00  1.60000000E+01  1.00800000E+00  1.00800000E+00  1.60000000E+01
  1.00800000E+00  1.00800000E+00  1.60000000E+01  1.00800000E+00  1.00800000E+00
  1.60000000E+01  1.00800000E+00  1.00800000E+00  1.60000000E+01  1.00800000E+00
  1.00800000E+00  1.60000000E+01  1.00800000E+00  1.00800000E+00  1.60000000E+01
  1.00800000E+00  1.00800000E+00  1.60000000E+01  1.00800000E+00  1.00800000E+00
  1.60000000E+01  1.00800000E+00  1.00800000E+00  1.60000000E+01  1.00800000E+00
  1.00800000E+00  1.60000000E+01  1.00800000E+00  1.00800000E+00  1.60000000E+01
  1.00800000E+00  1.00800000E+00  1.60000000E+01  1.00800000E+00  1.00800000E+00
  1.60000000E+01  1.00800000E+00  1.00800000E+00  1.60000000E+01  1.00800000E+00
  1.00800000E+00  1.60000000E+01  1.00800000E+00  1.00800000E+00  1.60000000E+01
  1.00800000E+00  1.00800000E+00  1.60000000E+01  1.00800000E+00  1.00800000E+00
  1.60000000E+01  1.00800000E+00  1.00800000E+00  1.60000000E+01  1.00800000E+00
  1.00800000E+00  1.60000000E+01  1.00800000E+00  1.00800000E+00  1.60000000E+01
  1.00800000E+00  1.00800000E+00  1.60000000E+01  1.00800000E+00  1.00800000E+00
  1.60000000E+01  1.00800000E+00  1.00800000E+00  1.60000000E+01  1.00800000E+00
  1.00800000E+00  1.60000000E+01  1.00800000E+00  1.00800000E+00  1.60000000E+01
  1.00800000E+00  1.00800000E+00  1.60000000E+01  1.00800000E+00  1.00800000E+00
  1.60000000E+01  1.00800000E+00  1.00800000E+00  1.60000000E+01  1.00800000E+00
  1.00800000E+00  1.60000000E+01  1.00800000E+00  1.00800000E+00  1.60000000E+01
  1.00800000E+00  1.00800000E+00  1.60000000E+01  1.00800000E+00  1.00800000E+00
  1.60000000E+01  1.00800000E+00  1.00800000E+00  1.60000000E+01  1.00800000E+00
  1.00800000E+00  1.60000000E+01  1.00800000E+00  1.00800000E+00  1.60000000E+01
  1.00800000E+00  1.00800000E+00  1.60000000E+01  1.00800000E+00  1.00800000E+00
  1.60000000E+01  1.00800000E+00  1.00800000E+00  1.60000000E+01  1.00800000E+00
  1.00800000E+00  1.60000000E+01  1.00800000E+00  1.00800000E+00  1.60000000E+01
  1.00800000E+00  1.00800000E+00  1.60000000E+01  1.00800000E+00  1.00800000E+00
  1.60000000E+01  1.00800000E+00  1.00800000E+00  1.60000000E+01  1.00800000E+00
  1.00800000E+00  1.60000000E+01  1.00800000E+00  1.00800000E+00  1.60000000E+01
  1.00800000E+00  1.00800000E+00  1.60000000E+01  1.00800000E+00  1.00800000E+00
  1.60000000E+01  1.00800000E+00  1.00800000E+00  1.60000000E+01  1.00800000E+00
  1.00800000E+00  1.60000000E+01  1.00800000E+00  1.00800000E+00  1.60000000E+01
  1.00800000E+00  1.00800000E+00  1.60000000E+01  1.00800000E+00  1.00800000E+00
  1.60000000E+01  1.00800000E+00  1.00800000E+00  1.60000000E+01  1.00800000E+00
  1.00800000E+00  1.60000000E+01  1.00800000E+00  1.00800000E+00  1.60000000E+01
  1.00800000E+00  1.00800000E+00  1.60000000E+01  1.00800000E+00  1.00800000E+00
  1.60000000E+01  1.00800000E+00  1.00800000E+00  1.60000000E+01  1.00800000E+00
  1.00800000E+00  1.60000000E+01  1.00800000E+00  1.00800000E+00  1.60000000E+01
  1.00800000E+00  1.00800000E+00  1.60000000E+01  1.00800000E+00  1.00800000E+00
  1.60000000E+01  1.00800000E+00  1.00800000E+00  1.60000000E+01  1.00800000E+00
  1.00800000E+00  1.60000000E+01  1.00800000E+00  1.00800000E+00  1.60000000E+01
  1.00800000E+00  1.00800000E+00  1.60000000E+01  1.00800000E+00  1.00800000E+00
  1.60000000E+01  1.00800000E+00  1.00800000E+00  1.60000000E+01  1.00800000E+00
  1.00800000E+00  1.60000000E+01  1.00800000E+00  1.00800000E+00  1.60000000E+01
  1.00800000E+00  1.00800000E+00  1.60000000E+01  1.00800000E+00  1.00800000E+00
  1.60000000E+01  1.00800000E+00  1.00800000E+00  1.60000000E+01  1.00800000E+00
  1.00800000E+00  1.60000000E+01  1.00800000E+00  1.00800000E+00  1.60000000E+01
  1.00800000E+00  1.00800000E+00  1.60000000E+01  1.00800000E+00  1.00800000E+00
  1.60000000E+01  1.00800000E+00  1.00800000E+00  1.60000000E+01  1.00800000E+00
  1.00800000E+00  1.60000000E+01  1.00800000E+00  1.00800000E+00  1.60000000E+01
  1.00800000E+00  1.00800000E+00  1.60000000E+01  1.00800000E+00  1.00800000E+00
  1.60000000E+01  1.00800000E+00  1.00800000E+00  1.60000000E+01  1.00800000E+00
  1.00800000E+00  1.60000000E+01  1.00800000E+00  1.00800000E+00  1.60000000E+01
  1.00800000E+00  1.00800000E+00  1.60000000E+01  1.00800000E+00  1.00800000E+00
  1.60000000E+01  1.00800000E+00  1.00800000E+00  1.60000000E+01  1.00800000E+00
  1.00800000E+00  1.60000000E+01  1.00800000E+00  1.00800000E+00  1.60000000E+01
  1.00800000E+00  1.00800000E+00  1.60000000E+01  1.00800000E+00  1.00800000E+00
  1.60000000E+01  1.00800000E+00  1.00800000E+00  1.60000000E+01  1.00800000E+00
  1.00800000E+00  1.60000000E+01  1.00800000E+00  1.00800000E+00  1.60000000E+01
  1.00800000E+00  1.00800000E+00  1.60000000E+01  1.00800000E+00  1.00800000E+00
  1.60000000E+01  1.00800000E+00  1.00800000E+00  1.60000000E+01  1.00800000E+00
  1.00800000E+00  1.60000000E+01  1.00800000E+00  1.00800000E+00  1.60000000E+01
  1.00800000E+00  1.00800000E+00  1.60000000E+01  1.00800000E+00  1.00800000E+00
  1.60000000E+01  1.00800000E+00  1.00800000E+00  1.60000000E+01  1.00800000E+00
  1.00800000E+00  1.60000000E+01  1.00800000E+00  1.00800000E+00  1.60000000E+01
  1.00800000E+00  1.00800000E+00  1.60000000E+01  1.00800000E+00  1.00800000E+00
  1.60000000E+01  1.00800000E+00  1.00800000E+00  1.60000000E+01  1.00800000E+00
  1.00800000E+00  1.60000000E+01  1.00800000E+00  1.00800000E+00  1.60000000E+01
  1.00800000E+00  1.00800000E+00  1.60000000E+01  1.00800000E+00  1.00800000E+00
  1.60000000E+01  1.00800000E+00  1.00800000E+00  1.60000000E+01  1.00800000E+00
  1.00800000E+00  1.60000000E+01  1.00800000E+00  1.00800000E+00  1.60000000E+01
  1.00800000E+00  1.00800000E+00  1.60000000E+01  1.00800000E+00  1.00800000E+00
  1.60000000E+01  1.00800000E+00  1.00800000E+00  1.60000000E+01  1.00800000E+00
  1.00800000E+00  1.60000000E+01  1.00800000E+00  1.00800000E+00  1.60000000E+01
  1.00800000E+00  1.00800000E+00  1.60000000E+01  1.00800000E+00  1.00800000E+00
  1.60000000E+01  1.00800000E+00  1.00800000E+00  1.60000000E+01  1.00800000E+00
  1.00800000E+00  1.60000000E+01  1.00800000E+00  1.00800000E+00  1.60000000E+01
  1.00800000E+00  1.00800000E+00  1.60000000E+01  1.00800000E+00  1.00800000E+00
  1.60000000E+01  1.00800000E+00  1.00800000E+00  1.60000000E+01  1.00800000E+00
  1.00800000E+00  1.60000000E+01  1.00800000E+00  1.00800000E+00  1.60000000E+01
  1.00800000E+00  1.00800000E+00  1.60000000E+01  1.00800000E+00  1.00800000E+00
  1.60000000E+01  1.00800000E+00  1.00800000E+00  1.60000000E+01  1.00800000E+00
  1.00800000E+00  1.60000000E+01  1.00800000E+00  1.00800000E+00  1.60000000E+01
  1.00800000E+00  1.00800000E+00  1.60000000E+01  1.00800000E+00  1.00800000E+00
  1.60000000E+01  1.00800000E+00  1.00800000E+00  1.60000000E+01  1.00800000E+00
  1.00800000E+00  1.60000000E+01  1.00800000E+00  1.00800000E+00  1.60000000E+01
  1.00800000E+00  1.00800000E+00  1.60000000E+01  1.00800000E+00  1.00800000E+00
  1.60000000E+01  1.00800000E+00  1.00800000E+00  1.60000000E+01  1.00800000E+00
  1.00800000E+00  1.60000000E+01  1.00800000E+00  1.00800000E+00  1.60000000E+01
  1.00800000E+00  1.00800000E+00  1.60000000E+01  1.00800000E+00  1.00800000E+00
  1.60000000E+01  1.00800000E+00  1.00800000E+00  1.60000000E+01  1.00800000E+00
  1.00800000E+00  1.60000000E+01  1.00800000E+00  1.00800000E+00  1.60000000E+01
  1.00800000E+00  1.00800000E+00  1.60000000E+01  1.00800000E+00  1.00800000E+00
  1.60000000E+01  1.00800000E+00  1.00800000E+00  1.60000000E+01  1.00800000E+00
  1.00800000E+00  1.60000000E+01  1.00800000E+00  1.00800000E+00  1.60000000E+01
  1.00800000E+00  1.00800000E+00  1.60000000E+01  1.00800000E+00  1.00800000E+00
  1.60000000E+01  1.00800000E+00  1.00800000E+00  1.60000000E+01  1.00800000E+00
  1.00800000E+00  1.60000000E+01  1.00800000E+00  1.00800000E+00  1.60000000E+01
  1.00800000E+00  1.00800000E+00  1.60000000E+01  1.00800000E+00  1.00800000E+00
  1.60000000E+01  1.00800000E+00  1.00800000E+00  1.60000000E+01  1.00800000E+00
  1.00800000E+00  1.60000000E+01  1.00800000E+00  1.00800000E+00  1.60000000E+01
  1.00800000E+00  1.00800000E+00  1.60000000E+01  1.00800000E+00  1.00800000E+00
  1.60000000E+01  1.00800000E+00  1.00800000E+00  1.60000000E+01  1.00800000E+00
  1.00800000E+00  1.60000000E+01  1.00800000E+00  1.00800000E+00  1.60000000E+01
  1.00800000E+00  1.00800000E+00  1.60000000E+01  1.00800000E+00  1.00800000E+00
  1.60000000E+01  1.00800000E+00  1.00800000E+00  1.60000000E+01  1.00800000E+00
  1.00800000E+00  1.60000000E+01  1.00800000E+00  1.00800000E+00  1.60000000E+01
  1.00800000E+00  1.00800000E+00  1.60000000E+01  1.00800000E+00  1.00800000E+00
  1.60000000E+01  1.00800000E+00  1.00800000E+00  1.60000000E+01  1.00800000E+00
  1.00800000E+00  1.60000000E+01  1.00800000E+00  1.00800000E+00  1.60000000E+01
  1.00800000E+00  1.00800000E+00  1.60000000E+01  1.00800000E+00  1.00800000E+00
  1.60000000E+01  1.00800000E+00  1.00800000E+00  1.60000000E+01  1.00800000E+00
  1.00800000E+00  1.60000000E+01  1.00800000E+00  1.00800000E+00  1.60000000E+01
  1.00800000E+00  1.00800000E+00  1.60000000E+01  1.00800000E+00  1.00800000E+00
  1.60000000E+01  1.00800000E+00  1.00800000E+00  1.60000000E+01  1.00800000E+00
  1.00800000E+00  1.60000000E+01  1.00800000E+00  1.00800000E+00  1.60000000E+01
  1.00800000E+00  1.00800000E+00  1.60000000E+01  1.00800000E+00  1.00800000E+00
  1.60000000E+01  1.00800000E+00  1.00800000E+00  1.60000000E+01  1.00800000E+00
  1.00800000E+00  1.60000000E+01  1.00800000E+00  1.00800000E+00  1.60000000E+01
  1.00800000E+00  1.00800000E+00  1.60000000E+01  1.00800000E+00  1.00800000E+00
  1.60000000E+01  1.00800000E+00  1.00800000E+00  1.60000000E+01  1.00800000E+00
  1.00800000E+00  1.60000000E+01  1.00800000E+00  1.00800000E+00  1.60000000E+01
  1.00800000E+00  1.00800000E+00  1.60000000E+01  1.00800000E+00  1.00800000E+00
  1.60000000E+01  1.00800000E+00  1.00800000E+00  1.60000000E+01  1.00800000E+00
  1.00800000E+00  1.60000000E+01  1.00800000E+00  1.00800000E+00  1.60000000E+01
  1.00800000E+00  1.00800000E+00  1.60000000E+01  1.00800000E+00  1.00800000E+00
  1.60000000E+01  1.00800000E+00  1.00800000E+00  1.60000000E+01  1.00800000E+00
  1.00800000E+00  1.60000000E+01  1.00800000E+00  1.00800000E+00  1.60000000E+01
  1.00800000E+00  1.00800000E+00  1.60000000E+01  1.00800000E+00  1.00800000E+00
  1.60000000E+01  1.00800000E+00  1.00800000E+00  1.60000000E+01  1.00800000E+00
  1.00800000E+00  1.60000000E+01  1.00800000E+00  1.00800000E+00  1.60000000E+01
  1.00800000E+00  1.00800000E+00  1.60000000E+01  1.00800000E+00  1.00800000E+00
  1.60000000E+01  1.00800000E+00  1.00800000E+00  1.60000000E+01  1.00800000E+00
  1.00800000E+00  1.60000000E+01  1.00800000E+00  1.00800000E+00  1.60000000E+01
  1.00800000E+00  1.00800000E+00  1.60000000E+01  1.00800000E+00  1.00800000E+00
  1.60000000E+01  1.00800000E+00  1.00800000E+00  1.60000000E+01  1.00800000E+00
  1.00800000E+00  1.60000000E+01  1.00800000E+00  1.00800000E+00  1.60000000E+01
  1.00800000E+00  1.00800000E+00  1.60000000E+01  1.00800000E+00  1.00800000E+00
  1.60000000E+01  1.00800000E+00  1.00800000E+00  1.60000000E+01  1.00800000E+00
  1.00800000E+00  1.60000000E+01  1.00800000E+00  1.00800000E+00  1.60000000E+01
  1.00800000E+00  1.00800000E+00  1.60000000E+01  1.00800000E+00  1.00800000E+00
  1.60000000E+01  1.00800000E+00  1.00800000E+00  1.60000000E+01  1.00800000E+00
  1.00800000E+00  1.60000000E+01  1.00800000E+00  1.00800000E+00  1.60000000E+01
  1.00800000E+00  1.00800000E+00  1.60000000E+01  1.00800000E+00  1.00800000E+00
  1.60000000E+01  1.00800000E+00  1.00800000E+00  1.60000000E+01  1.00800000E+00
  1.00800000E+00  1.60000000E+01  1.00800000E+00  1.00800000E+00  1.60000000E+01
  1.00800000E+00  1.00800000E+00  1.60000000E+01  1.00800000E+00  1.00800000E+00
  1.60000000E+01  1.00800000E+00  1.00800000E+00  1.60000000E+01  1.00800000E+00
  1.00800000E+00  1.60000000E+01  1.00800000E+00  1.00800000E+00  1.60000000E+01
  1.00800000E+00  1.00800000E+00  1.60000000E+01  1.00800000E+00  1.00800000E+00
  1.60000000E+01  1.00800000E+00  1.00800000E+00  1.60000000E+01  1.00800000E+00
  1.00800000E+00  1.60000000E+01  1.00800000E+00  1.00800000E+00  1.60000000E+01
  1.00800000E+00  1.00800000E+00  1.60000000E+01  1.00800000E+00  1.00800000E+00
  1.60000000E+01  1.00800000E+00  1.00800000E+00  1.60000000E+01  1.00800000E+00
  1.00800000E+00  1.60000000E+01  1.00800000E+00  1.00800000E+00  1.60000000E+01
  1.00800000E+00  1.00800000E+00  1.60000000E+01  1.00800000E+00  1.00800000E+00
  1.60000000E+01  1.00800000E+00  1.00800000E+00  1.60000000E+01  1.00800000E+00
  1.00800000E+00  1.60000000E+01  1.00800000E+00  1.00800000E+00  1.60000000E+01
  1.00800000E+00  1.00800000E+00  1.60000000E+01  1.00800000E+00  1.00800000E+00
  1.60000000E+01  1.00800000E+00  1.00800000E+00  1.60000000E+01  1.00800000E+00
  1.00800000E+00  1.60000000E+01  1.00800000E+00  1.00800000E+00  1.60000000E+01
  1.00800000E+00  1.00800000E+00  1.60000000E+01  1.00800000E+00  1.00800000E+00
  1.60000000E+01  1.00800000E+00  1.00800000E+00  1.60000000E+01  1.00800000E+00
  1.00800000E+00  1.60000000E+01  1.00800000E+00  1.00800000E+00  1.60000000E+01
  1.00800000E+00  1.00800000E+00  1.60000000E+01  1.00800000E+00  1.00800000E+00
  1.60000000E+01  1.00800000E+00  1.00800000E+00  1.60000000E+01  1.00800000E+00
  1.00800000E+00  1.60000000E+01  1.00800000E+00  1.00800000E+00  1.60000000E+01
  1.00800000E+00  1.00800000E+00  1.60000000E+01  1.00800000E+00  1.00800000E+00
  1.60000000E+01  1.00800000E+00  1.00800000E+00  1.60000000E+01  1.00800000E+00
  1.00800000E+00  1.60000000E+01  1.00800000E+00  1.00800000E+00  1.60000000E+01
  1.00800000E+00  1.00800000E+00  1.60000000E+01  1.00800000E+00  1.00800000E+00
  1.60000000E+01  1.00800000E+00  1.00800000E+00  1.60000000E+01  1.00800000E+00
  1.00800000E+00  1.60000000E+01  1.00800000E+00  1.00800000E+00  1.60000000E+01
  1.00800000E+00  1.00800000E+00  1.60000000E+01  1.00800000E+00  1.00800000E+00
  1.60000000E+01  1.00800000E+00  1.00800000E+00  1.60000000E+01  1.00800000E+00
  1.00800000E+00  1.60000000E+01  1.00800000E+00  1.00800000E+00  1.60000000E+01
  1.00800000E+00  1.00800000E+00  1.60000000E+01  1.00800000E+00  1.00800000E+00
  1.60000000E+01  1.00800000E+00  1.00800000E+00  1.60000000E+01  1.00800000E+00
  1.00800000E+00  1.60000000E+01  1.00800000E+00  1.00800000E+00  1.60000000E+01
  1.00800000E+00  1.00800000E+00  1.60000000E+01  1.00800000E+00  1.00800000E+00
  1.60000000E+01  1.00800000E+00  1.00800000E+00  1.60000000E+01  1.00800000E+00
  1.00800000E+00  1.60000000E+01  1.00800000E+00  1.00800000E+00  1.60000000E+01
  1.00800000E+00  1.00800000E+00  1.60000000E+01  1.00800000E+00  1.00800000E+00
  1.60000000E+01  1.00800000E+00  1.00800000E+00  1.60000000E+01  1.00800000E+00
  1.00800000E+00  1.60000000E+01  1.00800000E+00  1.00800000E+00  1.60000000E+01
  1.00800000E+00  1.00800000E+00  1.60000000E+01  1.00800000E+00  1.00800000E+00
  1.60000000E+01  1.00800000E+00  1.00800000E+00  1.60000000E+01  1.00800000E+00
  1.00800000E+00  1.60000000E+01  1.00800000E+00  1.00800000E+00  1.60000000E+01
  1.00800000E+00  1.00800000E+00  1.60000000E+01  1.00800000E+00  1.00800000E+00
  1.60000000E+01  1.00800000E+00  1.00800000E+00  1.60000000E+01  1.00800000E+00
  1.00800000E+00  1.60000000E+01  1.00800000E+00  1.00800000E+00  1.60000000E+01
  1.00800000E+00  1.00800000E+00  1.60000000E+01  1.00800000E+00  1.00800000E+00
  1.60000000E+01  1.00800000E+00  1.00800000E+00  1.60000000E+01  1.00800000E+00
  1.00800000E+00  1.60000000E+01  1.00800000E+00  1.00800000E+00  1.60000000E+01
  1.00800000E+00  1.00800000E+00  1.60000000E+01  1.00800000E+00  1.00800000E+00
  1.60000000E+01  1.00800000E+00  1.00800000E+00  1.60000000E+01  1.00800000E+00
  1.00800000E+00  1.60000000E+01  1.00800000E+00  1.00800000E+00  1.60000000E+01
  1.00800000E+00  1.00800000E+00  1.60000000E+01  1.00800000E+00  1.00800000E+00
  1.60000000E+01  1.00800000E+00  1.00800000E+00  1.60000000E+01  1.00800000E+00
  1.00800000E+00  1.60000000E+01  1.00800000E+00  1.00800000E+00  1.60000000E+01
  1.00800000E+00  1.00800000E+00  1.60000000E+01  1.00800000E+00  1.00800000E+00
  1.60000000E+01  1.00800000E+00  1.00800000E+00  1.60000000E+01  1.00800000E+00
  1.00800000E+00  1.60000000E+01  1.00800000E+00  1.00800000E+00  1.60000000E+01
  1.00800000E+00  1.00800000E+00  1.60000000E+01  1.00800000E+00  1.00800000E+00
  1.60000000E+01  1.00800000E+00  1.00800000E+00  1.60000000E+01  1.00800000E+00
  1.00800000E+00  1.60000000E+01  1.00800000E+00  1.00800000E+00  1.60000000E+01
  1.00800000E+00  1.00800000E+00  1.60000000E+01  1.00800000E+00  1.00800000E+00
  1.60000000E+01  1.00800000E+00  1.00800000E+00  1.60000000E+01  1.00800000E+00
  1.00800000E+00  1.60000000E+01  1.00800000E+00  1.00800000E+00  1.60000000E+01
  1.00800000E+00  1.00800000E+00  1.60000000E+01  1.00800000E+00  1.00800000E+00
  1.60000000E+01  1.00800000E+00  1.00800000E+00  1.60000000E+01  1.00800000E+00
  1.00800000E+00  1.60000000E+01  1.00800000E+00  1.00800000E+00  1.60000000E+01
  1.00800000E+00  1.00800000E+00  1.60000000E+01  1.00800000E+00  1.00800000E+00
  1.60000000E+01  1.00800000E+00  1.00800000E+00  1.60000000E+01  1.00800000E+00
  1.00800000E+00  1.60000000E+01  1.00800000E+00  1.00800000E+00  1.60000000E+01
  1.00800000E+00  1.00800000E+00  1.60000000E+01  1.00800000E+00  1.00800000E+00
  1.60000000E+01  1.00800000E+00  1.00800000E+00  1.60000000E+01  1.00800000E+00
  1.00800000E+00  1.60000000E+01  1.00800000E+00  1.00800000E+00  1.60000000E+01
  1.00800000E+00  1.00800000E+00  1.60000000E+01  1.00800000E+00  1.00800000E+00
  1.60000000E+01  1.00800000E+00  1.00800000E+00  1.60000000E+01  1.00800000E+00
  1.00800000E+00  1.60000000E+01  1.00800000E+00  1.00800000E+00  1.60000000E+01
  1.00800000E+00  1.00800000E+00  1.60000000E+01  1.00800000E+00  1.00800000E+00
  1.60000000E+01  1.00800000E+00  1.00800000E+00  1.60000000E+01  1.00800000E+00
  1.00800000E+00  1.60000000E+01  1.00800000E+00  1.00800000E+00  1.60000000E+01
  1.00800000E+00  1.00800000E+00  1.60000000E+01  1.00800000E+00  1.00800000E+00
  1.60000000E+01  1.00800000E+00  1.00800000E+00  1.60000000E+01  1.00800000E+00
  1.00800000E+00  1.60000000E+01  1.00800000E+00  1.00800000E+00  1.60000000E+01
  1.00800000E+00  1.00800000E+00  1.60000000E+01  1.00800000E+00  1.00800000E+00
  1.60000000E+01  1.00800000E+00  1.00800000E+00  1.60000000E+01  1.00800000E+00
  1.00800000E+00  1.60000000E+01  1.00800000E+00  1.00800000E+00  1.60000000E+01
  1.00800000E+00  1.00800000E+00  1.60000000E+01  1.00800000E+00  1.00800000E+00
  1.60000000E+01  1.00800000E+00  1.00800000E+00  1.60000000E+01  1.00800000E+00
  1.00800000E+00  1.60000000E+01  1.00800000E+00  1.00800000E+00  1.60000000E+01
  1.00800000E+00  1.00800000E+00  1.60000000E+01  1.00800000E+00  1.00800000E+00
  1.60000000E+01  1.00800000E+00  1.00800000E+00  1.60000000E+01  1.00800000E+00
  1.00800000E+00  1.60000000E+01  1.00800000E+00  1.00800000E+00  1.60000000E+01
  1.00800000E+00  1.00800000E+00  1.60000000E+01  1.00800000E+00  1.00800000E+00
  1.60000000E+01  1.00800000E+00  1.00800000E+00  1.60000000E+01  1.00800000E+00
  1.00800000E+00  1.60000000E+01  1.00800000E+00  1.00800000E+00  1.60000000E+01
  1.00800000E+00  1.00800000E+00  1.60000000E+01  1.00800000E+00  1.00800000E+00
  1.60000000E+01  1.00800000E+00  1.00800000E+00  1.60000000E+01  1.00800000E+00
  1.00800000E+00  1.60000000E+01  1.00800000E+00  1.00800000E+00  1.60000000E+01
  1.00800000E+00  1.00800000E+00  1.60000000E+01  1.00800000E+00  1.00800000E+00
  1.60000000E+01  1.00800000E+00  1.00800000E+00  1.60000000E+01  1.00800000E+00
  1.00800000E+00  1.60000000E+01  1.00800000E+00  1.00800000E+00  1.60000000E+01
  1.00800000E+00  1.00800000E+00  1.60000000E+01  1.00800000E+00  1.00800000E+00
  1.60000000E+01  1.00800000E+00  1.00800000E+00  1.60000000E+01  1.00800000E+00
  1.00800000E+00  1.60000000E+01  1.00800000E+00  1.00800000E+00  1.60000000E+01
  1.00800000E+00  1.00800000E+00  1.60000000E+01  1.00800000E+00  1.00800000E+00
  1.60000000E+01  1.00800000E+00  1.00800000E+00  1.60000000E+01  1.00800000E+00
  1.00800000E+00  1.60000000E+01  1.00800000E+00  1.00800000E+00  1.60000000E+01
  1.00800000E+00  1.00800000E+00  1.60000000E+01  1.00800000E+00  1.00800000E+00
  1.60000000E+01  1.00800000E+00  1.00800000E+00  1.60000000E+01  1.00800000E+00
  1.00800000E+00  1.60000000E+01  1.00800000E+00  1.00800000E+00  1.60000000E+01
  1.00800000E+00  1.00800000E+00  1.60000000E+01  1.00800000E+00  1.00800000E+00
  1.60000000E+01  1.00800000E+00  1.00800000E+00  1.60000000E+01  1.00800000E+00
  1.00800000E+00  1.60000000E+01  1.00800000E+00  1.00800000E+00  1.60000000E+01
  1.00800000E+00  1.00800000E+00  1.60000000E+01  1.00800000E+00  1.00800000E+00
  1.60000000E+01  1.00800000E+00  1.00800000E+00  1.60000000E+01  1.00800000E+00
  1.00800000E+00  1.60000000E+01  1.00800000E+00  1.00800000E+00  1.60000000E+01
  1.00800000E+00  1.00800000E+00  1.60000000E+01  1.00800000E+00  1.00800000E+00
  1.60000000E+01  1.00800000E+00  1.00800000E+00  1.60000000E+01  1.00800000E+00
  1.00800000E+00  1.60000000E+01  1.00800000E+00  1.00800000E+00  1.60000000E+01
  1.00800000E+00  1.00800000E+00  1.60000000E+01  1.00800000E+00  1.00800000E+00
  1.60000000E+01  1.00800000E+00  1.00800000E+00  1.60000000E+01  1.00800000E+00
  1.00800000E+00  1.60000000E+01  1.00800000E+00  1.00800000E+00  1.60000000E+01
  1.00800000E+00  1.00800000E+00  1.60000000E+01  1.00800000E+00  1.00800000E+00
  1.60000000E+01  1.00800000E+00  1.00800000E+00  1.60000000E+01  1.00800000E+00
  1.00800000E+00  1.60000000E+01  1.00800000E+00  1.00800000E+00  1.60000000E+01
  1.00800000E+00  1.00800000E+00  1.60000000E+01  1.00800000E+00  1.00800000E+00
  1.60000000E+01  1.00800000E+00  1.00800000E+00  1.60000000E+01  1.00800000E+00
  1.00800000E+00  1.60000000E+01  1.00800000E+00  1.00800000E+00  1.60000000E+01
  1.00800000E+00  1.00800000E+00  1.60000000E+01  1.00800000E+00  1.00800000E+00
  1.60000000E+01  1.00800000E+00  1.00800000E+00  1.60000000E+01  1.00800000E+00
  1.00800000E+00  1.60000000E+01  1.00800000E+00  1.00800000E+00  1.60000000E+01
  1.00800000E+00  1.00800000E+00  1.60000000E+01  1.00800000E+00  1.00800000E+00
  1.60000000E+01  1.00800000E+00  1.00800000E+00  1.60000000E+01  1.00800000E+00
  1.00800000E+00  1.60000000E+01  1.00800000E+00  1.00800000E+00  1.60000000E+01
  1.00800000E+00  1.00800000E+00  1.60000000E+01  1.00800000E+00  1.00800000E+00
  1.60000000E+01  1.00800000E+00  1.00800000E+00  1.60000000E+01  1.00800000E+00
  1.00800000E+00  1.60000000E+01  1.00800000E+00  1.00800000E+00  1.60000000E+01
  1.00800000E+00  1.00800000E+00  1.60000000E+01  1.00800000E+00  1.00800000E+00
  1.60000000E+01  1.00800000E+00  1.00800000E+00  1.60000000E+01  1.00800000E+00
  1.00800000E+00  1.60000000E+01  1.00800000E+00  1.00800000E+00  1.60000000E+01
  1.00800000E+00  1.00800000E+00  1.60000000E+01  1.00800000E+00  1.00800000E+00
  1.60000000E+01  1.00800000E+00  1.00800000E+00  1.60000000E+01  1.00800000E+00
  1.00800000E+00  1.60000000E+01  1.00800000E+00  1.00800000E+00  1.60000000E+01
  1.00800000E+00  1.00800000E+00  1.60000000E+01  1.00800000E+00  1.00800000E+00
  1.60000000E+01  1.00800000E+00  1.00800000E+00  1.60000000E+01  1.00800000E+00
  1.00800000E+00  1.60000000E+01  1.00800000E+00  1.00800000E+00  1.60000000E+01
  1.00800000E+00  1.00800000E+00  1.60000000E+01  1.00800000E+00  1.00800000E+00
  1.60000000E+01  1.00800000E+00  1.00800000E+00  1.60000000E+01  1.00800000E+00
  1.00800000E+00  1.60000000E+01  1.00800000E+00  1.00800000E+00  1.60000000E+01
  1.00800000E+00  1.00800000E+00  1.60000000E+01  1.00800000E+00  1.00800000E+00
  1.60000000E+01  1.00800000E+00  1.00800000E+00  1.60000000E+01  1.00800000E+00
  1.00800000E+00  1.60000000E+01  1.00800000E+00  1.00800000E+00  1.60000000E+01
  1.00800000E+00  1.00800000E+00  1.60000000E+01  1.00800000E+00  1.00800000E+00
  1.60000000E+01  1.00800000E+00  1.00800000E+00  1.60000000E+01  1.00800000E+00
  1.00800000E+00  1.60000000E+01  1.00800000E+00  1.00800000E+00  1.60000000E+01
  1.00800000E+00  1.00800000E+00  1.60000000E+01  1.00800000E+00  1.00800000E+00
  1.60000000E+01  1.00800000E+00  1.00800000E+00  1.60000000E+01  1.00800000E+00
  1.00800000E+00  1.60000000E+01  1.00800000E+00  1.00800000E+00  1.60000000E+01
  1.00800000E+00  1.00800000E+00  1.60000000E+01  1.00800000E+00  1.00800000E+00
  1.60000000E+01  1.00800000E+00  1.00800000E+00  1.60000000E+01  1.00800000E+00
  1.00800000E+00  1.60000000E+01  1.00800000E+00  1.00800000E+00  1.60000000E+01
  1.00800000E+00  1.00800000E+00  1.60000000E+01  1.00800000E+00  1.00800000E+00
  1.60000000E+01  1.00800000E+00  1.00800000E+00  1.60000000E+01  1.00800000E+00
  1.00800000E+00  1.60000000E+01  1.00800000E+00  1.00800000E+00  1.60000000E+01
  1.00800000E+00  1.00800000E+00  1.60000000E+01  1.00800000E+00  1.00800000E+00
  1.60000000E+01  1.00800000E+00  1.00800000E+00  1.60000000E+01  1.00800000E+00
  1.00800000E+00  1.60000000E+01  1.00800000E+00  1.00800000E+00  1.60000000E+01
  1.00800000E+00  1.00800000E+00  1.60000000E+01  1.00800000E+00  1.00800000E+00
  1.60000000E+01  1.00800000E+00  1.00800000E+00  1.60000000E+01  1.00800000E+00
  1.00800000E+00  1.60000000E+01  1.00800000E+00  1.00800000E+00  1.60000000E+01
  1.00800000E+00  1.00800000E+00  1.60000000E+01  1.00800000E+00  1.00800000E+00
  1.60000000E+01  1.00800000E+00  1.00800000E+00  1.60000000E+01  1.00800000E+00
  1.00800000E+00  1.60000000E+01  1.00800000E+00  1.00800000E+00  1.60000000E+01
  1.00800000E+00  1.00800000E+00  1.60000000E+01  1.00800000E+00  1.00800000E+00
  1.60000000E+01  1.00800000E+00  1.00800000E+00  1.60000000E+01  1.00800000E+00
  1.00800000E+00  1.60000000E+01  1.00800000E+00  1.00800000E+00  1.60000000E+01
  1.00800000E+00  1.00800000E+00  1.60000000E+01  1.00800000E+00  1.00800000E+00
  1.60000000E+01  1.00800000E+00  1.00800000E+00  1.60000000E+01  1.00800000E+00
  1.00800000E+00  1.60000000E+01  1.00800000E+00  1.00800000E+00  1.60000000E+01
  1.00800000E+00  1.00800000E+00  1.60000000E+01  1.00800000E+00  1.00800000E+00
  1.60000000E+01  1.00800000E+00  1.00800000E+00  1.60000000E+01  1.00800000E+00
  1.00800000E+00  1.60000000E+01  1.00800000E+00  1.00800000E+00  1.60000000E+01
  1.00800000E+00  1.00800000E+00  1.60000000E+01  1.00800000E+00  1.00800000E+00
  1.60000000E+01  1.00800000E+00  1.00800000E+00  1.60000000E+01  1.00800000E+00
  1.00800000E+00  1.60000000E+01  1.00800000E+00  1.00800000E+00  1.60000000E+01
  1.00800000E+00  1.00800000E+00  1.60000000E+01  1.00800000E+00  1.00800000E+00
  1.60000000E+01  1.00800000E+00  1.00800000E+00  1.60000000E+01  1.00800000E+00
  1.00800000E+00  1.60000000E+01  1.00800000E+00  1.00800000E+00  1.60000000E+01
  1.00800000E+00  1.00800000E+00  1.60000000E+01  1.00800000E+00  1.00800000E+00
  1.60000000E+01  1.00800000E+00  1.00800000E+00  1.60000000E+01  1.00800000E+00
  1.00800000E+00  1.60000000E+01  1.00800000E+00  1.00800000E+00  1.60000000E+01
  1.00800000E+00  1.00800000E+00  1.60000000E+01  1.00800000E+00  1.00800000E+00
  1.60000000E+01  1.00800000E+00  1.00800000E+00  1.60000000E+01  1.00800000E+00
  1.00800000E+00  1.60000000E+01  1.00800000E+00  1.00800000E+00  1.60000000E+01
  1.00800000E+00  1.00800000E+00  1.60000000E+01  1.00800000E+00  1.00800000E+00
  1.60000000E+01  1.00800000E+00  1.00800000E+00  1.60000000E+01  1.00800000E+00
  1.00800000E+00  1.60000000E+01  1.00800000E+00  1.00800000E+00  1.60000000E+01
  1.00800000E+00  1.00800000E+00  1.60000000E+01  1.00800000E+00  1.00800000E+00
  1.60000000E+01  1.00800000E+00  1.00800000E+00  1.60000000E+01  1.00800000E+00
  1.00800000E+00  1.60000000E+01  1.00800000E+00  1.00800000E+00  1.60000000E+01
  1.00800000E+00  1.00800000E+00  1.60000000E+01  1.00800000E+00  1.00800000E+00
  1.60000000E+01  1.00800000E+00  1.00800000E+00  1.60000000E+01  1.00800000E+00
  1.00800000E+00  1.60000000E+01  1.00800000E+00  1.00800000E+00  1.60000000E+01
  1.00800000E+00  1.00800000E+00  1.60000000E+01  1.00800000E+00  1.00800000E+00
  1.60000000E+01  1.00800000E+00  1.00800000E+00  1.60000000E+01  1.00800000E+00
  1.00800000E+00  1.60000000E+01  1.00800000E+00  1.00800000E+00  1.60000000E+01
  1.00800000E+00  1.00800000E+00  1.60000000E+01  1.00800000E+00  1.00800000E+00
  1.60000000E+01  1.00800000E+00  1.00800000E+00  1.60000000E+01  1.00800000E+00
  1.00800000E+00  1.60000000E+01  1.00800000E+00  1.00800000E+00  1.60000000E+01
  1.00800000E+00  1.00800000E+00  1.60000000E+01  1.00800000E+00  1.00800000E+00
  1.60000000E+01  1.00800000E+00  1.00800000E+00  1.60000000E+01  1.00800000E+00
  1.00800000E+00  1.60000000E+01  1.00800000E+00  1.00800000E+00  1.60000000E+01
  1.00800000E+00  1.00800000E+00  1.60000000E+01  1.00800000E+00  1.00800000E+00
  1.60000000E+01  1.00800000E+00  1.00800000E+00  1.60000000E+01  1.00800000E+00
  1.00800000E+00  1.60000000E+01  1.00800000E+00  1.00800000E+00  1.60000000E+01
  1.00800000E+00  1.00800000E+00  1.60000000E+01  1.00800000E+00  1.00800000E+00
  1.60000000E+01  1.00800000E+00  1.00800000E+00  1.60000000E+01  1.00800000E+00
  1.00800000E+00  1.60000000E+01  1.00800000E+00  1.00800000E+00  1.60000000E+01
  1.00800000E+00  1.00800000E+00  1.60000000E+01  1.00800000E+00  1.00800000E+00
  1.60000000E+01  1.00800000E+00  1.00800000E+00  1.60000000E+01  1.00800000E+00
  1.00800000E+00  1.60000000E+01  1.00800000E+00  1.00800000E+00  1.60000000E+01
  1.00800000E+00  1.00800000E+00  1.60000000E+01  1.00800000E+00  1.00800000E+00
  1.60000000E+01  1.00800000E+00  1.00800000E+00  1.60000000E+01  1.00800000E+00
  1.00800000E+00  1.60000000E+01  1.00800000E+00  1.00800000E+00  1.60000000E+01
  1.00800000E+00  1.00800000E+00  1.60000000E+01  1.00800000E+00  1.00800000E+00
  1.60000000E+01  1.00800000E+00  1.00800000E+00  1.60000000E+01  1.00800000E+00
  1.00800000E+00  1.60000000E+01  1.00800000E+00  1.00800000E+00  1.60000000E+01
  1.00800000E+00  1.00800000E+00  1.60000000E+01  1.00800000E+00  1.00800000E+00
  1.60000000E+01  1.00800000E+00  1.00800000E+00  1.60000000E+01  1.00800000E+00
  1.00800000E+00  1.60000000E+01  1.00800000E+00  1.00800000E+00  1.60000000E+01
  1.00800000E+00  1.00800000E+00  1.60000000E+01  1.00800000E+00  1.00800000E+00
  1.60000000E+01  1.00800000E+00  1.00800000E+00  1.60000000E+01  1.00800000E+00
  1.00800000E+00  1.60000000E+01  1.00800000E+00  1.00800000E+00  1.60000000E+01
  1.00800000E+00  1.00800000E+00  1.60000000E+01  1.00800000E+00  1.00800000E+00
  1.60000000E+01  1.00800000E+00  1.00800000E+00  1.60000000E+01  1.00800000E+00
  1.00800000E+00  1.60000000E+01  1.00800000E+00  1.00800000E+00  1.60000000E+01
  1.00800000E+00  1.00800000E+00  1.60000000E+01  1.00800000E+00  1.00800000E+00
  1.60000000E+01  1.00800000E+00  1.00800000E+00  1.60000000E+01  1.00800000E+00
  1.00800000E+00  1.60000000E+01  1.00800000E+00  1.00800000E+00  1.60000000E+01
  1.00800000E+00  1.00800000E+00  1.60000000E+01  1.00800000E+00  1.00800000E+00
  1.60000000E+01  1.00800000E+00  1.00800000E+00  1.60000000E+01  1.00800000E+00
  1.00800000E+00  1.60000000E+01  1.00800000E+00  1.00800000E+00  1.60000000E+01
  1.00800000E+00  1.00800000E+00  1.60000000E+01  1.00800000E+00  1.00800000E+00
  1.60000000E+01  1.00800000E+00  1.00800000E+00  1.60000000E+01  1.00800000E+00
  1.00800000E+00  1.60000000E+01  1.00800000E+00  1.00800000E+00  1.60000000E+01
  1.00800000E+00  1.00800000E+00  1.60000000E+01  1.00800000E+00  1.00800000E+00
  1.60000000E+01  1.00800000E+00  1.00800000E+00  1.60000000E+01  1.00800000E+00
  1.00800000E+00  1.60000000E+01  1.00800000E+00  1.00800000E+00  1.60000000E+01
  1.00800000E+00  1.00800000E+00  1.60000000E+01  1.00800000E+00  1.00800000E+00
  1.60000000E+01  1.00800000E+00  1.00800000E+00  1.60000000E+01  1.00800000E+00
  1.00800000E+00  1.60000000E+01  1.00800000E+00  1.00800000E+00  1.60000000E+01
  1.00800000E+00  1.00800000E+00  1.60000000E+01  1.00800000E+00  1.00800000E+00
  1.60000000E+01  1.00800000E+00  1.00800000E+00  1.60000000E+01  1.00800000E+00
  1.00800000E+00  1.60000000E+01  1.00800000E+00  1.00800000E+00  1.60000000E+01
  1.00800000E+00  1.00800000E+00  1.60000000E+01  1.00800000E+00  1.00800000E+00
  1.60000000E+01  1.00800000E+00  1.00800000E+00  1.60000000E+01  1.00800000E+00
  1.00800000E+00  1.60000000E+01  1.00800000E+00  1.00800000E+00  1.60000000E+01
  1.00800000E+00  1.00800000E+00  1.60000000E+01  1.00800000E+00  1.00800000E+00
  1.60000000E+01  1.00800000E+00  1.00800000E+00  1.60000000E+01  1.00800000E+00
  1.00800000E+00  1.60000000E+01  1.00800000E+00  1.00800000E+00  1.60000000E+01
  1.00800000E+00  1.00800000E+00  1.60000000E+01  1.00800000E+00  1.00800000E+00
  1.60000000E+01  1.00800000E+00  1.00800000E+00  1.60000000E+01  1.00800000E+00
  1.00800000E+00  1.60000000E+01  1.00800000E+00  1.00800000E+00  1.60000000E+01
  1.00800000E+00  1.00800000E+00  1.60000000E+01  1.00800000E+00  1.00800000E+00
  1.60000000E+01  1.00800000E+00  1.00800000E+00  1.60000000E+01  1.00800000E+00
  1.00800000E+00  1.60000000E+01  1.00800000E+00  1.00800000E+00  1.60000000E+01
  1.00800000E+00  1.00800000E+00  1.60000000E+01  1.00800000E+00  1.00800000E+00
  1.60000000E+01  1.00800000E+00  1.00800000E+00  1.60000000E+01  1.00800000E+00
  1.00800000E+00  1.60000000E+01  1.00800000E+00  1.00800000E+00  1.60000000E+01
  1.00800000E+00  1.00800000E+00  1.60000000E+01  1.00800000E+00  1.00800000E+00
  1.60000000E+01  1.00800000E+00  1.00800000E+00  1.60000000E+01  1.00800000E+00
  1.00800000E+00  1.60000000E+01  1.00800000E+00  1.00800000E+00  1.60000000E+01
  1.00800000E+00  1.00800000E+00  1.60000000E+01  1.00800000E+00  1.00800000E+00
  1.60000000E+01  1.00800000E+00  1.00800000E+00  1.60000000E+01  1.00800000E+00
  1.00800000E+00  1.60000000E+01  1.00800000E+00  1.00800000E+00  1.60000000E+01
  1.00800000E+00  1.00800000E+00  1.60000000E+01  1.00800000E+00  1.00800000E+00
  1.60000000E+01  1.00800000E+00  1.00800000E+00  1.60000000E+01  1.00800000E+00
  1.00800000E+00  1.60000000E+01  1.00800000E+00  1.00800000E+00  1.60000000E+01
  1.00800000E+00  1.00800000E+00  1.60000000E+01  1.00800000E+00  1.00800000E+00
  1.60000000E+01  1.00800000E+00  1.00800000E+00  1.60000000E+01  1.00800000E+00
  1.00800000E+00  1.60000000E+01  1.00800000E+00  1.00800000E+00  1.60000000E+01
  1.00800000E+00  1.00800000E+00  1.60000000E+01  1.00800000E+00  1.00800000E+00
  1.60000000E+01  1.00800000E+00  1.00800000E+00  1.60000000E+01  1.00800000E+00
  1.00800000E+00  1.60000000E+01  1.00800000E+00  1.00800000E+00  1.60000000E+01
  1.00800000E+00  1.00800000E+00  1.60000000E+01  1.00800000E+00  1.00800000E+00
  1.60000000E+01  1.00800000E+00  1.00800000E+00  1.60000000E+01  1.00800000E+00
  1.00800000E+00  1.60000000E+01  1.00800000E+00  1.00800000E+00  1.60000000E+01
  1.00800000E+00  1.00800000E+00  1.60000000E+01  1.00800000E+00  1.00800000E+00
  1.60000000E+01  1.00800000E+00  1.00800000E+00  1.60000000E+01  1.00800000E+00
  1.00800000E+00  1.60000000E+01  1.00800000E+00  1.00800000E+00  1.60000000E+01
  1.00800000E+00  1.00800000E+00  1.60000000E+01  1.00800000E+00  1.00800000E+00
  1.60000000E+01  1.00800000E+00  1.00800000E+00  1.60000000E+01  1.00800000E+00
  1.00800000E+00  1.60000000E+01  1.00800000E+00  1.00800000E+00  1.60000000E+01
  1.00800000E+00  1.00800000E+00  1.60000000E+01  1.00800000E+00  1.00800000E+00
  1.60000000E+01  1.00800000E+00  1.00800000E+00  1.60000000E+01  1.00800000E+00
  1.00800000E+00  1.60000000E+01  1.00800000E+00  1.00800000E+00  1.60000000E+01
  1.00800000E+00  1.00800000E+00  1.60000000E+01  1.00800000E+00  1.00800000E+00
  1.60000000E+01  1.00800000E+00  1.00800000E+00  1.60000000E+01  1.00800000E+00
  1.00800000E+00  1.60000000E+01  1.00800000E+00  1.00800000E+00  1.60000000E+01
  1.00800000E+00  1.00800000E+00  1.60000000E+01  1.00800000E+00  1.00800000E+00
  1.60000000E+01  1.00800000E+00  1.00800000E+00  1.60000000E+01  1.00800000E+00
  1.00800000E+00  1.60000000E+01  1.00800000E+00  1.00800000E+00  1.60000000E+01
  1.00800000E+00  1.00800000E+00  1.60000000E+01  1.00800000E+00  1.00800000E+00
  1.60000000E+01  1.00800000E+00  1.00800000E+00  1.60000000E+01  1.00800000E+00
  1.00800000E+00  1.60000000E+01  1.00800000E+00  1.00800000E+00  1.60000000E+01
  1.00800000E+00  1.00800000E+00  1.60000000E+01  1.00800000E+00  1.00800000E+00
  1.60000000E+01  1.00800000E+00  1.00800000E+00  1.60000000E+01  1.00800000E+00
  1.00800000E+00  1.60000000E+01  1.00800000E+00  1.00800000E+00  1.60000000E+01
  1.00800000E+00  1.00800000E+00  1.60000000E+01  1.00800000E+00  1.00800000E+00
  1.60000000E+01  1.00800000E+00  1.00800000E+00  1.60000000E+01  1.00800000E+00
  1.00800000E+00  1.60000000E+01  1.00800000E+00  1.00800000E+00  1.60000000E+01
  1.00800000E+00  1.00800000E+00  1.60000000E+01  1.00800000E+00  1.00800000E+00
  1.60000000E+01  1.00800000E+00  1.00800000E+00  1.60000000E+01  1.00800000E+00
  1.00800000E+00  1.60000000E+01  1.00800000E+00  1.00800000E+00  1.60000000E+01
  1.00800000E+00  1.00800000E+00  1.60000000E+01  1.00800000E+00  1.00800000E+00
  1.60000000E+01  1.00800000E+00  1.00800000E+00  1.60000000E+01  1.00800000E+00
  1.00800000E+00  1.60000000E+01  1.00800000E+00  1.00800000E+00  1.60000000E+01
  1.00800000E+00  1.00800000E+00  1.60000000E+01  1.00800000E+00  1.00800000E+00
  1.60000000E+01  1.00800000E+00  1.00800000E+00  1.60000000E+01  1.00800000E+00
  1.00800000E+00  1.60000000E+01  1.00800000E+00  1.00800000E+00  1.60000000E+01
  1.00800000E+00  1.00800000E+00  1.60000000E+01  1.00800000E+00  1.00800000E+00
  1.60000000E+01  1.00800000E+00  1.00800000E+00  1.60000000E+01  1.00800000E+00
  1.00800000E+00  1.60000000E+01  1.00800000E+00  1.00800000E+00  1.60000000E+01
  1.00800000E+00  1.00800000E+00  1.60000000E+01  1.00800000E+00  1.00800000E+00
  1.60000000E+01  1.00800000E+00  1.00800000E+00  1.60000000E+01  1.00800000E+00
  1.00800000E+00  1.60000000E+01  1.00800000E+00  1.00800000E+00  1.60000000E+01
  1.00800000E+00  1.00800000E+00  1.60000000E+01  1.00800000E+00  1.00800000E+00
  1.60000000E+01  1.00800000E+00  1.00800000E+00  1.60000000E+01  1.00800000E+00
  1.00800000E+00  1.60000000E+01  1.00800000E+00  1.00800000E+00  1.60000000E+01
  1.00800000E+00  1.00800000E+00  1.60000000E+01  1.00800000E+00  1.00800000E+00
  1.60000000E+01  1.00800000E+00  1.00800000E+00  1.60000000E+01  1.00800000E+00
  1.00800000E+00  1.60000000E+01  1.00800000E+00  1.00800000E+00  1.60000000E+01
  1.00800000E+00  1.00800000E+00  1.60000000E+01  1.00800000E+00  1.00800000E+00
  1.60000000E+01  1.00800000E+00  1.00800000E+00  1.60000000E+01  1.00800000E+00
  1.00800000E+00  1.60000000E+01  1.00800000E+00  1.00800000E+00  1.60000000E+01
  1.00800000E+00  1.00800000E+00  1.60000000E+01  1.00800000E+00  1.00800000E+00
  1.60000000E+01  1.00800000E+00  1.00800000E+00  1.60000000E+01  1.00800000E+00
  1.00800000E+00  1.60000000E+01  1.00800000E+00  1.00800000E+00  1.60000000E+01
  1.00800000E+00  1.00800000E+00  1.60000000E+01  1.00800000E+00  1.00800000E+00
  1.60000000E+01  1.00800000E+00  1.00800000E+00  1.60000000E+01  1.00800000E+00
  1.00800000E+00  1.60000000E+01  1.00800000E+00  1.00800000E+00  1.60000000E+01
  1.00800000E+00  1.00800000E+00  1.60000000E+01  1.00800000E+00  1.00800000E+00
  1.60000000E+01  1.00800000E+00  1.00800000E+00  1.60000000E+01  1.00800000E+00
  1.00800000E+00  1.60000000E+01  1.00800000E+00  1.00800000E+00  1.60000000E+01
  1.00800000E+00  1.00800000E+00  1.60000000E+01  1.00800000E+00  1.00800000E+00
  1.60000000E+01  1.00800000E+00  1.00800000E+00  1.60000000E+01  1.00800000E+00
  1.00800000E+00  1.60000000E+01  1.00800000E+00  1.00800000E+00  1.60000000E+01
  1.00800000E+00  1.00800000E+00  1.60000000E+01  1.00800000E+00  1.00800000E+00
  1.60000000E+01  1.00800000E+00  1.00800000E+00  1.60000000E+01  1.00800000E+00
  1.00800000E+00  1.60000000E+01  1.00800000E+00  1.00800000E+00  1.60000000E+01
  1.00800000E+00  1.00800000E+00  1.60000000E+01  1.00800000E+00  1.00800000E+00
  1.60000000E+01  1.00800000E+00  1.00800000E+00  1.60000000E+01  1.00800000E+00
  1.00800000E+00  1.60000000E+01  1.00800000E+00  1.00800000E+00  1.60000000E+01
  1.00800000E+00  1.00800000E+00  1.60000000E+01  1.00800000E+00  1.00800000E+00
  1.60000000E+01  1.00800000E+00  1.00800000E+00  1.60000000E+01  1.00800000E+00
  1.00800000E+00  1.60000000E+01  1.00800000E+00  1.00800000E+00  1.60000000E+01
  1.00800000E+00  1.00800000E+00  1.60000000E+01  1.00800000E+00  1.00800000E+00
  1.60000000E+01  1.00800000E+00  1.00800000E+00  1.60000000E+01  1.00800000E+00
  1.00800000E+00  1.60000000E+01  1.00800000E+00  1.00800000E+00  1.60000000E+01
  1.00800000E+00  1.00800000E+00  1.60000000E+01  1.00800000E+00  1.00800000E+00
  1.60000000E+01  1.00800000E+00  1.00800000E+00  1.60000000E+01  1.00800000E+00
  1.00800000E+00  1.60000000E+01  1.00800000E+00  1.00800000E+00  1.60000000E+01
  1.00800000E+00  1.00800000E+00  1.60000000E+01  1.00800000E+00  1.00800000E+00
  1.60000000E+01  1.00800000E+00  1.00800000E+00  1.60000000E+01  1.00800000E+00
  1.00800000E+00  1.60000000E+01  1.00800000E+00  1.00800000E+00  1.60000000E+01
  1.00800000E+00  1.00800000E+00  1.60000000E+01  1.00800000E+00  1.00800000E+00
  1.60000000E+01  1.00800000E+00  1.00800000E+00  1.60000000E+01  1.00800000E+00
  1.00800000E+00  1.60000000E+01  1.00800000E+00  1.00800000E+00  1.60000000E+01
  1.00800000E+00  1.00800000E+00  1.60000000E+01  1.00800000E+00  1.00800000E+00
  1.60000000E+01  1.00800000E+00  1.00800000E+00  1.60000000E+01  1.00800000E+00
  1.00800000E+00  1.60000000E+01  1.00800000E+00  1.00800000E+00  1.60000000E+01
  1.00800000E+00  1.00800000E+00  1.60000000E+01  1.00800000E+00  1.00800000E+00
  1.60000000E+01  1.00800000E+00  1.00800000E+00  1.60000000E+01  1.00800000E+00
  1.00800000E+00  1.60000000E+01  1.00800000E+00  1.00800000E+00  1.60000000E+01
  1.00800000E+00  1.00800000E+00  1.60000000E+01  1.00800000E+00  1.00800000E+00
  1.60000000E+01  1.00800000E+00  1.00800000E+00  1.60000000E+01  1.00800000E+00
  1.00800000E+00  1.60000000E+01  1.00800000E+00  1.00800000E+00  1.60000000E+01
  1.00800000E+00  1.00800000E+00  1.60000000E+01  1.00800000E+00  1.00800000E+00
  1.60000000E+01  1.00800000E+00  1.00800000E+00  1.60000000E+01  1.00800000E+00
  1.00800000E+00  1.60000000E+01  1.00800000E+00  1.00800000E+00  1.60000000E+01
  1.00800000E+00  1.00800000E+00  1.60000000E+01  1.00800000E+00  1.00800000E+00
  1.60000000E+01  1.00800000E+00  1.00800000E+00  1.60000000E+01  1.00800000E+00
  1.00800000E+00  1.60000000E+01  1.00800000E+00  1.00800000E+00  1.60000000E+01
  1.00800000E+00  1.00800000E+00  1.60000000E+01  1.00800000E+00  1.00800000E+00
  1.60000000E+01  1.00800000E+00  1.00800000E+00  1.60000000E+01  1.00800000E+00
  1.00800000E+00  1.60000000E+01  1.00800000E+00  1.00800000E+00  1.60000000E+01
  1.00800000E+00  1.00800000E+00  1.60000000E+01  1.00800000E+00  1.00800000E+00
  1.60000000E+01  1.00800000E+00  1.00800000E+00  1.60000000E+01  1.00800000E+00
  1.00800000E+00  1.60000000E+01  1.00800000E+00  1.00800000E+00  1.60000000E+01
  1.00800000E+00  1.00800000E+00  1.60000000E+01  1.00800000E+00  1.00800000E+00
  1.60000000E+01  1.00800000E+00  1.00800000E+00  1.60000000E+01  1.00800000E+00
  1.00800000E+00  1.60000000E+01  1.00800000E+00  1.00800000E+00  1.60000000E+01
  1.00800000E+00  1.00800000E+00  1.60000000E+01  1.00800000E+00  1.00800000E+00
  1.60000000E+01  1.00800000E+00  1.00800000E+00  1.60000000E+01  1.00800000E+00
  1.00800000E+00  1.60000000E+01  1.00800000E+00  1.00800000E+00  1.60000000E+01
  1.00800000E+00  1.00800000E+00  1.60000000E+01  1.00800000E+00  1.00800000E+00
  1.60000000E+01  1.00800000E+00  1.00800000E+00  1.60000000E+01  1.00800000E+00
  1.00800000E+00  1.60000000E+01  1.00800000E+00  1.00800000E+00  1.60000000E+01
  1.00800000E+00  1.00800000E+00  1.60000000E+01  1.00800000E+00  1.00800000E+00
  1.60000000E+01  1.00800000E+00  1.00800000E+00  1.60000000E+01  1.00800000E+00
  1.00800000E+00  1.60000000E+01  1.00800000E+00  1.00800000E+00  1.60000000E+01
  1.00800000E+00  1.00800000E+00  1.60000000E+01  1.00800000E+00  1.00800000E+00
  1.60000000E+01  1.00800000E+00  1.00800000E+00  1.60000000E+01  1.00800000E+00
  1.00800000E+00  1.60000000E+01  1.00800000E+00  1.00800000E+00  1.60000000E+01
  1.00800000E+00  1.00800000E+00  1.60000000E+01  1.00800000E+00  1.00800000E+00
  1.60000000E+01  1.00800000E+00  1.00800000E+00  1.60000000E+01  1.00800000E+00
  1.00800000E+00  1.60000000E+01  1.00800000E+00  1.00800000E+00  1.60000000E+01
  1.00800000E+00  1.00800000E+00  1.60000000E+01  1.00800000E+00  1.00800000E+00
  1.60000000E+01  1.00800000E+00  1.00800000E+00  1.60000000E+01  1.00800000E+00
  1.00800000E+00  1.60000000E+01  1.00800000E+00  1.00800000E+00  1.60000000E+01
  1.00800000E+00  1.00800000E+00  1.60000000E+01  1.00800000E+00  1.00800000E+00
  1.60000000E+01  1.00800000E+00  1.00800000E+00  1.60000000E+01  1.00800000E+00
  1.00800000E+00  1.60000000E+01  1.00800000E+00  1.00800000E+00  1.60000000E+01
  1.00800000E+00  1.00800000E+00  1.60000000E+01  1.00800000E+00  1.00800000E+00
  1.60000000E+01  1.00800000E+00  1.00800000E+00  1.60000000E+01  1.00800000E+00
  1.00800000E+00  1.60000000E+01  1.00800000E+00  1.00800000E+00  1.60000000E+01
  1.00800000E+00  1.00800000E+00  1.60000000E+01  1.00800000E+00  1.00800000E+00
  1.60000000E+01  1.00800000E+00  1.00800000E+00  1.60000000E+01  1.00800000E+00
  1.00800000E+00  1.60000000E+01  1.00800000E+00  1.00800000E+00  1.60000000E+01
  1.00800000E+00  1.00800000E+00  1.60000000E+01  1.00800000E+00  1.00800000E+00
  1.60000000E+01  1.00800000E+00  1.00800000E+00  1.60000000E+01  1.00800000E+00
  1.00800000E+00  1.60000000E+01  1.00800000E+00  1.00800000E+00  1.60000000E+01
  1.00800000E+00  1.00800000E+00  1.60000000E+01  1.00800000E+00  1.00800000E+00
  1.60000000E+01  1.00800000E+00  1.00800000E+00  1.60000000E+01  1.00800000E+00
  1.00800000E+00  1.60000000E+01  1.00800000E+00  1.00800000E+00  1.60000000E+01
  1.00800000E+00  1.00800000E+00  1.60000000E+01  1.00800000E+00  1.00800000E+00
  1.60000000E+01  1.00800000E+00  1.00800000E+00  1.60000000E+01  1.00800000E+00
  1.00800000E+00  1.60000000E+01  1.00800000E+00  1.00800000E+00  1.60000000E+01
  1.00800000E+00  1.00800000E+00  1.60000000E+01  1.00800000E+00  1.00800000E+00
  1.60000000E+01  1.00800000E+00  1.00800000E+00  1.60000000E+01  1.00800000E+00
  1.00800000E+00  1.60000000E+01  1.00800000E+00  1.00800000E+00  1.60000000E+01
  1.00800000E+00  1.00800000E+00  1.60000000E+01  1.00800000E+00  1.00800000E+00
  1.60000000E+01  1.00800000E+00  1.00800000E+00  1.60000000E+01  1.00800000E+00
  1.00800000E+00  1.60000000E+01  1.00800000E+00  1.00800000E+00  1.60000000E+01
  1.00800000E+00  1.00800000E+00  1.60000000E+01  1.00800000E+00  1.00800000E+00
  1.60000000E+01  1.00800000E+00  1.00800000E+00  1.60000000E+01  1.00800000E+00
  1.00800000E+00  1.60000000E+01  1.00800000E+00  1.00800000E+00  1.60000000E+01
  1.00800000E+00  1.00800000E+00  1.60000000E+01  1.00800000E+00  1.00800000E+00
  1.60000000E+01  1.00800000E+00  1.00800000E+00  1.60000000E+01  1.00800000E+00
  1.00800000E+00  1.60000000E+01  1.00800000E+00  1.00800000E+00  1.60000000E+01
  1.00800000E+00  1.00800000E+00  1.60000000E+01  1.00800000E+00  1.00800000E+00
  1.60000000E+01  1.00800000E+00  1.00800000E+00  1.60000000E+01  1.00800000E+00
  1.00800000E+00  1.60000000E+01  1.00800000E+00  1.00800000E+00  1.60000000E+01
  1.00800000E+00  1.00800000E+00  1.60000000E+01  1.00800000E+00  1.00800000E+00
  1.60000000E+01  1.00800000E+00  1.00800000E+00  1.60000000E+01  1.00800000E+00
  1.00800000E+00  1.60000000E+01  1.00800000E+00  1.00800000E+00  1.60000000E+01
  1.00800000E+00  1.00800000E+00  1.60000000E+01  1.00800000E+00  1.00800000E+00
  1.60000000E+01  1.00800000E+00  1.00800000E+00  1.60000000E+01  1.00800000E+00
  1.00800000E+00  1.60000000E+01  1.00800000E+00  1.00800000E+00  1.60000000E+01
  1.00800000E+00  1.00800000E+00  1.60000000E+01  1.00800000E+00  1.00800000E+00
  1.60000000E+01  1.00800000E+00  1.00800000E+00  1.60000000E+01  1.00800000E+00
  1.00800000E+00  1.60000000E+01  1.00800000E+00  1.00800000E+00  1.60000000E+01
  1.00800000E+00  1.00800000E+00  1.60000000E+01  1.00800000E+00  1.00800000E+00
  1.60000000E+01  1.00800000E+00  1.00800000E+00  1.60000000E+01  1.00800000E+00
  1.00800000E+00  1.60000000E+01  1.00800000E+00  1.00800000E+00  1.60000000E+01
  1.00800000E+00  1.00800000E+00  1.60000000E+01  1.00800000E+00  1.00800000E+00
  1.60000000E+01  1.00800000E+00  1.00800000E+00  1.60000000E+01  1.00800000E+00
  1.00800000E+00  1.60000000E+01  1.00800000E+00  1.00800000E+00  1.60000000E+01
  1.00800000E+00  1.00800000E+00  1.60000000E+01  1.00800000E+00  1.00800000E+00
  1.60000000E+01  1.00800000E+00  1.00800000E+00  1.60000000E+01  1.00800000E+00
  1.00800000E+00  1.60000000E+01  1.00800000E+00  1.00800000E+00  1.60000000E+01
  1.00800000E+00  1.00800000E+00  1.60000000E+01  1.00800000E+00  1.00800000E+00
  1.60000000E+01  1.00800000E+00  1.00800000E+00  1.60000000E+01  1.00800000E+00
  1.00800000E+00  1.60000000E+01  1.00800000E+00  1.00800000E+00  1.60000000E+01
  1.00800000E+00  1.00800000E+00  1.60000000E+01  1.00800000E+00  1.00800000E+00
  1.60000000E+01  1.00800000E+00  1.00800000E+00  1.60000000E+01  1.00800000E+00
  1.00800000E+00  1.60000000E+01  1.00800000E+00  1.00800000E+00  1.60000000E+01
  1.00800000E+00  1.00800000E+00  1.60000000E+01  1.00800000E+00  1.00800000E+00
  1.60000000E+01  1.00800000E+00  1.00800000E+00  1.60000000E+01  1.00800000E+00
  1.00800000E+00  1.60000000E+01  1.00800000E+00  1.00800000E+00  1.60000000E+01
  1.00800000E+00  1.00800000E+00  1.60000000E+01  1.00800000E+00  1.00800000E+00
  1.60000000E+01  1.00800000E+00  1.00800000E+00  1.60000000E+01  1.00800000E+00
  1.00800000E+00  1.60000000E+01  1.00800000E+00  1.00800000E+00  1.60000000E+01
  1.00800000E+00  1.00800000E+00  1.60000000E+01  1.00800000E+00  1.00800000E+00
  1.60000000E+01  1.00800000E+00  1.00800000E+00  1.60000000E+01  1.00800000E+00
  1.00800000E+00  1.60000000E+01  1.00800000E+00  1.00800000E+00  1.60000000E+01
  1.00800000E+00  1.00800000E+00  1.60000000E+01  1.00800000E+00  1.00800000E+00
  1.60000000E+01  1.00800000E+00  1.00800000E+00  1.60000000E+01  1.00800000E+00
  1.00800000E+00  1.60000000E+01  1.00800000E+00  1.00800000E+00  1.60000000E+01
  1.00800000E+00  1.00800000E+00  1.60000000E+01  1.00800000E+00  1.00800000E+00
  1.60000000E+01  1.00800000E+00  1.00800000E+00  1.60000000E+01  1.00800000E+00
  1.00800000E+00  1.60000000E+01  1.00800000E+00  1.00800000E+00  1.60000000E+01
  1.00800000E+00  1.00800000E+00  1.60000000E+01  1.00800000E+00  1.00800000E+00
  1.60000000E+01  1.00800000E+00  1.00800000E+00  1.60000000E+01  1.00800000E+00
  1.00800000E+00  1.60000000E+01  1.00800000E+00  1.00800000E+00  1.60000000E+01
  1.00800000E+00  1.00800000E+00  1.60000000E+01  1.00800000E+00  1.00800000E+00
  1.60000000E+01  1.00800000E+00  1.00800000E+00  1.60000000E+01  1.00800000E+00
  1.00800000E+00  1.60000000E+01  1.00800000E+00  1.00800000E+00  1.60000000E+01
  1.00800000E+00  1.00800000E+00  1.60000000E+01  1.00800000E+00  1.00800000E+00
  1.60000000E+01  1.00800000E+00  1.00800000E+00  1.60000000E+01  1.00800000E+00
  1.00800000E+00  1.60000000E+01  1.00800000E+00  1.00800000E+00  1.60000000E+01
  1.00800000E+00  1.00800000E+00  1.60000000E+01  1.00800000E+00  1.00800000E+00
  1.60000000E+01  1.00800000E+00  1.00800000E+00  1.60000000E+01  1.00800000E+00
  1.00800000E+00  1.60000000E+01  1.00800000E+00  1.00800000E+00  1.60000000E+01
  1.00800000E+00  1.00800000E+00  1.60000000E+01  1.00800000E+00  1.00800000E+00
  1.60000000E+01  1.00800000E+00  1.00800000E+00  1.60000000E+01  1.00800000E+00
  1.00800000E+00  1.60000000E+01  1.00800000E+00  1.00800000E+00  1.60000000E+01
  1.00800000E+00  1.00800000E+00  1.60000000E+01  1.00800000E+00  1.00800000E+00
  1.60000000E+01  1.00800000E+00  1.00800000E+00  1.60000000E+01  1.00800000E+00
  1.00800000E+00  1.60000000E+01  1.00800000E+00  1.00800000E+00  1.60000000E+01
  1.00800000E+00  1.00800000E+00  1.60000000E+01  1.00800000E+00  1.00800000E+00
  1.60000000E+01  1.00800000E+00  1.00800000E+00  1.60000000E+01  1.00800000E+00
  1.00800000E+00  1.60000000E+01  1.00800000E+00  1.00800000E+00  1.60000000E+01
  1.00800000E+00  1.00800000E+00  1.60000000E+01  1.00800000E+00  1.00800000E+00
  1.60000000E+01  1.00800000E+00  1.00800000E+00  1.60000000E+01  1.00800000E+00
  1.00800000E+00  1.60000000E+01  1.00800000E+00  1.00800000E+00  1.60000000E+01
  1.00800000E+00  1.00800000E+00  1.60000000E+01  1.00800000E+00  1.00800000E+00
  1.60000000E+01  1.00800000E+00  1.00800000E+00  1.60000000E+01  1.00800000E+00
  1.00800000E+00  1.60000000E+01  1.00800000E+00  1.00800000E+00  1.60000000E+01
  1.00800000E+00  1.00800000E+00  1.60000000E+01  1.00800000E+00  1.00800000E+00
  1.60000000E+01  1.00800000E+00  1.00800000E+00  1.60000000E+01  1.00800000E+00
  1.00800000E+00  1.60000000E+01  1.00800000E+00  1.00800000E+00  1.60000000E+01
  1.00800000E+00  1.00800000E+00  1.60000000E+01  1.00800000E+00  1.00800000E+00
  1.60000000E+01  1.00800000E+00  1.00800000E+00  1.60000000E+01  1.00800000E+00
  1.00800000E+00  1.60000000E+01  1.00800000E+00  1.00800000E+00  1.60000000E+01
  1.00800000E+00  1.00800000E+00  1.60000000E+01  1.00800000E+00  1.00800000E+00
  1.60000000E+01  1.00800000E+00  1.00800000E+00  1.60000000E+01  1.00800000E+00
  1.00800000E+00  1.60000000E+01  1.00800000E+00  1.00800000E+00  1.60000000E+01
  1.00800000E+00  1.00800000E+00  1.60000000E+01  1.00800000E+00  1.00800000E+00
  1.60000000E+01  1.00800000E+00  1.00800000E+00  1.60000000E+01  1.00800000E+00
  1.00800000E+00  1.60000000E+01  1.00800000E+00  1.00800000E+00  1.60000000E+01
  1.00800000E+00  1.00800000E+00  1.60000000E+01  1.00800000E+00  1.00800000E+00
  1.60000000E+01  1.00800000E+00  1.00800000E+00  1.60000000E+01  1.00800000E+00
  1.00800000E+00  1.60000000E+01  1.00800000E+00  1.00800000E+00  1.60000000E+01
  1.00800000E+00  1.00800000E+00  1.60000000E+01  1.00800000E+00  1.00800000E+00
  1.60000000E+01  1.00800000E+00  1.00800000E+00  1.60000000E+01  1.00800000E+00
  1.00800000E+00  1.60000000E+01  1.00800000E+00  1.00800000E+00  1.60000000E+01
  1.00800000E+00  1.00800000E+00  1.60000000E+01  1.00800000E+00  1.00800000E+00
  1.60000000E+01  1.00800000E+00  1.00800000E+00  1.60000000E+01  1.00800000E+00
  1.00800000E+00  1.60000000E+01  1.00800000E+00  1.00800000E+00  1.60000000E+01
  1.00800000E+00  1.00800000E+00  1.60000000E+01  1.00800000E+00  1.00800000E+00
  1.60000000E+01  1.00800000E+00  1.00800000E+00  1.60000000E+01  1.00800000E+00
  1.00800000E+00  1.60000000E+01  1.00800000E+00  1.00800000E+00  1.60000000E+01
  1.00800000E+00  1.00800000E+00  1.60000000E+01  1.00800000E+00  1.00800000E+00
  1.60000000E+01  1.00800000E+00  1.00800000E+00  1.60000000E+01  1.00800000E+00
  1.00800000E+00  1.60000000E+01  1.00800000E+00  1.00800000E+00  1.60000000E+01
  1.00800000E+00  1.00800000E+00  1.60000000E+01  1.00800000E+00  1.00800000E+00
  1.60000000E+01  1.00800000E+00  1.00800000E+00  1.60000000E+01  1.00800000E+00
  1.00800000E+00  1.60000000E+01  1.00800000E+00  1.00800000E+00  1.60000000E+01
  1.00800000E+00  1.00800000E+00  1.60000000E+01  1.00800000E+00  1.00800000E+00
  1.60000000E+01  1.00800000E+00  1.00800000E+00  1.60000000E+01  1.00800000E+00
  1.00800000E+00  1.60000000E+01  1.00800000E+00  1.00800000E+00  1.60000000E+01
  1.00800000E+00  1.00800000E+00  1.60000000E+01  1.00800000E+00  1.00800000E+00
  1.60000000E+01  1.00800000E+00  1.00800000E+00  1.60000000E+01  1.00800000E+00
  1.00800000E+00  1.60000000E+01  1.00800000E+00  1.00800000E+00  1.60000000E+01
  1.00800000E+00  1.00800000E+00  1.60000000E+01  1.00800000E+00  1.00800000E+00
  1.60000000E+01  1.00800000E+00  1.00800000E+00  1.60000000E+01  1.00800000E+00
  1.00800000E+00  1.60000000E+01  1.00800000E+00  1.00800000E+00  1.60000000E+01
  1.00800000E+00  1.00800000E+00  1.60000000E+01  1.00800000E+00  1.00800000E+00
  1.60000000E+01  1.00800000E+00  1.00800000E+00  1.60000000E+01  1.00800000E+00
  1.00800000E+00  1.60000000E+01  1.00800000E+00  1.00800000E+00  1.60000000E+01
  1.00800000E+00  1.00800000E+00  1.60000000E+01  1.00800000E+00  1.00800000E+00
  1.60000000E+01  1.00800000E+00  1.00800000E+00  1.60000000E+01  1.00800000E+00
  1.00800000E+00  1.60000000E+01  1.00800000E+00  1.00800000E+00  1.60000000E+01
  1.00800000E+00  1.00800000E+00  1.60000000E+01  1.00800000E+00  1.00800000E+00
  1.60000000E+01  1.00800000E+00  1.00800000E+00  1.60000000E+01  1.00800000E+00
  1.00800000E+00  1.60000000E+01  1.00800000E+00  1.00800000E+00  1.60000000E+01
  1.00800000E+00  1.00800000E+00  1.60000000E+01  1.00800000E+00  1.00800000E+00
  1.60000000E+01  1.00800000E+00  1.00800000E+00  1.60000000E+01  1.00800000E+00
  1.00800000E+00  1.60000000E+01  1.00800000E+00  1.00800000E+00  1.60000000E+01
  1.00800000E+00  1.00800000E+00  1.60000000E+01  1.00800000E+00  1.00800000E+00
  1.60000000E+01  1.00800000E+00  1.00800000E+00  1.60000000E+01  1.00800000E+00
  1.00800000E+00  1.60000000E+01  1.00800000E+00  1.00800000E+00  1.60000000E+01
  1.00800000E+00  1.00800000E+00  1.60000000E+01  1.00800000E+00  1.00800000E+00
  1.60000000E+01  1.00800000E+00  1.00800000E+00  1.60000000E+01  1.00800000E+00
  1.00800000E+00  1.60000000E+01  1.00800000E+00  1.00800000E+00  1.60000000E+01
  1.00800000E+00  1.00800000E+00  1.60000000E+01  1.00800000E+00  1.00800000E+00
  1.60000000E+01  1.00800000E+00  1.00800000E+00  1.60000000E+01  1.00800000E+00
  1.00800000E+00  1.60000000E+01  1.00800000E+00  1.00800000E+00  1.60000000E+01
  1.00800000E+00  1.00800000E+00  1.60000000E+01  1.00800000E+00  1.00800000E+00
  1.60000000E+01  1.00800000E+00  1.00800000E+00  1.60000000E+01  1.00800000E+00
  1.00800000E+00  1.60000000E+01  1.00800000E+00  1.00800000E+00  1.60000000E+01
  1.00800000E+00  1.00800000E+00  1.60000000E+01  1.00800000E+00  1.00800000E+00
  1.60000000E+01  1.00800000E+00  1.00800000E+00  1.60000000E+01  1.00800000E+00
  1.00800000E+00  1.60000000E+01  1.00800000E+00  1.00800000E+00  1.60000000E+01
  1.00800000E+00  1.00800000E+00  1.60000000E+01  1.00800000E+00  1.00800000E+00
  1.60000000E+01  1.00800000E+00  1.00800000E+00  1.60000000E+01  1.00800000E+00
  1.00800000E+00  1.60000000E+01  1.00800000E+00  1.00800000E+00  1.60000000E+01
  1.00800000E+00  1.00800000E+00  1.60000000E+01  1.00800000E+00  1.00800000E+00
  1.60000000E+01  1.00800000E+00  1.00800000E+00  1.60000000E+01  1.00800000E+00
  1.00800000E+00  1.60000000E+01  1.00800000E+00  1.00800000E+00  1.60000000E+01
  1.00800000E+00  1.00800000E+00  1.60000000E+01  1.00800000E+00  1.00800000E+00
  1.60000000E+01  1.00800000E+00  1.00800000E+00  1.60000000E+01  1.00800000E+00
  1.00800000E+00  1.60000000E+01  1.00800000E+00  1.00800000E+00  1.60000000E+01
  1.00800000E+00  1.00800000E+00  1.60000000E+01  1.00800000E+00  1.00800000E+00
  1.60000000E+01  1.00800000E+00  1.00800000E+00  1.60000000E+01  1.00800000E+00
  1.00800000E+00  1.60000000E+01  1.00800000E+00  1.00800000E+00  1.60000000E+01
  1.00800000E+00  1.00800000E+00  1.60000000E+01  1.00800000E+00  1.00800000E+00
  1.60000000E+01  1.00800000E+00  1.00800000E+00  1.60000000E+01  1.00800000E+00
  1.00800000E+00  1.60000000E+01  1.00800000E+00  1.00800000E+00  1.60000000E+01
  1.00800000E+00  1.00800000E+00  1.60000000E+01  1.00800000E+00  1.00800000E+00
  1.60000000E+01  1.00800000E+00  1.00800000E+00  1.60000000E+01  1.00800000E+00
  1.00800000E+00  1.60000000E+01  1.00800000E+00  1.00800000E+00  1.60000000E+01
  1.00800000E+00  1.00800000E+00  1.60000000E+01  1.00800000E+00  1.00800000E+00
  1.60000000E+01  1.00800000E+00  1.00800000E+00  1.60000000E+01  1.00800000E+00
  1.00800000E+00  1.60000000E+01  1.00800000E+00  1.00800000E+00  1.60000000E+01
  1.00800000E+00  1.00800000E+00  1.60000000E+01  1.00800000E+00  1.00800000E+00
  1.60000000E+01  1.00800000E+00  1.00800000E+00  1.60000000E+01  1.00800000E+00
  1.00800000E+00  1.60000000E+01  1.00800000E+00  1.00800000E+00  1.60000000E+01
  1.00800000E+00  1.00800000E+00  1.60000000E+01  1.00800000E+00  1.00800000E+00
  1.60000000E+01  1.00800000E+00  1.00800000E+00  1.60000000E+01  1.00800000E+00
  1.00800000E+00  1.60000000E+01  1.00800000E+00  1.00800000E+00  1.60000000E+01
  1.00800000E+00  1.00800000E+00  1.60000000E+01  1.00800000E+00  1.00800000E+00
  1.60000000E+01  1.00800000E+00  1.00800000E+00  1.60000000E+01  1.00800000E+00
  1.00800000E+00  1.60000000E+01  1.00800000E+00  1.00800000E+00  1.60000000E+01
  1.00800000E+00  1.00800000E+00  1.60000000E+01  1.00800000E+00  1.00800000E+00
  1.60000000E+01  1.00800000E+00  1.00800000E+00  1.60000000E+01  1.00800000E+00
  1.00800000E+00  1.60000000E+01  1.00800000E+00  1.00800000E+00  1.60000000E+01
  1.00800000E+00  1.00800000E+00  1.60000000E+01  1.00800000E+00  1.00800000E+00
  1.60000000E+01  1.00800000E+00  1.00800000E+00  1.60000000E+01  1.00800000E+00
  1.00800000E+00  1.60000000E+01  1.00800000E+00  1.00800000E+00  1.60000000E+01
  1.00800000E+00  1.00800000E+00  1.60000000E+01  1.00800000E+00  1.00800000E+00
  1.60000000E+01  1.00800000E+00  1.00800000E+00  1.60000000E+01  1.00800000E+00
  1.00800000E+00  1.60000000E+01  1.00800000E+00  1.00800000E+00  1.60000000E+01
  1.00800000E+00  1.00800000E+00  1.60000000E+01  1.00800000E+00  1.00800000E+00
  1.60000000E+01  1.00800000E+00  1.00800000E+00  1.60000000E+01  1.00800000E+00
  1.00800000E+00  1.60000000E+01  1.00800000E+00  1.00800000E+00  1.60000000E+01
  1.00800000E+00  1.00800000E+00  1.60000000E+01  1.00800000E+00  1.00800000E+00
  1.60000000E+01  1.00800000E+00  1.00800000E+00  1.60000000E+01  1.00800000E+00
  1.00800000E+00  1.60000000E+01  1.00800000E+00  1.00800000E+00  1.60000000E+01
  1.00800000E+00  1.00800000E+00  1.60000000E+01  1.00800000E+00  1.00800000E+00
  1.60000000E+01  1.00800000E+00  1.00800000E+00  1.60000000E+01  1.00800000E+00
  1.00800000E+00  1.60000000E+01  1.00800000E+00  1.00800000E+00  1.60000000E+01
  1.00800000E+00  1.00800000E+00  1.60000000E+01  1.00800000E+00  1.00800000E+00
  1.60000000E+01  1.00800000E+00  1.00800000E+00  1.60000000E+01  1.00800000E+00
  1.00800000E+00  1.60000000E+01  1.00800000E+00  1.00800000E+00  1.60000000E+01
  1.00800000E+00  1.00800000E+00  1.60000000E+01  1.00800000E+00  1.00800000E+00
  1.60000000E+01  1.00800000E+00  1.00800000E+00  1.60000000E+01  1.00800000E+00
  1.00800000E+00  1.60000000E+01  1.00800000E+00  1.00800000E+00  1.60000000E+01
  1.00800000E+00  1.00800000E+00  1.60000000E+01  1.00800000E+00  1.00800000E+00
  1.60000000E+01  1.00800000E+00  1.00800000E+00  1.60000000E+01  1.00800000E+00
  1.00800000E+00  1.60000000E+01  1.00800000E+00  1.00800000E+00  1.60000000E+01
  1.00800000E+00  1.00800000E+00  1.60000000E+01  1.00800000E+00  1.00800000E+00
  1.60000000E+01  1.00800000E+00  1.00800000E+00  1.60000000E+01  1.00800000E+00
  1.00800000E+00  1.60000000E+01  1.00800000E+00  1.00800000E+00  1.60000000E+01
  1.00800000E+00  1.00800000E+00  1.60000000E+01  1.00800000E+00  1.00800000E+00
  1.60000000E+01  1.00800000E+00  1.00800000E+00  1.60000000E+01  1.00800000E+00
  1.00800000E+00  1.60000000E+01  1.00800000E+00  1.00800000E+00  1.60000000E+01
  1.00800000E+00  1.00800000E+00  1.60000000E+01  1.00800000E+00  1.00800000E+00
  1.60000000E+01  1.00800000E+00  1.00800000E+00  1.60000000E+01  1.00800000E+00
  1.00800000E+00  1.60000000E+01  1.00800000E+00  1.00800000E+00  1.60000000E+01
  1.00800000E+00  1.00800000E+00  1.60000000E+01  1.00800000E+00  1.00800000E+00
  1.60000000E+01  1.00800000E+00  1.00800000E+00  1.60000000E+01  1.00800000E+00
  1.00800000E+00  1.60000000E+01  1.00800000E+00  1.00800000E+00  1.60000000E+01
  1.00800000E+00  1.00800000E+00  1.60000000E+01  1.00800000E+00  1.00800000E+00
  1.60000000E+01  1.00800000E+00  1.00800000E+00  1.60000000E+01  1.00800000E+00
  1.00800000E+00  1.60000000E+01  1.00800000E+00  1.00800000E+00  1.60000000E+01
  1.00800000E+00  1.00800000E+00  1.60000000E+01  1.00800000E+00  1.00800000E+00
  1.60000000E+01  1.00800000E+00  1.00800000E+00  1.60000000E+01  1.00800000E+00
  1.00800000E+00  1.60000000E+01  1.00800000E+00  1.00800000E+00  1.60000000E+01
  1.00800000E+00  1.00800000E+00  1.60000000E+01  1.00800000E+00  1.00800000E+00
  1.60000000E+01  1.00800000E+00  1.00800000E+00  1.60000000E+01  1.00800000E+00
  1.00800000E+00  1.60000000E+01  1.00800000E+00  1.00800000E+00  1.60000000E+01
  1.00800000E+00  1.00800000E+00  1.60000000E+01  1.00800000E+00  1.00800000E+00
  1.60000000E+01  1.00800000E+00  1.00800000E+00  1.60000000E+01  1.00800000E+00
  1.00800000E+00  1.60000000E+01  1.00800000E+00  1.00800000E+00  1.60000000E+01
  1.00800000E+00  1.00800000E+00  1.60000000E+01  1.00800000E+00  1.00800000E+00
  1.60000000E+01  1.00800000E+00  1.00800000E+00  1.60000000E+01  1.00800000E+00
  1.00800000E+00  1.60000000E+01  1.00800000E+00  1.00800000E+00  1.60000000E+01
  1.00800000E+00  1.00800000E+00  1.60000000E+01  1.00800000E+00  1.00800000E+00
  1.60000000E+01  1.00800000E+00  1.00800000E+00  1.60000000E+01  1.00800000E+00
  1.00800000E+00  1.60000000E+01  1.00800000E+00  1.00800000E+00  1.60000000E+01
  1.00800000E+00  1.00800000E+00  1.60000000E+01  1.00800000E+00  1.00800000E+00
  1.60000000E+01  1.00800000E+00  1.00800000E+00  1.60000000E+01  1.00800000E+00
  1.00800000E+00  1.60000000E+01  1.00800000E+00  1.00800000E+00  1.60000000E+01
  1.00800000E+00  1.00800000E+00  1.60000000E+01  1.00800000E+00  1.00800000E+00
  1.60000000E+01  1.00800000E+00  1.00800000E+00  1.60000000E+01  1.00800000E+00
  1.00800000E+00  1.60000000E+01  1.00800000E+00  1.00800000E+00  1.60000000E+01
  1.00800000E+00  1.00800000E+00  1.60000000E+01  1.00800000E+00  1.00800000E+00
  1.60000000E+01  1.00800000E+00  1.00800000E+00  1.60000000E+01  1.00800000E+00
  1.00800000E+00  1.60000000E+01  1.00800000E+00  1.00800000E+00  1.60000000E+01
  1.00800000E+00  1.00800000E+00  1.60000000E+01  1.00800000E+00  1.00800000E+00
  1.60000000E+01  1.00800000E+00  1.00800000E+00  1.60000000E+01  1.00800000E+00
  1.00800000E+00  1.60000000E+01  1.00800000E+00  1.00800000E+00  1.60000000E+01
  1.00800000E+00  1.00800000E+00  1.60000000E+01  1.00800000E+00  1.00800000E+00
  1.60000000E+01  1.00800000E+00  1.00800000E+00  1.60000000E+01  1.00800000E+00
  1.00800000E+00  1.60000000E+01  1.00800000E+00  1.00800000E+00  1.60000000E+01
  1.00800000E+00  1.00800000E+00  1.60000000E+01  1.00800000E+00  1.00800000E+00
  1.60000000E+01  1.00800000E+00  1.00800000E+00  1.60000000E+01  1.00800000E+00
  1.00800000E+00  1.60000000E+01  1.00800000E+00  1.00800000E+00  1.60000000E+01
  1.00800000E+00  1.00800000E+00  1.60000000E+01  1.00800000E+00  1.00800000E+00
  1.60000000E+01  1.00800000E+00  1.00800000E+00  1.60000000E+01  1.00800000E+00
  1.00800000E+00  1.60000000E+01  1.00800000E+00  1.00800000E+00  1.60000000E+01
  1.00800000E+00  1.00800000E+00  1.60000000E+01  1.00800000E+00  1.00800000E+00
  1.60000000E+01  1.00800000E+00  1.00800000E+00  1.60000000E+01  1.00800000E+00
  1.00800000E+00  1.60000000E+01  1.00800000E+00  1.00800000E+00  1.60000000E+01
  1.00800000E+00  1.00800000E+00  1.60000000E+01  1.00800000E+00  1.00800000E+00
  1.60000000E+01  1.00800000E+00  1.00800000E+00  1.60000000E+01  1.00800000E+00
  1.00800000E+00  1.60000000E+01  1.00800000E+00  1.00800000E+00  1.60000000E+01
  1.00800000E+00  1.00800000E+00  1.60000000E+01  1.00800000E+00  1.00800000E+00
  1.60000000E+01  1.00800000E+00  1.00800000E+00  1.60000000E+01  1.00800000E+00
  1.00800000E+00  1.60000000E+01  1.00800000E+00  1.00800000E+00  1.60000000E+01
  1.00800000E+00  1.00800000E+00  1.60000000E+01  1.00800000E+00  1.00800000E+00
  1.60000000E+01  1.00800000E+00  1.00800000E+00  1.60000000E+01  1.00800000E+00
  1.00800000E+00  1.60000000E+01  1.00800000E+00  1.00800000E+00  1.60000000E+01
  1.00800000E+00  1.00800000E+00  1.60000000E+01  1.00800000E+00  1.00800000E+00
  1.60000000E+01  1.00800000E+00  1.00800000E+00  1.60000000E+01  1.00800000E+00
  1.00800000E+00  1.60000000E+01  1.00800000E+00  1.00800000E+00  1.60000000E+01
  1.00800000E+00  1.00800000E+00  1.60000000E+01  1.00800000E+00  1.00800000E+00
  1.60000000E+01  1.00800000E+00  1.00800000E+00  1.60000000E+01  1.00800000E+00
  1.00800000E+00  1.60000000E+01  1.00800000E+00  1.00800000E+00  1.60000000E+01
  1.00800000E+00  1.00800000E+00  1.60000000E+01  1.00800000E+00  1.00800000E+00
  1.60000000E+01  1.00800000E+00  1.00800000E+00  1.60000000E+01  1.00800000E+00
  1.00800000E+00  1.60000000E+01  1.00800000E+00  1.00800000E+00  1.60000000E+01
  1.00800000E+00  1.00800000E+00  1.60000000E+01  1.00800000E+00  1.00800000E+00
  1.60000000E+01  1.00800000E+00  1.00800000E+00  1.60000000E+01  1.00800000E+00
  1.00800000E+00  1.60000000E+01  1.00800000E+00  1.00800000E+00  1.60000000E+01
  1.00800000E+00  1.00800000E+00  1.60000000E+01  1.00800000E+00  1.00800000E+00
  1.60000000E+01  1.00800000E+00  1.00800000E+00  1.60000000E+01  1.00800000E+00
  1.00800000E+00  1.60000000E+01  1.00800000E+00  1.00800000E+00  1.60000000E+01
  1.00800000E+00  1.00800000E+00  1.60000000E+01  1.00800000E+00  1.00800000E+00
  1.60000000E+01  1.00800000E+00  1.00800000E+00  1.60000000E+01  1.00800000E+00
  1.00800000E+00  1.60000000E+01  1.00800000E+00  1.00800000E+00  1.60000000E+01
  1.00800000E+00  1.00800000E+00  1.60000000E+01  1.00800000E+00  1.00800000E+00
  1.60000000E+01  1.00800000E+00  1.00800000E+00  1.60000000E+01  1.00800000E+00
  1.00800000E+00  1.60000000E+01  1.00800000E+00  1.00800000E+00  1.60000000E+01
  1.00800000E+00  1.00800000E+00  1.60000000E+01  1.00800000E+00  1.00800000E+00
  1.60000000E+01  1.00800000E+00  1.00800000E+00  1.60000000E+01  1.00800000E+00
  1.00800000E+00  1.60000000E+01  1.00800000E+00  1.00800000E+00  1.60000000E+01
  1.00800000E+00  1.00800000E+00  1.60000000E+01  1.00800000E+00  1.00800000E+00
  1.60000000E+01  1.00800000E+00  1.00800000E+00  1.60000000E+01  1.00800000E+00
  1.00800000E+00  1.60000000E+01  1.00800000E+00  1.00800000E+00  1.60000000E+01
  1.00800000E+00  1.00800000E+00  1.60000000E+01  1.00800000E+00  1.00800000E+00
  1.60000000E+01  1.00800000E+00  1.00800000E+00  1.60000000E+01  1.00800000E+00
  1.00800000E+00  1.60000000E+01  1.00800000E+00  1.00800000E+00  1.60000000E+01
  1.00800000E+00  1.00800000E+00  1.60000000E+01  1.00800000E+00  1.00800000E+00
  1.60000000E+01  1.00800000E+00  1.00800000E+00  1.60000000E+01  1.00800000E+00
  1.00800000E+00  1.60000000E+01  1.00800000E+00  1.00800000E+00  1.60000000E+01
  1.00800000E+00  1.00800000E+00  1.60000000E+01  1.00800000E+00  1.00800000E+00
  1.60000000E+01  1.00800000E+00  1.00800000E+00  1.60000000E+01  1.00800000E+00
  1.00800000E+00  1.60000000E+01  1.00800000E+00  1.00800000E+00  1.60000000E+01
  1.00800000E+00  1.00800000E+00  1.60000000E+01  1.00800000E+00  1.00800000E+00
  1.60000000E+01  1.00800000E+00  1.00800000E+00  1.60000000E+01  1.00800000E+00
  1.00800000E+00  1.60000000E+01  1.00800000E+00  1.00800000E+00  1.60000000E+01
  1.00800000E+00  1.00800000E+00  1.60000000E+01  1.00800000E+00  1.00800000E+00
  1.60000000E+01  1.00800000E+00  1.00800000E+00  1.60000000E+01  1.00800000E+00
  1.00800000E+00  1.60000000E+01  1.00800000E+00  1.00800000E+00  1.60000000E+01
  1.00800000E+00  1.00800000E+00  1.60000000E+01  1.00800000E+00  1.00800000E+00
  1.60000000E+01  1.00800000E+00  1.00800000E+00  1.60000000E+01  1.00800000E+00
  1.00800000E+00  1.60000000E+01  1.00800000E+00  1.00800000E+00  1.60000000E+01
  1.00800000E+00  1.00800000E+00  1.60000000E+01  1.00800000E+00  1.00800000E+00
  1.60000000E+01  1.00800000E+00  1.00800000E+00  1.60000000E+01  1.00800000E+00
  1.00800000E+00  1.60000000E+01  1.00800000E+00  1.00800000E+00  1.60000000E+01
  1.00800000E+00  1.00800000E+00  1.60000000E+01  1.00800000E+00  1.00800000E+00
  1.60000000E+01  1.00800000E+00  1.00800000E+00  1.60000000E+01  1.00800000E+00
  1.00800000E+00  1.60000000E+01  1.00800000E+00  1.00800000E+00  1.60000000E+01
  1.00800000E+00  1.00800000E+00  1.60000000E+01  1.00800000E+00  1.00800000E+00
  1.60000000E+01  1.00800000E+00  1.00800000E+00  1.60000000E+01  1.00800000E+00
  1.00800000E+00  1.60000000E+01  1.00800000E+00  1.00800000E+00  1.60000000E+01
  1.00800000E+00  1.00800000E+00  1.60000000E+01  1.00800000E+00  1.00800000E+00
  1.60000000E+01  1.00800000E+00  1.00800000E+00  1.60000000E+01  1.00800000E+00
  1.00800000E+00  1.60000000E+01  1.00800000E+00  1.00800000E+00  1.60000000E+01
  1.00800000E+00  1.00800000E+00  1.60000000E+01  1.00800000E+00  1.00800000E+00
  1.60000000E+01  1.00800000E+00  1.00800000E+00  1.60000000E+01  1.00800000E+00
  1.00800000E+00  1.60000000E+01  1.00800000E+00  1.00800000E+00  1.60000000E+01
  1.00800000E+00  1.00800000E+00  1.60000000E+01  1.00800000E+00  1.00800000E+00
  1.60000000E+01  1.00800000E+00  1.00800000E+00  1.60000000E+01  1.00800000E+00
  1.00800000E+00  1.60000000E+01  1.00800000E+00  1.00800000E+00  1.60000000E+01
  1.00800000E+00  1.00800000E+00  1.60000000E+01  1.00800000E+00  1.00800000E+00
  1.60000000E+01  1.00800000E+00  1.00800000E+00  1.60000000E+01  1.00800000E+00
  1.00800000E+00  1.60000000E+01  1.00800000E+00  1.00800000E+00  1.60000000E+01
  1.00800000E+00  1.00800000E+00  1.60000000E+01  1.00800000E+00  1.00800000E+00
  1.60000000E+01  1.00800000E+00  1.00800000E+00  1.60000000E+01  1.00800000E+00
  1.00800000E+00  1.60000000E+01  1.00800000E+00  1.00800000E+00  1.60000000E+01
  1.00800000E+00  1.00800000E+00  1.60000000E+01  1.00800000E+00  1.00800000E+00
  1.60000000E+01  1.00800000E+00  1.00800000E+00  1.60000000E+01  1.00800000E+00
  1.00800000E+00  1.60000000E+01  1.00800000E+00  1.00800000E+00  1.60000000E+01
  1.00800000E+00  1.00800000E+00  1.60000000E+01  1.00800000E+00  1.00800000E+00
  1.60000000E+01  1.00800000E+00  1.00800000E+00  1.60000000E+01  1.00800000E+00
  1.00800000E+00  1.60000000E+01  1.00800000E+00  1.00800000E+00  1.60000000E+01
  1.00800000E+00  1.00800000E+00  1.60000000E+01  1.00800000E+00  1.00800000E+00
  1.60000000E+01  1.00800000E+00  1.00800000E+00  1.60000000E+01  1.00800000E+00
  1.00800000E+00  1.60000000E+01  1.00800000E+00  1.00800000E+00  1.60000000E+01
  1.00800000E+00  1.00800000E+00  1.60000000E+01  1.00800000E+00  1.00800000E+00
  1.60000000E+01  1.00800000E+00  1.00800000E+00  1.60000000E+01  1.00800000E+00
  1.00800000E+00  1.60000000E+01  1.00800000E+00  1.00800000E+00  1.60000000E+01
  1.00800000E+00  1.00800000E+00  1.60000000E+01  1.00800000E+00  1.00800000E+00
  1.60000000E+01  1.00800000E+00  1.00800000E+00  1.60000000E+01  1.00800000E+00
  1.00800000E+00  1.60000000E+01  1.00800000E+00  1.00800000E+00  1.60000000E+01
  1.00800000E+00  1.00800000E+00  1.60000000E+01  1.00800000E+00  1.00800000E+00
  1.60000000E+01  1.00800000E+00  1.00800000E+00  1.60000000E+01  1.00800000E+00
  1.00800000E+00  1.60000000E+01  1.00800000E+00  1.00800000E+00  1.60000000E+01
  1.00800000E+00  1.00800000E+00  1.60000000E+01  1.00800000E+00  1.00800000E+00
  1.60000000E+01  1.00800000E+00  1.00800000E+00  1.60000000E+01  1.00800000E+00
  1.00800000E+00  1.60000000E+01  1.00800000E+00  1.00800000E+00  1.60000000E+01
  1.00800000E+00  1.00800000E+00  1.60000000E+01  1.00800000E+00  1.00800000E+00
  1.60000000E+01  1.00800000E+00  1.00800000E+00  1.60000000E+01  1.00800000E+00
  1.00800000E+00  1.60000000E+01  1.00800000E+00  1.00800000E+00  1.60000000E+01
  1.00800000E+00  1.00800000E+00  1.60000000E+01  1.00800000E+00  1.00800000E+00
  1.60000000E+01  1.00800000E+00  1.00800000E+00  1.60000000E+01  1.00800000E+00
  1.00800000E+00  1.60000000E+01  1.00800000E+00  1.00800000E+00  1.60000000E+01
  1.00800000E+00  1.00800000E+00  1.60000000E+01  1.00800000E+00  1.00800000E+00
  1.60000000E+01  1.00800000E+00  1.00800000E+00  1.60000000E+01  1.00800000E+00
  1.00800000E+00  1.60000000E+01  1.00800000E+00  1.00800000E+00  1.60000000E+01
  1.00800000E+00  1.00800000E+00  1.60000000E+01  1.00800000E+00  1.00800000E+00
  1.60000000E+01  1.00800000E+00  1.00800000E+00  1.60000000E+01  1.00800000E+00
  1.00800000E+00  1.60000000E+01  1.00800000E+00  1.00800000E+00  1.60000000E+01
  1.00800000E+00  1.00800000E+00  1.60000000E+01  1.00800000E+00  1.00800000E+00
  1.60000000E+01  1.00800000E+00  1.00800000E+00  1.60000000E+01  1.00800000E+00
  1.00800000E+00  1.60000000E+01  1.00800000E+00  1.00800000E+00  1.60000000E+01
  1.00800000E+00  1.00800000E+00  1.60000000E+01  1.00800000E+00  1.00800000E+00
  1.60000000E+01  1.00800000E+00  1.00800000E+00  1.60000000E+01  1.00800000E+00
  1.00800000E+00  1.60000000E+01  1.00800000E+00  1.00800000E+00  1.60000000E+01
  1.00800000E+00  1.00800000E+00  1.60000000E+01  1.00800000E+00  1.00800000E+00
  1.60000000E+01  1.00800000E+00  1.00800000E+00  1.60000000E+01  1.00800000E+00
  1.00800000E+00  1.60000000E+01  1.00800000E+00  1.00800000E+00  1.60000000E+01
  1.00800000E+00  1.00800000E+00  1.60000000E+01  1.00800000E+00  1.00800000E+00
  1.60000000E+01  1.00800000E+00  1.00800000E+00  1.60000000E+01  1.00800000E+00
  1.00800000E+00  1.60000000E+01  1.00800000E+00  1.00800000E+00  1.60000000E+01
  1.00800000E+00  1.00800000E+00  1.60000000E+01  1.00800000E+00  1.00800000E+00
  1.60000000E+01  1.00800000E+00  1.00800000E+00  1.60000000E+01  1.00800000E+00
  1.00800000E+00  1.60000000E+01  1.00800000E+00  1.00800000E+00  1.60000000E+01
  1.00800000E+00  1.00800000E+00  1.60000000E+01  1.00800000E+00  1.00800000E+00
  1.60000000E+01  1.00800000E+00  1.00800000E+00  1.60000000E+01  1.00800000E+00
  1.00800000E+00  1.60000000E+01  1.00800000E+00  1.00800000E+00  1.60000000E+01
  1.00800000E+00  1.00800000E+00  1.60000000E+01  1.00800000E+00  1.00800000E+00
  1.60000000E+01  1.00800000E+00  1.00800000E+00  1.60000000E+01  1.00800000E+00
  1.00800000E+00  1.60000000E+01  1.00800000E+00  1.00800000E+00  1.60000000E+01
  1.00800000E+00  1.00800000E+00  1.60000000E+01  1.00800000E+00  1.00800000E+00
  1.60000000E+01  1.00800000E+00  1.00800000E+00  1.60000000E+01  1.00800000E+00
  1.00800000E+00  1.60000000E+01  1.00800000E+00  1.00800000E+00  1.60000000E+01
  1.00800000E+00  1.00800000E+00  1.60000000E+01  1.00800000E+00  1.00800000E+00
  1.60000000E+01  1.00800000E+00  1.00800000E+00  1.60000000E+01  1.00800000E+00
  1.00800000E+00  1.60000000E+01  1.00800000E+00  1.00800000E+00  1.60000000E+01
  1.00800000E+00  1.00800000E+00  1.60000000E+01  1.00800000E+00  1.00800000E+00
  1.60000000E+01  1.00800000E+00  1.00800000E+00  1.60000000E+01  1.00800000E+00
  1.00800000E+00  1.60000000E+01  1.00800000E+00  1.00800000E+00  1.60000000E+01
  1.00800000E+00  1.00800000E+00  1.60000000E+01  1.00800000E+00  1.00800000E+00
  1.60000000E+01  1.00800000E+00  1.00800000E+00  1.60000000E+01  1.00800000E+00
  1.00800000E+00  1.60000000E+01  1.00800000E+00  1.00800000E+00  1.60000000E+01
  1.00800000E+00  1.00800000E+00  1.60000000E+01  1.00800000E+00  1.00800000E+00
  1.60000000E+01  1.00800000E+00  1.00800000E+00  1.60000000E+01  1.00800000E+00
  1.00800000E+00  1.60000000E+01  1.00800000E+00  1.00800000E+00  1.60000000E+01
  1.00800000E+00  1.00800000E+00  1.60000000E+01  1.00800000E+00  1.00800000E+00
  1.60000000E+01  1.00800000E+00  1.00800000E+00  1.60000000E+01  1.00800000E+00
  1.00800000E+00  1.60000000E+01  1.00800000E+00  1.00800000E+00  1.60000000E+01
  1.00800000E+00  1.00800000E+00  1.60000000E+01  1.00800000E+00  1.00800000E+00
  1.60000000E+01  1.00800000E+00  1.00800000E+00  1.60000000E+01  1.00800000E+00
  1.00800000E+00  1.60000000E+01  1.00800000E+00  1.00800000E+00  1.60000000E+01
  1.00800000E+00  1.00800000E+00  1.60000000E+01  1.00800000E+00  1.00800000E+00
  1.60000000E+01  1.00800000E+00  1.00800000E+00  1.60000000E+01  1.00800000E+00
  1.00800000E+00  1.60000000E+01  1.00800000E+00  1.00800000E+00  1.60000000E+01
  1.00800000E+00  1.00800000E+00  1.60000000E+01  1.00800000E+00  1.00800000E+00
  1.60000000E+01  1.00800000E+00  1.00800000E+00  1.60000000E+01  1.00800000E+00
  1.00800000E+00  1.60000000E+01  1.00800000E+00  1.00800000E+00  1.60000000E+01
  1.00800000E+00  1.00800000E+00  1.60000000E+01  1.00800000E+00  1.00800000E+00
  1.60000000E+01  1.00800000E+00  1.00800000E+00  1.60000000E+01  1.00800000E+00
  1.00800000E+00  1.60000000E+01  1.00800000E+00  1.00800000E+00  1.60000000E+01
  1.00800000E+00  1.00800000E+00  1.60000000E+01  1.00800000E+00  1.00800000E+00
  1.60000000E+01  1.00800000E+00  1.00800000E+00  1.60000000E+01  1.00800000E+00
  1.00800000E+00  1.60000000E+01  1.00800000E+00  1.00800000E+00  1.60000000E+01
  1.00800000E+00  1.00800000E+00  1.60000000E+01  1.00800000E+00  1.00800000E+00
  1.60000000E+01  1.00800000E+00  1.00800000E+00  1.60000000E+01  1.00800000E+00
  1.00800000E+00  1.60000000E+01  1.00800000E+00  1.00800000E+00  1.60000000E+01
  1.00800000E+00  1.00800000E+00  1.60000000E+01  1.00800000E+00  1.00800000E+00
  1.60000000E+01  1.00800000E+00  1.00800000E+00  1.60000000E+01  1.00800000E+00
  1.00800000E+00  1.60000000E+01  1.00800000E+00  1.00800000E+00  1.60000000E+01
  1.00800000E+00  1.00800000E+00  1.60000000E+01  1.00800000E+00  1.00800000E+00
  1.60000000E+01  1.00800000E+00  1.00800000E+00  1.60000000E+01  1.00800000E+00
  1.00800000E+00  1.60000000E+01  1.00800000E+00  1.00800000E+00  1.60000000E+01
  1.00800000E+00  1.00800000E+00  1.60000000E+01  1.00800000E+00  1.00800000E+00
  1.60000000E+01  1.00800000E+00  1.00800000E+00  1.60000000E+01  1.00800000E+00
  1.00800000E+00  1.60000000E+01  1.00800000E+00  1.00800000E+00  1.60000000E+01
  1.00800000E+00  1.00800000E+00  1.60000000E+01  1.00800000E+00  1.00800000E+00
  1.60000000E+01  1.00800000E+00  1.00800000E+00  1.60000000E+01  1.00800000E+00
  1.00800000E+00  1.60000000E+01  1.00800000E+00  1.00800000E+00  1.60000000E+01
  1.00800000E+00  1.00800000E+00  1.60000000E+01  1.00800000E+00  1.00800000E+00
  1.60000000E+01  1.00800000E+00  1.00800000E+00  1.60000000E+01  1.00800000E+00
  1.00800000E+00  1.60000000E+01  1.00800000E+00  1.00800000E+00  1.60000000E+01
  1.00800000E+00  1.00800000E+00  1.60000000E+01  1.00800000E+00  1.00800000E+00
  1.60000000E+01  1.00800000E+00  1.00800000E+00  1.60000000E+01  1.00800000E+00
  1.00800000E+00  1.60000000E+01  1.00800000E+00  1.00800000E+00  1.60000000E+01
  1.00800000E+00  1.00800000E+00  1.60000000E+01  1.00800000E+00  1.00800000E+00
  1.60000000E+01  1.00800000E+00  1.00800000E+00  1.60000000E+01  1.00800000E+00
  1.00800000E+00  1.60000000E+01  1.00800000E+00  1.00800000E+00  1.60000000E+01
  1.00800000E+00  1.00800000E+00  1.60000000E+01  1.00800000E+00  1.00800000E+00
  1.60000000E+01  1.00800000E+00  1.00800000E+00  1.60000000E+01  1.00800000E+00
  1.00800000E+00  1.60000000E+01  1.00800000E+00  1.00800000E+00  1.60000000E+01
  1.00800000E+00  1.00800000E+00  1.60000000E+01  1.00800000E+00  1.00800000E+00
  1.60000000E+01  1.00800000E+00  1.00800000E+00  1.60000000E+01  1.00800000E+00
  1.00800000E+00  1.60000000E+01  1.00800000E+00  1.00800000E+00  1.60000000E+01
  1.00800000E+00  1.00800000E+00  1.60000000E+01  1.00800000E+00  1.00800000E+00
  1.60000000E+01  1.00800000E+00  1.00800000E+00  1.60000000E+01  1.00800000E+00
  1.00800000E+00  1.60000000E+01  1.00800000E+00  1.00800000E+00  1.60000000E+01
  1.00800000E+00  1.00800000E+00  1.60000000E+01  1.00800000E+00  1.00800000E+00
  1.60000000E+01  1.00800000E+00  1.00800000E+00  1.60000000E+01  1.00800000E+00
  1.00800000E+00  1.60000000E+01  1.00800000E+00  1.00800000E+00  1.60000000E+01
  1.00800000E+00  1.00800000E+00  1.60000000E+01  1.00800000E+00  1.00800000E+00
  1.60000000E+01  1.00800000E+00  1.00800000E+00  1.60000000E+01  1.00800000E+00
  1.00800000E+00  1.60000000E+01  1.00800000E+00  1.00800000E+00  1.60000000E+01
  1.00800000E+00  1.00800000E+00  1.60000000E+01  1.00800000E+00  1.00800000E+00
  1.60000000E+01  1.00800000E+00  1.00800000E+00  1.60000000E+01  1.00800000E+00
  1.00800000E+00  1.60000000E+01  1.00800000E+00  1.00800000E+00  1.60000000E+01
  1.00800000E+00  1.00800000E+00  1.60000000E+01  1.00800000E+00  1.00800000E+00
  1.60000000E+01  1.00800000E+00  1.00800000E+00  1.60000000E+01  1.00800000E+00
  1.00800000E+00  1.60000000E+01  1.00800000E+00  1.00800000E+00  1.60000000E+01
  1.00800000E+00  1.00800000E+00  1.60000000E+01  1.00800000E+00  1.00800000E+00
  1.60000000E+01  1.00800000E+00  1.00800000E+00  1.60000000E+01  1.00800000E+00
  1.00800000E+00  1.60000000E+01  1.00800000E+00  1.00800000E+00  1.60000000E+01
  1.00800000E+00  1.00800000E+00  1.60000000E+01  1.00800000E+00  1.00800000E+00
  1.60000000E+01  1.00800000E+00  1.00800000E+00  1.60000000E+01  1.00800000E+00
  1.00800000E+00  1.60000000E+01  1.00800000E+00  1.00800000E+00  1.60000000E+01
  1.00800000E+00  1.00800000E+00  1.60000000E+01  1.00800000E+00  1.00800000E+00
  1.60000000E+01  1.00800000E+00  1.00800000E+00  1.60000000E+01  1.00800000E+00
  1.00800000E+00  1.60000000E+01  1.00800000E+00  1.00800000E+00  1.60000000E+01
  1.00800000E+00  1.00800000E+00  1.60000000E+01  1.00800000E+00  1.00800000E+00
  1.60000000E+01  1.00800000E+00  1.00800000E+00  1.60000000E+01  1.00800000E+00
  1.00800000E+00  1.60000000E+01  1.00800000E+00  1.00800000E+00  1.60000000E+01
  1.00800000E+00  1.00800000E+00  1.60000000E+01  1.00800000E+00  1.00800000E+00
  1.60000000E+01  1.00800000E+00  1.00800000E+00  1.60000000E+01  1.00800000E+00
  1.00800000E+00  1.60000000E+01  1.00800000E+00  1.00800000E+00  1.60000000E+01
  1.00800000E+00  1.00800000E+00  1.60000000E+01  1.00800000E+00  1.00800000E+00
  1.60000000E+01  1.00800000E+00  1.00800000E+00  1.60000000E+01  1.00800000E+00
  1.00800000E+00  1.60000000E+01  1.00800000E+00  1.00800000E+00  1.60000000E+01
  1.00800000E+00  1.00800000E+00  1.60000000E+01  1.00800000E+00  1.00800000E+00
  1.60000000E+01  1.00800000E+00  1.00800000E+00  1.60000000E+01  1.00800000E+00
  1.00800000E+00  1.60000000E+01  1.00800000E+00  1.00800000E+00  1.60000000E+01
  1.00800000E+00  1.00800000E+00  1.60000000E+01  1.00800000E+00  1.00800000E+00
  1.60000000E+01  1.00800000E+00  1.00800000E+00  1.60000000E+01  1.00800000E+00
  1.00800000E+00  1.60000000E+01  1.00800000E+00  1.00800000E+00  1.60000000E+01
  1.00800000E+00  1.00800000E+00  1.60000000E+01  1.00800000E+00  1.00800000E+00
  1.60000000E+01  1.00800000E+00  1.00800000E+00  1.60000000E+01  1.00800000E+00
  1.00800000E+00  1.60000000E+01  1.00800000E+00  1.00800000E+00  1.60000000E+01
  1.00800000E+00  1.00800000E+00  1.60000000E+01  1.00800000E+00  1.00800000E+00
  1.60000000E+01  1.00800000E+00  1.00800000E+00  1.60000000E+01  1.00800000E+00
  1.00800000E+00  1.60000000E+01  1.00800000E+00  1.00800000E+00  1.60000000E+01
  1.00800000E+00  1.00800000E+00  1.60000000E+01  1.00800000E+00  1.00800000E+00
  1.60000000E+01  1.00800000E+00  1.00800000E+00  1.60000000E+01  1.00800000E+00
  1.00800000E+00  1.60000000E+01  1.00800000E+00  1.00800000E+00  1.60000000E+01
  1.00800000E+00  1.00800000E+00  1.60000000E+01  1.00800000E+00  1.00800000E+00
  1.60000000E+01  1.00800000E+00  1.00800000E+00  1.60000000E+01  1.00800000E+00
  1.00800000E+00  1.60000000E+01  1.00800000E+00  1.00800000E+00  1.60000000E+01
  1.00800000E+00  1.00800000E+00  1.60000000E+01  1.00800000E+00  1.00800000E+00
  1.60000000E+01  1.00800000E+00  1.00800000E+00  1.60000000E+01  1.00800000E+00
  1.00800000E+00  1.60000000E+01  1.00800000E+00  1.00800000E+00  1.60000000E+01
  1.00800000E+00  1.00800000E+00  1.60000000E+01  1.00800000E+00  1.00800000E+00
  1.60000000E+01  1.00800000E+00  1.00800000E+00  1.60000000E+01  1.00800000E+00
  1.00800000E+00  1.60000000E+01  1.00800000E+00  1.00800000E+00  1.60000000E+01
  1.00800000E+00  1.00800000E+00  1.60000000E+01  1.00800000E+00  1.00800000E+00
  1.60000000E+01  1.00800000E+00  1.00800000E+00  1.60000000E+01  1.00800000E+00
  1.00800000E+00  1.60000000E+01  1.00800000E+00  1.00800000E+00  1.60000000E+01
  1.00800000E+00  1.00800000E+00  1.60000000E+01  1.00800000E+00  1.00800000E+00
  1.60000000E+01  1.00800000E+00  1.00800000E+00  1.60000000E+01  1.00800000E+00
  1.00800000E+00  1.60000000E+01  1.00800000E+00  1.00800000E+00  1.60000000E+01
  1.00800000E+00  1.00800000E+00  1.60000000E+01  1.00800000E+00  1.00800000E+00
  1.60000000E+01  1.00800000E+00  1.00800000E+00  1.60000000E+01  1.00800000E+00
  1.00800000E+00  1.60000000E+01  1.00800000E+00  1.00800000E+00  1.60000000E+01
  1.00800000E+00  1.00800000E+00  1.60000000E+01  1.00800000E+00  1.00800000E+00
  1.60000000E+01  1.00800000E+00  1.00800000E+00  1.60000000E+01  1.00800000E+00
  1.00800000E+00  1.60000000E+01  1.00800000E+00  1.00800000E+00  1.60000000E+01
  1.00800000E+00  1.00800000E+00  1.60000000E+01  1.00800000E+00  1.00800000E+00
  1.60000000E+01  1.00800000E+00  1.00800000E+00  1.60000000E+01  1.00800000E+00
  1.00800000E+00  1.60000000E+01  1.00800000E+00  1.00800000E+00  1.60000000E+01
  1.00800000E+00  1.00800000E+00  1.60000000E+01  1.00800000E+00  1.00800000E+00
  1.60000000E+01  1.00800000E+00  1.00800000E+00  1.60000000E+01  1.00800000E+00
  1.00800000E+00  1.60000000E+01  1.00800000E+00  1.00800000E+00  1.60000000E+01
  1.00800000E+00  1.00800000E+00  1.60000000E+01  1.00800000E+00  1.00800000E+00
  1.60000000E+01  1.00800000E+00  1.00800000E+00  1.60000000E+01  1.00800000E+00
  1.00800000E+00  1.60000000E+01  1.00800000E+00  1.00800000E+00  1.60000000E+01
  1.00800000E+00  1.00800000E+00  1.60000000E+01  1.00800000E+00  1.00800000E+00
  1.60000000E+01  1.00800000E+00  1.00800000E+00  1.60000000E+01  1.00800000E+00
  1.00800000E+00  1.60000000E+01  1.00800000E+00  1.00800000E+00  1.60000000E+01
  1.00800000E+00  1.00800000E+00  1.60000000E+01  1.00800000E+00  1.00800000E+00
  1.60000000E+01  1.00800000E+00  1.00800000E+00  1.60000000E+01  1.00800000E+00
  1.00800000E+00  1.60000000E+01  1.00800000E+00  1.00800000E+00  1.60000000E+01
  1.00800000E+00  1.00800000E+00  1.60000000E+01  1.00800000E+00  1.00800000E+00
  1.60000000E+01  1.00800000E+00  1.00800000E+00  1.60000000E+01  1.00800000E+00
  1.00800000E+00  1.60000000E+01  1.00800000E+00  1.00800000E+00  1.60000000E+01
  1.00800000E+00  1.00800000E+00  1.60000000E+01  1.00800000E+00  1.00800000E+00
  1.60000000E+01  1.00800000E+00  1.00800000E+00  1.60000000E+01  1.00800000E+00
  1.00800000E+00  1.60000000E+01  1.00800000E+00  1.00800000E+00  1.60000000E+01
  1.00800000E+00  1.00800000E+00  1.60000000E+01  1.00800000E+00  1.00800000E+00
  1.60000000E+01  1.00800000E+00  1.00800000E+00  1.60000000E+01  1.00800000E+00
  1.00800000E+00  1.60000000E+01  1.00800000E+00  1.00800000E+00  1.60000000E+01
  1.00800000E+00  1.00800000E+00  1.60000000E+01  1.00800000E+00  1.00800000E+00
  1.60000000E+01  1.00800000E+00  1.00800000E+00  1.60000000E+01  1.00800000E+00
  1.00800000E+00  1.60000000E+01  1.00800000E+00  1.00800000E+00  1.60000000E+01
  1.00800000E+00  1.00800000E+00  1.60000000E+01  1.00800000E+00  1.00800000E+00
  1.60000000E+01  1.00800000E+00  1.00800000E+00  1.60000000E+01  1.00800000E+00
  1.00800000E+00  1.60000000E+01  1.00800000E+00  1.00800000E+00  1.60000000E+01
  1.00800000E+00  1.00800000E+00  1.60000000E+01  1.00800000E+00  1.00800000E+00
  1.60000000E+01  1.00800000E+00  1.00800000E+00  1.60000000E+01  1.00800000E+00
  1.00800000E+00  1.60000000E+01  1.00800000E+00  1.00800000E+00  1.60000000E+01
  1.00800000E+00  1.00800000E+00  1.60000000E+01  1.00800000E+00  1.00800000E+00
  1.60000000E+01  1.00800000E+00  1.00800000E+00  1.60000000E+01  1.00800000E+00
  1.00800000E+00  1.60000000E+01  1.00800000E+00  1.00800000E+00  1.60000000E+01
  1.00800000E+00  1.00800000E+00  1.60000000E+01  1.00800000E+00  1.00800000E+00
  1.60000000E+01  1.00800000E+00  1.00800000E+00  1.60000000E+01  1.00800000E+00
  1.00800000E+00  1.60000000E+01  1.00800000E+00  1.00800000E+00  1.60000000E+01
  1.00800000E+00  1.00800000E+00  1.60000000E+01  1.00800000E+00  1.00800000E+00
  1.60000000E+01  1.00800000E+00  1.00800000E+00  1.60000000E+01  1.00800000E+00
  1.00800000E+00  1.60000000E+01  1.00800000E+00  1.00800000E+00  1.60000000E+01
  1.00800000E+00  1.00800000E+00  1.60000000E+01  1.00800000E+00  1.00800000E+00
  1.60000000E+01  1.00800000E+00  1.00800000E+00  1.60000000E+01  1.00800000E+00
  1.00800000E+00  1.60000000E+01  1.00800000E+00  1.00800000E+00  1.60000000E+01
  1.00800000E+00  1.00800000E+00  1.60000000E+01  1.00800000E+00  1.00800000E+00
  1.60000000E+01  1.00800000E+00  1.00800000E+00  1.60000000E+01  1.00800000E+00
  1.00800000E+00  1.60000000E+01  1.00800000E+00  1.00800000E+00  1.60000000E+01
  1.00800000E+00  1.00800000E+00  1.60000000E+01  1.00800000E+00  1.00800000E+00
  1.60000000E+01  1.00800000E+00  1.00800000E+00  1.60000000E+01  1.00800000E+00
  1.00800000E+00  1.60000000E+01  1.00800000E+00  1.00800000E+00  1.60000000E+01
  1.00800000E+00  1.00800000E+00  1.60000000E+01  1.00800000E+00  1.00800000E+00
  1.60000000E+01  1.00800000E+00  1.00800000E+00  1.60000000E+01  1.00800000E+00
  1.00800000E+00  1.60000000E+01  1.00800000E+00  1.00800000E+00  1.60000000E+01
  1.00800000E+00  1.00800000E+00  1.60000000E+01  1.00800000E+00  1.00800000E+00
  1.60000000E+01  1.00800000E+00  1.00800000E+00  1.60000000E+01  1.00800000E+00
  1.00800000E+00  1.60000000E+01  1.00800000E+00  1.00800000E+00  1.60000000E+01
  1.00800000E+00  1.00800000E+00  1.60000000E+01  1.00800000E+00  1.00800000E+00
  1.60000000E+01  1.00800000E+00  1.00800000E+00  1.60000000E+01  1.00800000E+00
  1.00800000E+00  1.60000000E+01  1.00800000E+00  1.00800000E+00  1.60000000E+01
  1.00800000E+00  1.00800000E+00  1.60000000E+01  1.00800000E+00  1.00800000E+00
  1.60000000E+01  1.00800000E+00  1.00800000E+00  1.60000000E+01  1.00800000E+00
  1.00800000E+00  1.60000000E+01  1.00800000E+00  1.00800000E+00  1.60000000E+01
  1.00800000E+00  1.00800000E+00  1.60000000E+01  1.00800000E+00  1.00800000E+00
  1.60000000E+01  1.00800000E+00  1.00800000E+00  1.60000000E+01  1.00800000E+00
  1.00800000E+00  1.60000000E+01  1.00800000E+00  1.00800000E+00  1.60000000E+01
  1.00800000E+00  1.00800000E+00  1.60000000E+01  1.00800000E+00  1.00800000E+00
  1.60000000E+01  1.00800000E+00  1.00800000E+00  1.60000000E+01  1.00800000E+00
  1.00800000E+00  1.60000000E+01  1.00800000E+00  1.00800000E+00  1.60000000E+01
  1.00800000E+00  1.00800000E+00  1.60000000E+01  1.00800000E+00  1.00800000E+00
  1.60000000E+01  1.00800000E+00  1.00800000E+00  1.60000000E+01  1.00800000E+00
  1.00800000E+00  1.60000000E+01  1.00800000E+00  1.00800000E+00  1.60000000E+01
  1.00800000E+00  1.00800000E+00  1.60000000E+01  1.00800000E+00  1.00800000E+00
  1.60000000E+01  1.00800000E+00  1.00800000E+00  1.60000000E+01  1.00800000E+00
  1.00800000E+00  1.60000000E+01  1.00800000E+00  1.00800000E+00  1.60000000E+01
  1.00800000E+00  1.00800000E+00  1.60000000E+01  1.00800000E+00  1.00800000E+00
  1.60000000E+01  1.00800000E+00  1.00800000E+00  1.60000000E+01  1.00800000E+00
  1.00800000E+00  1.60000000E+01  1.00800000E+00  1.00800000E+00  1.60000000E+01
  1.00800000E+00  1.00800000E+00  1.60000000E+01  1.00800000E+00  1.00800000E+00
  1.60000000E+01  1.00800000E+00  1.00800000E+00  1.60000000E+01  1.00800000E+00
  1.00800000E+00  1.60000000E+01  1.00800000E+00  1.00800000E+00  1.60000000E+01
  1.00800000E+00  1.00800000E+00  1.60000000E+01  1.00800000E+00  1.00800000E+00
  1.60000000E+01  1.00800000E+00  1.00800000E+00  1.60000000E+01  1.00800000E+00
  1.00800000E+00  1.60000000E+01  1.00800000E+00  1.00800000E+00  1.60000000E+01
  1.00800000E+00  1.00800000E+00  1.60000000E+01  1.00800000E+00  1.00800000E+00
  1.60000000E+01  1.00800000E+00  1.00800000E+00  1.60000000E+01  1.00800000E+00
  1.00800000E+00  1.60000000E+01  1.00800000E+00  1.00800000E+00  1.60000000E+01
  1.00800000E+00  1.00800000E+00  1.60000000E+01  1.00800000E+00  1.00800000E+00
  1.60000000E+01  1.00800000E+00  1.00800000E+00  1.60000000E+01  1.00800000E+00
  1.00800000E+00  1.60000000E+01  1.00800000E+00  1.00800000E+00  1.60000000E+01
  1.00800000E+00  1.00800000E+00  1.60000000E+01  1.00800000E+00  1.00800000E+00
  1.60000000E+01  1.00800000E+00  1.00800000E+00  1.60000000E+01  1.00800000E+00
  1.00800000E+00  1.60000000E+01  1.00800000E+00  1.00800000E+00  1.60000000E+01
  1.00800000E+00  1.00800000E+00  1.60000000E+01  1.00800000E+00  1.00800000E+00
  1.60000000E+01  1.00800000E+00  1.00800000E+00  1.60000000E+01  1.00800000E+00
  1.00800000E+00  1.60000000E+01  1.00800000E+00  1.00800000E+00  1.60000000E+01
  1.00800000E+00  1.00800000E+00  1.60000000E+01  1.00800000E+00  1.00800000E+00
  1.60000000E+01  1.00800000E+00  1.00800000E+00  1.60000000E+01  1.00800000E+00
  1.00800000E+00  1.60000000E+01  1.00800000E+00  1.00800000E+00  1.60000000E+01
  1.00800000E+00  1.00800000E+00  1.60000000E+01  1.00800000E+00  1.00800000E+00
  1.60000000E+01  1.00800000E+00  1.00800000E+00  1.60000000E+01  1.00800000E+00
  1.00800000E+00  1.60000000E+01  1.00800000E+00  1.00800000E+00  1.60000000E+01
  1.00800000E+00  1.00800000E+00  1.60000000E+01  1.00800000E+00  1.00800000E+00
  1.60000000E+01  1.00800000E+00  1.00800000E+00  1.60000000E+01  1.00800000E+00
  1.00800000E+00  1.60000000E+01  1.00800000E+00  1.00800000E+00  1.60000000E+01
  1.00800000E+00  1.00800000E+00  1.60000000E+01  1.00800000E+00  1.00800000E+00
  1.60000000E+01  1.00800000E+00  1.00800000E+00  1.60000000E+01  1.00800000E+00
  1.00800000E+00  1.60000000E+01  1.00800000E+00  1.00800000E+00  1.60000000E+01
  1.00800000E+00  1.00800000E+00  1.60000000E+01  1.00800000E+00  1.00800000E+00
  1.60000000E+01  1.00800000E+00  1.00800000E+00  1.60000000E+01  1.00800000E+00
  1.00800000E+00  1.60000000E+01  1.00800000E+00  1.00800000E+00  1.60000000E+01
  1.00800000E+00  1.00800000E+00  1.60000000E+01  1.00800000E+00  1.00800000E+00
  1.60000000E+01  1.00800000E+00  1.00800000E+00  1.60000000E+01  1.00800000E+00
  1.00800000E+00  1.60000000E+01  1.00800000E+00  1.00800000E+00  1.60000000E+01
  1.00800000E+00  1.00800000E+00  1.60000000E+01  1.00800000E+00  1.00800000E+00
  1.60000000E+01  1.00800000E+00  1.00800000E+00  1.60000000E+01  1.00800000E+00
  1.00800000E+00  1.60000000E+01  1.00800000E+00  1.00800000E+00  1.60000000E+01
  1.00800000E+00  1.00800000E+00  1.60000000E+01  1.00800000E+00  1.00800000E+00
  1.60000000E+01  1.00800000E+00  1.00800000E+00  1.60000000E+01  1.00800000E+00
  1.00800000E+00  1.60000000E+01  1.00800000E+00  1.00800000E+00  1.60000000E+01
  1.00800000E+00  1.00800000E+00  1.60000000E+01  1.00800000E+00  1.00800000E+00
  1.60000000E+01  1.00800000E+00  1.00800000E+00  1.60000000E+01  1.00800000E+00
  1.00800000E+00  1.60000000E+01  1.00800000E+00  1.00800000E+00  1.60000000E+01
  1.00800000E+00  1.00800000E+00  1.60000000E+01  1.00800000E+00  1.00800000E+00
  1.60000000E+01  1.00800000E+00  1.00800000E+00  1.60000000E+01  1.00800000E+00
  1.00800000E+00  1.60000000E+01  1.00800000E+00  1.00800000E+00  1.60000000E+01
  1.00800000E+00  1.00800000E+00  1.60000000E+01  1.00800000E+00  1.00800000E+00
  1.60000000E+01  1.00800000E+00  1.00800000E+00  1.60000000E+01  1.00800000E+00
  1.00800000E+00  1.60000000E+01  1.00800000E+00  1.00800000E+00  1.60000000E+01
  1.00800000E+00  1.00800000E+00  1.60000000E+01  1.00800000E+00  1.00800000E+00
  1.60000000E+01  1.00800000E+00  1.00800000E+00  1.60000000E+01  1.00800000E+00
  1.00800000E+00  1.60000000E+01  1.00800000E+00  1.00800000E+00  1.60000000E+01
  1.00800000E+00  1.00800000E+00  1.60000000E+01  1.00800000E+00  1.00800000E+00
  1.60000000E+01  1.00800000E+00  1.00800000E+00  1.60000000E+01  1.00800000E+00
  1.00800000E+00  1.60000000E+01  1.00800000E+00  1.00800000E+00  1.60000000E+01
  1.00800000E+00  1.00800000E+00  1.60000000E+01  1.00800000E+00  1.00800000E+00
  1.60000000E+01  1.00800000E+00  1.00800000E+00  1.60000000E+01  1.00800000E+00
  1.00800000E+00  1.60000000E+01  1.00800000E+00  1.00800000E+00  1.60000000E+01
  1.00800000E+00  1.00800000E+00  1.60000000E+01  1.00800000E+00  1.00800000E+00
  1.60000000E+01  1.00800000E+00  1.00800000E+00  1.60000000E+01  1.00800000E+00
  1.00800000E+00  1.60000000E+01  1.00800000E+00  1.00800000E+00  1.60000000E+01
  1.00800000E+00  1.00800000E+00  1.60000000E+01  1.00800000E+00  1.00800000E+00
  1.60000000E+01  1.00800000E+00  1.00800000E+00  1.60000000E+01  1.00800000E+00
  1.00800000E+00  1.60000000E+01  1.00800000E+00  1.00800000E+00  1.60000000E+01
  1.00800000E+00  1.00800000E+00  1.60000000E+01  1.00800000E+00  1.00800000E+00
  1.60000000E+01  1.00800000E+00  1.00800000E+00  1.60000000E+01  1.00800000E+00
  1.00800000E+00  1.60000000E+01  1.00800000E+00  1.00800000E+00  1.60000000E+01
  1.00800000E+00  1.00800000E+00  1.60000000E+01  1.00800000E+00  1.00800000E+00
  1.60000000E+01  1.00800000E+00  1.00800000E+00  1.60000000E+01  1.00800000E+00
  1.00800000E+00  1.60000000E+01  1.00800000E+00  1.00800000E+00  1.60000000E+01
  1.00800000E+00  1.00800000E+00  1.60000000E+01  1.00800000E+00  1.00800000E+00
  1.60000000E+01  1.00800000E+00  1.00800000E+00  1.60000000E+01  1.00800000E+00
  1.00800000E+00  1.60000000E+01  1.00800000E+00  1.00800000E+00  1.60000000E+01
  1.00800000E+00  1.00800000E+00  1.60000000E+01  1.00800000E+00  1.00800000E+00
  1.60000000E+01  1.00800000E+00  1.00800000E+00  1.60000000E+01  1.00800000E+00
  1.00800000E+00  1.60000000E+01  1.00800000E+00  1.00800000E+00  1.60000000E+01
  1.00800000E+00  1.00800000E+00  1.60000000E+01  1.00800000E+00  1.00800000E+00
  1.60000000E+01  1.00800000E+00  1.00800000E+00  1.60000000E+01  1.00800000E+00
  1.00800000E+00  1.60000000E+01  1.00800000E+00  1.00800000E+00  1.60000000E+01
  1.00800000E+00  1.00800000E+00  1.60000000E+01  1.00800000E+00  1.00800000E+00
  1.60000000E+01  1.00800000E+00  1.00800000E+00  1.60000000E+01  1.00800000E+00
  1.00800000E+00  1.60000000E+01  1.00800000E+00  1.00800000E+00  1.60000000E+01
  1.00800000E+00  1.00800000E+00  1.60000000E+01  1.00800000E+00  1.00800000E+00
  1.60000000E+01  1.00800000E+00  1.00800000E+00  1.60000000E+01  1.00800000E+00
  1.00800000E+00  1.60000000E+01  1.00800000E+00  1.00800000E+00  1.60000000E+01
  1.00800000E+00  1.00800000E+00  1.60000000E+01  1.00800000E+00  1.00800000E+00
  1.60000000E+01  1.00800000E+00  1.00800000E+00  1.60000000E+01  1.00800000E+00
  1.00800000E+00  1.60000000E+01  1.00800000E+00  1.00800000E+00  1.60000000E+01
  1.00800000E+00  1.00800000E+00  1.60000000E+01  1.00800000E+00  1.00800000E+00
  1.60000000E+01  1.00800000E+00  1.00800000E+00  1.60000000E+01  1.00800000E+00
  1.00800000E+00  1.60000000E+01  1.00800000E+00  1.00800000E+00  1.60000000E+01
  1.00800000E+00  1.00800000E+00  1.60000000E+01  1.00800000E+00  1.00800000E+00
  1.60000000E+01  1.00800000E+00  1.00800000E+00  1.60000000E+01  1.00800000E+00
  1.00800000E+00  1.60000000E+01  1.00800000E+00  1.00800000E+00  1.60000000E+01
  1.00800000E+00  1.00800000E+00  1.60000000E+01  1.00800000E+00  1.00800000E+00
  1.60000000E+01  1.00800000E+00  1.00800000E+00  1.60000000E+01  1.00800000E+00
  1.00800000E+00  1.60000000E+01  1.00800000E+00  1.00800000E+00  1.60000000E+01
  1.00800000E+00  1.00800000E+00  1.60000000E+01  1.00800000E+00  1.00800000E+00
  1.60000000E+01  1.00800000E+00  1.00800000E+00  1.60000000E+01  1.00800000E+00
  1.00800000E+00  1.60000000E+01  1.00800000E+00  1.00800000E+00  1.60000000E+01
  1.00800000E+00  1.00800000E+00  1.60000000E+01  1.00800000E+00  1.00800000E+00
  1.60000000E+01  1.00800000E+00  1.00800000E+00  1.60000000E+01  1.00800000E+00
  1.00800000E+00  1.60000000E+01  1.00800000E+00  1.00800000E+00  1.60000000E+01
  1.00800000E+00  1.00800000E+00  1.60000000E+01  1.00800000E+00  1.00800000E+00
  1.60000000E+01  1.00800000E+00  1.00800000E+00  1.60000000E+01  1.00800000E+00
  1.00800000E+00  1.60000000E+01  1.00800000E+00  1.00800000E+00  1.60000000E+01
  1.00800000E+00  1.00800000E+00  1.60000000E+01  1.00800000E+00  1.00800000E+00
  1.60000000E+01  1.00800000E+00  1.00800000E+00  1.60000000E+01  1.00800000E+00
  1.00800000E+00  1.60000000E+01  1.00800000E+00  1.00800000E+00  1.60000000E+01
  1.00800000E+00  1.00800000E+00  1.60000000E+01  1.00800000E+00  1.00800000E+00
  1.60000000E+01  1.00800000E+00  1.00800000E+00  1.60000000E+01  1.00800000E+00
  1.00800000E+00  1.60000000E+01  1.00800000E+00  1.00800000E+00  1.60000000E+01
  1.00800000E+00  1.00800000E+00  1.60000000E+01  1.00800000E+00  1.00800000E+00
  1.60000000E+01  1.00800000E+00  1.00800000E+00  1.60000000E+01  1.00800000E+00
  1.00800000E+00  1.60000000E+01  1.00800000E+00  1.00800000E+00  1.60000000E+01
  1.00800000E+00  1.00800000E+00  1.60000000E+01  1.00800000E+00  1.00800000E+00
  1.60000000E+01  1.00800000E+00  1.00800000E+00  1.60000000E+01  1.00800000E+00
  1.00800000E+00  1.60000000E+01  1.00800000E+00  1.00800000E+00  1.60000000E+01
  1.00800000E+00  1.00800000E+00  1.60000000E+01  1.00800000E+00  1.00800000E+00
  1.60000000E+01  1.00800000E+00  1.00800000E+00  1.60000000E+01  1.00800000E+00
  1.00800000E+00  1.60000000E+01  1.00800000E+00  1.00800000E+00  1.60000000E+01
  1.00800000E+00  1.00800000E+00  1.60000000E+01  1.00800000E+00  1.00800000E+00
  1.60000000E+01  1.00800000E+00  1.00800000E+00  1.60000000E+01  1.00800000E+00
  1.00800000E+00  1.60000000E+01  1.00800000E+00  1.00800000E+00  1.60000000E+01
  1.00800000E+00  1.00800000E+00  1.60000000E+01  1.00800000E+00  1.00800000E+00
  1.60000000E+01  1.00800000E+00  1.00800000E+00  1.60000000E+01  1.00800000E+00
  1.00800000E+00  1.60000000E+01  1.00800000E+00  1.00800000E+00  1.60000000E+01
  1.00800000E+00  1.00800000E+00  1.60000000E+01  1.00800000E+00  1.00800000E+00
  1.60000000E+01  1.00800000E+00  1.00800000E+00  1.60000000E+01  1.00800000E+00
  1.00800000E+00  1.60000000E+01  1.00800000E+00  1.00800000E+00  1.60000000E+01
  1.00800000E+00  1.00800000E+00  1.60000000E+01  1.00800000E+00  1.00800000E+00
  1.60000000E+01  1.00800000E+00  1.00800000E+00  1.60000000E+01  1.00800000E+00
  1.00800000E+00  1.60000000E+01  1.00800000E+00  1.00800000E+00  1.60000000E+01
  1.00800000E+00  1.00800000E+00  1.60000000E+01  1.00800000E+00  1.00800000E+00
  1.60000000E+01  1.00800000E+00  1.00800000E+00  1.60000000E+01  1.00800000E+00
  1.00800000E+00  1.60000000E+01  1.00800000E+00  1.00800000E+00  1.60000000E+01
  1.00800000E+00  1.00800000E+00  1.60000000E+01  1.00800000E+00  1.00800000E+00
  1.60000000E+01  1.00800000E+00  1.00800000E+00  1.60000000E+01  1.00800000E+00
  1.00800000E+00  1.60000000E+01  1.00800000E+00  1.00800000E+00  1.60000000E+01
  1.00800000E+00  1.00800000E+00  1.60000000E+01  1.00800000E+00  1.00800000E+00
  1.60000000E+01  1.00800000E+00  1.00800000E+00  1.60000000E+01  1.00800000E+00
  1.00800000E+00  1.60000000E+01  1.00800000E+00  1.00800000E+00  1.60000000E+01
  1.00800000E+00  1.00800000E+00  1.60000000E+01  1.00800000E+00  1.00800000E+00
  1.60000000E+01  1.00800000E+00  1.00800000E+00  1.60000000E+01  1.00800000E+00
  1.00800000E+00  1.60000000E+01  1.00800000E+00  1.00800000E+00  1.60000000E+01
  1.00800000E+00  1.00800000E+00  1.60000000E+01  1.00800000E+00  1.00800000E+00
  1.60000000E+01  1.00800000E+00  1.00800000E+00  1.60000000E+01  1.00800000E+00
  1.00800000E+00  1.60000000E+01  1.00800000E+00  1.00800000E+00  1.60000000E+01
  1.00800000E+00  1.00800000E+00  1.60000000E+01  1.00800000E+00  1.00800000E+00
  1.60000000E+01  1.00800000E+00  1.00800000E+00  1.60000000E+01  1.00800000E+00
  1.00800000E+00  1.60000000E+01  1.00800000E+00  1.00800000E+00  1.60000000E+01
  1.00800000E+00  1.00800000E+00  1.60000000E+01  1.00800000E+00  1.00800000E+00
  1.60000000E+01  1.00800000E+00  1.00800000E+00  1.60000000E+01  1.00800000E+00
  1.00800000E+00  1.60000000E+01  1.00800000E+00  1.00800000E+00  1.60000000E+01
  1.00800000E+00  1.00800000E+00  1.60000000E+01  1.00800000E+00  1.00800000E+00
  1.60000000E+01  1.00800000E+00  1.00800000E+00  1.60000000E+01  1.00800000E+00
  1.00800000E+00  1.60000000E+01  1.00800000E+00  1.00800000E+00  1.60000000E+01
  1.00800000E+00  1.00800000E+00  1.60000000E+01  1.00800000E+00  1.00800000E+00
  1.60000000E+01  1.00800000E+00  1.00800000E+00  1.60000000E+01  1.00800000E+00
  1.00800000E+00  1.60000000E+01  1.00800000E+00  1.00800000E+00  1.60000000E+01
  1.00800000E+00  1.00800000E+00  1.60000000E+01  1.00800000E+00  1.00800000E+00
  1.60000000E+01  1.00800000E+00  1.00800000E+00  1.60000000E+01  1.00800000E+00
  1.00800000E+00  1.60000000E+01  1.00800000E+00  1.00800000E+00  1.60000000E+01
  1.00800000E+00  1.00800000E+00  1.60000000E+01  1.00800000E+00  1.00800000E+00
  1.60000000E+01  1.00800000E+00  1.00800000E+00  1.60000000E+01  1.00800000E+00
  1.00800000E+00  1.60000000E+01  1.00800000E+00  1.00800000E+00  1.60000000E+01
  1.00800000E+00  1.00800000E+00  1.60000000E+01  1.00800000E+00  1.00800000E+00
  1.60000000E+01  1.00800000E+00  1.00800000E+00  1.60000000E+01  1.00800000E+00
  1.00800000E+00  1.60000000E+01  1.00800000E+00  1.00800000E+00  1.60000000E+01
  1.00800000E+00  1.00800000E+00  1.60000000E+01  1.00800000E+00  1.00800000E+00
  1.60000000E+01  1.00800000E+00  1.00800000E+00  1.60000000E+01  1.00800000E+00
  1.00800000E+00  1.60000000E+01  1.00800000E+00  1.00800000E+00  1.60000000E+01
  1.00800000E+00  1.00800000E+00  1.60000000E+01  1.00800000E+00  1.00800000E+00
  1.60000000E+01  1.00800000E+00  1.00800000E+00  1.60000000E+01  1.00800000E+00
  1.00800000E+00  1.60000000E+01  1.00800000E+00  1.00800000E+00  1.60000000E+01
  1.00800000E+00  1.00800000E+00  1.60000000E+01  1.00800000E+00  1.00800000E+00
  1.60000000E+01  1.00800000E+00  1.00800000E+00  1.60000000E+01  1.00800000E+00
  1.00800000E+00  1.60000000E+01  1.00800000E+00  1.00800000E+00  1.60000000E+01
  1.00800000E+00  1.00800000E+00  1.60000000E+01  1.00800000E+00  1.00800000E+00
  1.60000000E+01  1.00800000E+00  1.00800000E+00  1.60000000E+01  1.00800000E+00
  1.00800000E+00  1.60000000E+01  1.00800000E+00  1.00800000E+00  1.60000000E+01
  1.00800000E+00  1.00800000E+00  1.60000000E+01  1.00800000E+00  1.00800000E+00
  1.60000000E+01  1.00800000E+00  1.00800000E+00  1.60000000E+01  1.00800000E+00
  1.00800000E+00  1.60000000E+01  1.00800000E+00  1.00800000E+00  1.60000000E+01
  1.00800000E+00  1.00800000E+00  1.60000000E+01  1.00800000E+00  1.00800000E+00
  1.60000000E+01  1.00800000E+00  1.00800000E+00  1.60000000E+01  1.00800000E+00
  1.00800000E+00  1.60000000E+01  1.00800000E+00  1.00800000E+00  1.60000000E+01
  1.00800000E+00  1.00800000E+00  1.60000000E+01  1.00800000E+00  1.00800000E+00
  1.60000000E+01  1.00800000E+00  1.00800000E+00  1.60000000E+01  1.00800000E+00
  1.00800000E+00  1.60000000E+01  1.00800000E+00  1.00800000E+00  1.60000000E+01
  1.00800000E+00  1.00800000E+00  1.60000000E+01  1.00800000E+00  1.00800000E+00
  1.60000000E+01  1.00800000E+00  1.00800000E+00  1.60000000E+01  1.00800000E+00
  1.00800000E+00  1.60000000E+01  1.00800000E+00  1.00800000E+00  1.60000000E+01
  1.00800000E+00  1.00800000E+00  1.60000000E+01  1.00800000E+00  1.00800000E+00
  1.60000000E+01  1.00800000E+00  1.00800000E+00  1.60000000E+01  1.00800000E+00
  1.00800000E+00  1.60000000E+01  1.00800000E+00  1.00800000E+00  1.60000000E+01
  1.00800000E+00  1.00800000E+00  1.60000000E+01  1.00800000E+00  1.00800000E+00
  1.60000000E+01  1.00800000E+00  1.00800000E+00  1.60000000E+01  1.00800000E+00
  1.00800000E+00  1.60000000E+01  1.00800000E+00  1.00800000E+00  1.60000000E+01
  1.00800000E+00  1.00800000E+00  1.60000000E+01  1.00800000E+00  1.00800000E+00
  1.60000000E+01  1.00800000E+00  1.00800000E+00  1.60000000E+01  1.00800000E+00
  1.00800000E+00  1.60000000E+01  1.00800000E+00  1.00800000E+00  1.60000000E+01
  1.00800000E+00  1.00800000E+00  1.60000000E+01  1.00800000E+00  1.00800000E+00
  1.60000000E+01  1.00800000E+00  1.00800000E+00  1.60000000E+01  1.00800000E+00
  1.00800000E+00  1.60000000E+01  1.00800000E+00  1.00800000E+00  1.60000000E+01
  1.00800000E+00  1.00800000E+00  1.60000000E+01  1.00800000E+00  1.00800000E+00
  1.60000000E+01  1.00800000E+00  1.00800000E+00  1.60000000E+01  1.00800000E+00
  1.00800000E+00  1.60000000E+01  1.00800000E+00  1.00800000E+00  1.60000000E+01
  1.00800000E+00  1.00800000E+00  1.60000000E+01  1.00800000E+00  1.00800000E+00
  1.60000000E+01  1.00800000E+00  1.00800000E+00  1.60000000E+01  1.00800000E+00
  1.00800000E+00  1.60000000E+01  1.00800000E+00  1.00800000E+00  1.60000000E+01
  1.00800000E+00  1.00800000E+00  1.60000000E+01  1.00800000E+00  1.00800000E+00
  1.60000000E+01  1.00800000E+00  1.00800000E+00  1.60000000E+01  1.00800000E+00
  1.00800000E+00  1.60000000E+01  1.00800000E+00  1.00800000E+00  1.60000000E+01
  1.00800000E+00  1.00800000E+00  1.60000000E+01  1.00800000E+00  1.00800000E+00
  1.60000000E+01  1.00800000E+00  1.00800000E+00  1.60000000E+01  1.00800000E+00
  1.00800000E+00  1.60000000E+01  1.00800000E+00  1.00800000E+00  1.60000000E+01
  1.00800000E+00  1.00800000E+00  1.60000000E+01  1.00800000E+00  1.00800000E+00
  1.60000000E+01  1.00800000E+00  1.00800000E+00  1.60000000E+01  1.00800000E+00
  1.00800000E+00  1.60000000E+01  1.00800000E+00  1.00800000E+00  1.60000000E+01
  1.00800000E+00  1.00800000E+00  1.60000000E+01  1.00800000E+00  1.00800000E+00
  1.60000000E+01  1.00800000E+00  1.00800000E+00  1.60000000E+01  1.00800000E+00
  1.00800000E+00  1.60000000E+01  1.00800000E+00  1.00800000E+00  1.60000000E+01
  1.00800000E+00  1.00800000E+00  1.60000000E+01  1.00800000E+00  1.00800000E+00
  1.60000000E+01  1.00800000E+00  1.00800000E+00  1.60000000E+01  1.00800000E+00
  1.00800000E+00  1.60000000E+01  1.00800000E+00  1.00800000E+00  1.60000000E+01
  1.00800000E+00  1.00800000E+00  1.60000000E+01  1.00800000E+00  1.00800000E+00
  1.60000000E+01  1.00800000E+00  1.00800000E+00  1.60000000E+01  1.00800000E+00
  1.00800000E+00  1.60000000E+01  1.00800000E+00  1.00800000E+00  1.60000000E+01
  1.00800000E+00  1.00800000E+00  1.60000000E+01  1.00800000E+00  1.00800000E+00
  1.60000000E+01  1.00800000E+00  1.00800000E+00  1.60000000E+01  1.00800000E+00
  1.00800000E+00  1.60000000E+01  1.00800000E+00  1.00800000E+00  1.60000000E+01
  1.00800000E+00  1.00800000E+00  1.60000000E+01  1.00800000E+00  1.00800000E+00
  1.60000000E+01  1.00800000E+00  1.00800000E+00  1.60000000E+01  1.00800000E+00
  1.00800000E+00  1.60000000E+01  1.00800000E+00  1.00800000E+00  1.60000000E+01
  1.00800000E+00  1.00800000E+00  1.60000000E+01  1.00800000E+00  1.00800000E+00
  1.60000000E+01  1.00800000E+00  1.00800000E+00  1.60000000E+01  1.00800000E+00
  1.00800000E+00  1.60000000E+01  1.00800000E+00  1.00800000E+00  1.60000000E+01
  1.00800000E+00  1.00800000E+00  1.60000000E+01  1.00800000E+00  1.00800000E+00
  1.60000000E+01  1.00800000E+00  1.00800000E+00  1.60000000E+01  1.00800000E+00
  1.00800000E+00  1.60000000E+01  1.00800000E+00  1.00800000E+00  1.60000000E+01
  1.00800000E+00  1.00800000E+00  1.60000000E+01  1.00800000E+00  1.00800000E+00
  1.60000000E+01  1.00800000E+00  1.00800000E+00  1.60000000E+01  1.00800000E+00
  1.00800000E+00  1.60000000E+01  1.00800000E+00  1.00800000E+00  1.60000000E+01
  1.00800000E+00  1.00800000E+00  1.60000000E+01  1.00800000E+00  1.00800000E+00
  1.60000000E+01  1.00800000E+00  1.00800000E+00  1.60000000E+01  1.00800000E+00
  1.00800000E+00  1.60000000E+01  1.00800000E+00  1.00800000E+00  1.60000000E+01
  1.00800000E+00  1.00800000E+00  1.60000000E+01  1.00800000E+00  1.00800000E+00
  1.60000000E+01  1.00800000E+00  1.00800000E+00  1.60000000E+01  1.00800000E+00
  1.00800000E+00  1.60000000E+01  1.00800000E+00  1.00800000E+00  1.60000000E+01
  1.00800000E+00  1.00800000E+00  1.60000000E+01  1.00800000E+00  1.00800000E+00
  1.60000000E+01  1.00800000E+00  1.00800000E+00  1.60000000E+01  1.00800000E+00
  1.00800000E+00  1.60000000E+01  1.00800000E+00  1.00800000E+00  1.60000000E+01
  1.00800000E+00  1.00800000E+00  1.60000000E+01  1.00800000E+00  1.00800000E+00
  1.60000000E+01  1.00800000E+00  1.00800000E+00  1.60000000E+01  1.00800000E+00
  1.00800000E+00  1.60000000E+01  1.00800000E+00  1.00800000E+00  1.60000000E+01
  1.00800000E+00  1.00800000E+00  1.60000000E+01  1.00800000E+00  1.00800000E+00
  1.60000000E+01  1.00800000E+00  1.00800000E+00  1.60000000E+01  1.00800000E+00
  1.00800000E+00  1.60000000E+01  1.00800000E+00  1.00800000E+00  1.60000000E+01
  1.00800000E+00  1.00800000E+00  1.60000000E+01  1.00800000E+00  1.00800000E+00
  1.60000000E+01  1.00800000E+00  1.00800000E+00  1.60000000E+01  1.00800000E+00
  1.00800000E+00  1.60000000E+01  1.00800000E+00  1.00800000E+00  1.60000000E+01
  1.00800000E+00  1.00800000E+00  1.60000000E+01  1.00800000E+00  1.00800000E+00
  1.60000000E+01  1.00800000E+00  1.00800000E+00  1.60000000E+01  1.00800000E+00
  1.00800000E+00  1.60000000E+01  1.00800000E+00  1.00800000E+00  1.60000000E+01
  1.00800000E+00  1.00800000E+00  1.60000000E+01  1.00800000E+00  1.00800000E+00
  1.60000000E+01  1.00800000E+00  1.00800000E+00  1.60000000E+01  1.00800000E+00
  1.00800000E+00  1.60000000E+01  1.00800000E+00  1.00800000E+00  1.60000000E+01
  1.00800000E+00  1.00800000E+00  1.60000000E+01  1.00800000E+00  1.00800000E+00
  1.60000000E+01  1.00800000E+00  1.00800000E+00  1.60000000E+01  1.00800000E+00
  1.00800000E+00  1.60000000E+01  1.00800000E+00  1.00800000E+00  1.60000000E+01
  1.00800000E+00  1.00800000E+00  1.60000000E+01  1.00800000E+00  1.00800000E+00
  1.60000000E+01  1.00800000E+00  1.00800000E+00  1.60000000E+01  1.00800000E+00
  1.00800000E+00  1.60000000E+01  1.00800000E+00  1.00800000E+00  1.60000000E+01
  1.00800000E+00  1.00800000E+00  1.60000000E+01  1.00800000E+00  1.00800000E+00
  1.60000000E+01  1.00800000E+00  1.00800000E+00  1.60000000E+01  1.00800000E+00
  1.00800000E+00  1.60000000E+01  1.00800000E+00  1.00800000E+00  1.60000000E+01
  1.00800000E+00  1.00800000E+00  1.60000000E+01  1.00800000E+00  1.00800000E+00
  1.60000000E+01  1.00800000E+00  1.00800000E+00  1.60000000E+01  1.00800000E+00
  1.00800000E+00  1.60000000E+01  1.00800000E+00  1.00800000E+00  1.60000000E+01
  1.00800000E+00  1.00800000E+00  1.60000000E+01  1.00800000E+00  1.00800000E+00
  1.60000000E+01  1.00800000E+00  1.00800000E+00  1.60000000E+01  1.00800000E+00
  1.00800000E+00  1.60000000E+01  1.00800000E+00  1.00800000E+00  1.60000000E+01
  1.00800000E+00  1.00800000E+00  1.60000000E+01  1.00800000E+00  1.00800000E+00
  1.60000000E+01  1.00800000E+00  1.00800000E+00  1.60000000E+01  1.00800000E+00
  1.00800000E+00  1.60000000E+01  1.00800000E+00  1.00800000E+00  1.60000000E+01
  1.00800000E+00  1.00800000E+00  1.60000000E+01  1.00800000E+00  1.00800000E+00
  1.60000000E+01  1.00800000E+00  1.00800000E+00  1.60000000E+01  1.00800000E+00
  1.00800000E+00  1.60000000E+01  1.00800000E+00  1.00800000E+00  1.60000000E+01
  1.00800000E+00  1.00800000E+00  1.60000000E+01  1.00800000E+00  1.00800000E+00
  1.60000000E+01  1.00800000E+00  1.00800000E+00  1.60000000E+01  1.00800000E+00
  1.00800000E+00  1.60000000E+01  1.00800000E+00  1.00800000E+00  1.60000000E+01
  1.00800000E+00  1.00800000E+00  1.60000000E+01  1.00800000E+00  1.00800000E+00
  1.60000000E+01  1.00800000E+00  1.00800000E+00  1.60000000E+01  1.00800000E+00
  1.00800000E+00  1.60000000E+01  1.00800000E+00  1.00800000E+00  1.60000000E+01
  1.00800000E+00  1.00800000E+00  1.60000000E+01  1.00800000E+00  1.00800000E+00
  1.60000000E+01  1.00800000E+00  1.00800000E+00  1.60000000E+01  1.00800000E+00
  1.00800000E+00  1.60000000E+01  1.00800000E+00  1.00800000E+00  1.60000000E+01
  1.00800000E+00  1.00800000E+00  1.60000000E+01  1.00800000E+00  1.00800000E+00
  1.60000000E+01  1.00800000E+00  1.00800000E+00  1.60000000E+01  1.00800000E+00
  1.00800000E+00  1.60000000E+01  1.00800000E+00  1.00800000E+00  1.60000000E+01
  1.00800000E+00  1.00800000E+00  1.60000000E+01  1.00800000E+00  1.00800000E+00
  1.60000000E+01  1.00800000E+00  1.00800000E+00  1.60000000E+01  1.00800000E+00
  1.00800000E+00  1.60000000E+01  1.00800000E+00  1.00800000E+00  1.60000000E+01
  1.00800000E+00  1.00800000E+00  1.60000000E+01  1.00800000E+00  1.00800000E+00
  1.60000000E+01  1.00800000E+00  1.00800000E+00  1.60000000E+01  1.00800000E+00
  1.00800000E+00  1.60000000E+01  1.00800000E+00  1.00800000E+00  1.60000000E+01
  1.00800000E+00  1.00800000E+00  1.60000000E+01  1.00800000E+00  1.00800000E+00
  1.60000000E+01  1.00800000E+00  1.00800000E+00  1.60000000E+01  1.00800000E+00
  1.00800000E+00  1.60000000E+01  1.00800000E+00  1.00800000E+00  1.60000000E+01
  1.00800000E+00  1.00800000E+00  1.60000000E+01  1.00800000E+00  1.00800000E+00
  1.60000000E+01  1.00800000E+00  1.00800000E+00  1.60000000E+01  1.00800000E+00
  1.00800000E+00  1.60000000E+01  1.00800000E+00  1.00800000E+00  1.60000000E+01
  1.00800000E+00  1.00800000E+00  1.60000000E+01  1.00800000E+00  1.00800000E+00
  1.60000000E+01  1.00800000E+00  1.00800000E+00  1.60000000E+01  1.00800000E+00
  1.00800000E+00  1.60000000E+01  1.00800000E+00  1.00800000E+00  1.60000000E+01
  1.00800000E+00  1.00800000E+00  1.60000000E+01  1.00800000E+00  1.00800000E+00
  1.60000000E+01  1.00800000E+00  1.00800000E+00  1.60000000E+01  1.00800000E+00
  1.00800000E+00  1.60000000E+01  1.00800000E+00  1.00800000E+00  1.60000000E+01
  1.00800000E+00  1.00800000E+00  1.60000000E+01  1.00800000E+00  1.00800000E+00
  1.60000000E+01  1.00800000E+00  1.00800000E+00  1.60000000E+01  1.00800000E+00
  1.00800000E+00  1.60000000E+01  1.00800000E+00  1.00800000E+00  1.60000000E+01
  1.00800000E+00  1.00800000E+00  1.60000000E+01  1.00800000E+00  1.00800000E+00
  1.60000000E+01  1.00800000E+00  1.00800000E+00  1.60000000E+01  1.00800000E+00
  1.00800000E+00  1.60000000E+01  1.00800000E+00  1.00800000E+00  1.60000000E+01
  1.00800000E+00  1.00800000E+00  1.60000000E+01  1.00800000E+00  1.00800000E+00
  1.60000000E+01  1.00800000E+00  1.00800000E+00  1.60000000E+01  1.00800000E+00
  1.00800000E+00  1.60000000E+01  1.00800000E+00  1.00800000E+00  1.60000000E+01
  1.00800000E+00  1.00800000E+00  1.60000000E+01  1.00800000E+00  1.00800000E+00
  1.60000000E+01  1.00800000E+00  1.00800000E+00  1.60000000E+01  1.00800000E+00
  1.00800000E+00  1.60000000E+01  1.00800000E+00  1.00800000E+00  1.60000000E+01
  1.00800000E+00  1.00800000E+00  1.60000000E+01  1.00800000E+00  1.00800000E+00
  1.60000000E+01  1.00800000E+00  1.00800000E+00  1.60000000E+01  1.00800000E+00
  1.00800000E+00  1.60000000E+01  1.00800000E+00  1.00800000E+00  1.60000000E+01
  1.00800000E+00  1.00800000E+00  1.60000000E+01  1.00800000E+00  1.00800000E+00
  1.60000000E+01  1.00800000E+00  1.00800000E+00  1.60000000E+01  1.00800000E+00
  1.00800000E+00  1.60000000E+01  1.00800000E+00  1.00800000E+00  1.60000000E+01
  1.00800000E+00  1.00800000E+00  1.60000000E+01  1.00800000E+00  1.00800000E+00
  1.60000000E+01  1.00800000E+00  1.00800000E+00  1.60000000E+01  1.00800000E+00
  1.00800000E+00  1.60000000E+01  1.00800000E+00  1.00800000E+00  1.60000000E+01
  1.00800000E+00  1.00800000E+00  1.60000000E+01  1.00800000E+00  1.00800000E+00
  1.60000000E+01  1.00800000E+00  1.00800000E+00  1.60000000E+01  1.00800000E+00
  1.00800000E+00  1.60000000E+01  1.00800000E+00  1.00800000E+00  1.60000000E+01
  1.00800000E+00  1.00800000E+00  1.60000000E+01  1.00800000E+00  1.00800000E+00
  1.60000000E+01  1.00800000E+00  1.00800000E+00  1.60000000E+01  1.00800000E+00
  1.00800000E+00  1.60000000E+01  1.00800000E+00  1.00800000E+00  1.60000000E+01
  1.00800000E+00  1.00800000E+00  1.60000000E+01  1.00800000E+00  1.00800000E+00
  1.60000000E+01  1.00800000E+00  1.00800000E+00  1.60000000E+01  1.00800000E+00
  1.00800000E+00  1.60000000E+01  1.00800000E+00  1.00800000E+00  1.60000000E+01
  1.00800000E+00  1.00800000E+00  1.60000000E+01  1.00800000E+00  1.00800000E+00
  1.60000000E+01  1.00800000E+00  1.00800000E+00  1.60000000E+01  1.00800000E+00
  1.00800000E+00  1.60000000E+01  1.00800000E+00  1.00800000E+00  1.60000000E+01
  1.00800000E+00  1.00800000E+00  1.60000000E+01  1.00800000E+00  1.00800000E+00
  1.60000000E+01  1.00800000E+00  1.00800000E+00  1.60000000E+01  1.00800000E+00
  1.00800000E+00  1.60000000E+01  1.00800000E+00  1.00800000E+00  1.60000000E+01
  1.00800000E+00  1.00800000E+00  1.60000000E+01  1.00800000E+00  1.00800000E+00
  1.60000000E+01  1.00800000E+00  1.00800000E+00  1.60000000E+01  1.00800000E+00
  1.00800000E+00  1.60000000E+01  1.00800000E+00  1.00800000E+00  1.60000000E+01
  1.00800000E+00  1.00800000E+00  1.60000000E+01  1.00800000E+00  1.00800000E+00
  1.60000000E+01  1.00800000E+00  1.00800000E+00  1.60000000E+01  1.00800000E+00
  1.00800000E+00  1.60000000E+01  1.00800000E+00  1.00800000E+00  1.60000000E+01
  1.00800000E+00  1.00800000E+00  1.60000000E+01  1.00800000E+00  1.00800000E+00
  1.60000000E+01  1.00800000E+00  1.00800000E+00  1.60000000E+01  1.00800000E+00
  1.00800000E+00  1.60000000E+01  1.00800000E+00  1.00800000E+00  1.60000000E+01
  1.00800000E+00  1.00800000E+00  1.60000000E+01  1.00800000E+00  1.00800000E+00
  1.60000000E+01  1.00800000E+00  1.00800000E+00  1.60000000E+01  1.00800000E+00
  1.00800000E+00  1.60000000E+01  1.00800000E+00  1.00800000E+00  1.60000000E+01
  1.00800000E+00  1.00800000E+00  1.60000000E+01  1.00800000E+00  1.00800000E+00
  1.60000000E+01  1.00800000E+00  1.00800000E+00  1.60000000E+01  1.00800000E+00
  1.00800000E+00  1.60000000E+01  1.00800000E+00  1.00800000E+00  1.60000000E+01
  1.00800000E+00  1.00800000E+00  1.60000000E+01  1.00800000E+00  1.00800000E+00
  1.60000000E+01  1.00800000E+00  1.00800000E+00  1.60000000E+01  1.00800000E+00
  1.00800000E+00  1.60000000E+01  1.00800000E+00  1.00800000E+00  1.60000000E+01
  1.00800000E+00  1.00800000E+00  1.60000000E+01  1.00800000E+00  1.00800000E+00
  1.60000000E+01  1.00800000E+00  1.00800000E+00  1.60000000E+01  1.00800000E+00
  1.00800000E+00  1.60000000E+01  1.00800000E+00  1.00800000E+00  1.60000000E+01
  1.00800000E+00  1.00800000E+00  1.60000000E+01  1.00800000E+00  1.00800000E+00
  1.60000000E+01  1.00800000E+00  1.00800000E+00  1.60000000E+01  1.00800000E+00
  1.00800000E+00  1.60000000E+01  1.00800000E+00  1.00800000E+00  1.60000000E+01
  1.00800000E+00  1.00800000E+00  1.60000000E+01  1.00800000E+00  1.00800000E+00
  1.60000000E+01  1.00800000E+00  1.00800000E+00  1.60000000E+01  1.00800000E+00
  1.00800000E+00  1.60000000E+01  1.00800000E+00  1.00800000E+00  1.60000000E+01
  1.00800000E+00  1.00800000E+00  1.60000000E+01  1.00800000E+00  1.00800000E+00
  1.60000000E+01  1.00800000E+00  1.00800000E+00  1.60000000E+01  1.00800000E+00
  1.00800000E+00  1.60000000E+01  1.00800000E+00  1.00800000E+00  1.60000000E+01
  1.00800000E+00  1.00800000E+00  1.60000000E+01  1.00800000E+00  1.00800000E+00
  1.60000000E+01  1.00800000E+00  1.00800000E+00  1.60000000E+01  1.00800000E+00
  1.00800000E+00  1.60000000E+01  1.00800000E+00  1.00800000E+00  1.60000000E+01
  1.00800000E+00  1.00800000E+00  1.60000000E+01  1.00800000E+00  1.00800000E+00
  1.60000000E+01  1.00800000E+00  1.00800000E+00  1.60000000E+01  1.00800000E+00
  1.00800000E+00  1.60000000E+01  1.00800000E+00  1.00800000E+00  1.60000000E+01
  1.00800000E+00  1.00800000E+00  1.60000000E+01  1.00800000E+00  1.00800000E+00
  1.60000000E+01  1.00800000E+00  1.00800000E+00  1.60000000E+01  1.00800000E+00
  1.00800000E+00  1.60000000E+01  1.00800000E+00  1.00800000E+00  1.60000000E+01
  1.00800000E+00  1.00800000E+00  1.60000000E+01  1.00800000E+00  1.00800000E+00
  1.60000000E+01  1.00800000E+00  1.00800000E+00  1.60000000E+01  1.00800000E+00
  1.00800000E+00  1.60000000E+01  1.00800000E+00  1.00800000E+00  1.60000000E+01
  1.00800000E+00  1.00800000E+00  1.60000000E+01  1.00800000E+00  1.00800000E+00
  1.60000000E+01  1.00800000E+00  1.00800000E+00  1.60000000E+01  1.00800000E+00
  1.00800000E+00  1.60000000E+01  1.00800000E+00  1.00800000E+00  1.60000000E+01
  1.00800000E+00  1.00800000E+00  1.60000000E+01  1.00800000E+00  1.00800000E+00
  1.60000000E+01  1.00800000E+00  1.00800000E+00  1.60000000E+01  1.00800000E+00
  1.00800000E+00  1.60000000E+01  1.00800000E+00  1.00800000E+00  1.60000000E+01
  1.00800000E+00  1.00800000E+00  1.60000000E+01  1.00800000E+00  1.00800000E+00
  1.60000000E+01  1.00800000E+00  1.00800000E+00  1.60000000E+01  1.00800000E+00
  1.00800000E+00  1.60000000E+01  1.00800000E+00  1.00800000E+00  1.60000000E+01
  1.00800000E+00  1.00800000E+00  1.60000000E+01  1.00800000E+00  1.00800000E+00
  1.60000000E+01  1.00800000E+00  1.00800000E+00  1.60000000E+01  1.00800000E+00
  1.00800000E+00  1.60000000E+01  1.00800000E+00  1.00800000E+00  1.60000000E+01
  1.00800000E+00  1.00800000E+00  1.60000000E+01  1.00800000E+00  1.00800000E+00
  1.60000000E+01  1.00800000E+00  1.00800000E+00  1.60000000E+01  1.00800000E+00
  1.00800000E+00  1.60000000E+01  1.00800000E+00  1.00800000E+00  1.60000000E+01
  1.00800000E+00  1.00800000E+00  1.60000000E+01  1.00800000E+00  1.00800000E+00
  1.60000000E+01  1.00800000E+00  1.00800000E+00  1.60000000E+01  1.00800000E+00
  1.00800000E+00  1.60000000E+01  1.00800000E+00  1.00800000E+00  1.60000000E+01
  1.00800000E+00  1.00800000E+00  1.60000000E+01  1.00800000E+00  1.00800000E+00
  1.60000000E+01  1.00800000E+00  1.00800000E+00  1.60000000E+01  1.00800000E+00
  1.00800000E+00  1.60000000E+01  1.00800000E+00  1.00800000E+00  1.60000000E+01
  1.00800000E+00  1.00800000E+00  1.60000000E+01  1.00800000E+00  1.00800000E+00
  1.60000000E+01  1.00800000E+00  1.00800000E+00  1.60000000E+01  1.00800000E+00
  1.00800000E+00  1.60000000E+01  1.00800000E+00  1.00800000E+00  1.60000000E+01
  1.00800000E+00  1.00800000E+00  1.60000000E+01  1.00800000E+00  1.00800000E+00
  1.60000000E+01  1.00800000E+00  1.00800000E+00  1.60000000E+01  1.00800000E+00
  1.00800000E+00  1.60000000E+01  1.00800000E+00  1.00800000E+00  1.60000000E+01
  1.00800000E+00  1.00800000E+00  1.60000000E+01  1.00800000E+00  1.00800000E+00
  1.60000000E+01  1.00800000E+00  1.00800000E+00  1.60000000E+01  1.00800000E+00
  1.00800000E+00  1.60000000E+01  1.00800000E+00  1.00800000E+00  1.60000000E+01
  1.00800000E+00  1.00800000E+00  1.60000000E+01  1.00800000E+00  1.00800000E+00
  1.60000000E+01  1.00800000E+00  1.00800000E+00  1.60000000E+01  1.00800000E+00
  1.00800000E+00  1.60000000E+01  1.00800000E+00  1.00800000E+00  1.60000000E+01
  1.00800000E+00  1.00800000E+00  1.60000000E+01  1.00800000E+00  1.00800000E+00
  1.60000000E+01  1.00800000E+00  1.00800000E+00  1.60000000E+01  1.00800000E+00
  1.00800000E+00  1.60000000E+01  1.00800000E+00  1.00800000E+00  1.60000000E+01
  1.00800000E+00  1.00800000E+00  1.60000000E+01  1.00800000E+00  1.00800000E+00
  1.60000000E+01  1.00800000E+00  1.00800000E+00  1.60000000E+01  1.00800000E+00
  1.00800000E+00  1.60000000E+01  1.00800000E+00  1.00800000E+00  1.60000000E+01
  1.00800000E+00  1.00800000E+00  1.60000000E+01  1.00800000E+00  1.00800000E+00
  1.60000000E+01  1.00800000E+00  1.00800000E+00  1.60000000E+01  1.00800000E+00
  1.00800000E+00  1.60000000E+01  1.00800000E+00  1.00800000E+00  1.60000000E+01
  1.00800000E+00  1.00800000E+00  1.60000000E+01  1.00800000E+00  1.00800000E+00
  1.60000000E+01  1.00800000E+00  1.00800000E+00  1.60000000E+01  1.00800000E+00
  1.00800000E+00  1.60000000E+01  1.00800000E+00  1.00800000E+00  1.60000000E+01
  1.00800000E+00  1.00800000E+00  1.60000000E+01  1.00800000E+00  1.00800000E+00
  1.60000000E+01  1.00800000E+00  1.00800000E+00  1.60000000E+01  1.00800000E+00
  1.00800000E+00  1.60000000E+01  1.00800000E+00  1.00800000E+00  1.60000000E+01
  1.00800000E+00  1.00800000E+00  1.60000000E+01  1.00800000E+00  1.00800000E+00
  1.60000000E+01  1.00800000E+00  1.00800000E+00  1.60000000E+01  1.00800000E+00
  1.00800000E+00  1.60000000E+01  1.00800000E+00  1.00800000E+00  1.60000000E+01
  1.00800000E+00  1.00800000E+00  1.60000000E+01  1.00800000E+00  1.00800000E+00
  1.60000000E+01  1.00800000E+00  1.00800000E+00  1.60000000E+01  1.00800000E+00
  1.00800000E+00  1.60000000E+01  1.00800000E+00  1.00800000E+00  1.60000000E+01
  1.00800000E+00  1.00800000E+00  1.60000000E+01  1.00800000E+00  1.00800000E+00
  1.60000000E+01  1.00800000E+00  1.00800000E+00  1.60000000E+01  1.00800000E+00
  1.00800000E+00  1.60000000E+01  1.00800000E+00  1.00800000E+00  1.60000000E+01
  1.00800000E+00  1.00800000E+00  1.60000000E+01  1.00800000E+00  1.00800000E+00
  1.60000000E+01  1.00800000E+00  1.00800000E+00  1.60000000E+01  1.00800000E+00
  1.00800000E+00  1.60000000E+01  1.00800000E+00  1.00800000E+00  1.60000000E+01
  1.00800000E+00  1.00800000E+00  1.60000000E+01  1.00800000E+00  1.00800000E+00
  1.60000000E+01  1.00800000E+00  1.00800000E+00  1.60000000E+01  1.00800000E+00
  1.00800000E+00  1.60000000E+01  1.00800000E+00  1.00800000E+00  1.60000000E+01
  1.00800000E+00  1.00800000E+00  1.60000000E+01  1.00800000E+00  1.00800000E+00
  1.60000000E+01  1.00800000E+00  1.00800000E+00  1.60000000E+01  1.00800000E+00
  1.00800000E+00  1.60000000E+01  1.00800000E+00  1.00800000E+00  1.60000000E+01
  1.00800000E+00  1.00800000E+00  1.60000000E+01  1.00800000E+00  1.00800000E+00
  1.60000000E+01  1.00800000E+00  1.00800000E+00  1.60000000E+01  1.00800000E+00
  1.00800000E+00  1.60000000E+01  1.00800000E+00  1.00800000E+00  1.60000000E+01
  1.00800000E+00  1.00800000E+00  1.60000000E+01  1.00800000E+00  1.00800000E+00
  1.60000000E+01  1.00800000E+00  1.00800000E+00  1.60000000E+01  1.00800000E+00
  1.00800000E+00  1.60000000E+01  1.00800000E+00  1.00800000E+00  1.60000000E+01
  1.00800000E+00  1.00800000E+00  1.60000000E+01  1.00800000E+00  1.00800000E+00
  1.60000000E+01  1.00800000E+00  1.00800000E+00  1.60000000E+01  1.00800000E+00
  1.00800000E+00  1.60000000E+01  1.00800000E+00  1.00800000E+00  1.60000000E+01
  1.00800000E+00  1.00800000E+00  1.60000000E+01  1.00800000E+00  1.00800000E+00
  1.60000000E+01  1.00800000E+00  1.00800000E+00  1.60000000E+01  1.00800000E+00
  1.00800000E+00  1.60000000E+01  1.00800000E+00  1.00800000E+00  1.60000000E+01
  1.00800000E+00  1.00800000E+00  1.60000000E+01  1.00800000E+00  1.00800000E+00
  1.60000000E+01  1.00800000E+00  1.00800000E+00  1.60000000E+01  1.00800000E+00
  1.00800000E+00  1.60000000E+01  1.00800000E+00  1.00800000E+00  1.60000000E+01
  1.00800000E+00  1.00800000E+00  1.60000000E+01  1.00800000E+00  1.00800000E+00
  1.60000000E+01  1.00800000E+00  1.00800000E+00  1.60000000E+01  1.00800000E+00
  1.00800000E+00  1.60000000E+01  1.00800000E+00  1.00800000E+00  1.60000000E+01
  1.00800000E+00  1.00800000E+00  1.60000000E+01  1.00800000E+00  1.00800000E+00
  1.60000000E+01  1.00800000E+00  1.00800000E+00  1.60000000E+01  1.00800000E+00
  1.00800000E+00  1.60000000E+01  1.00800000E+00  1.00800000E+00  1.60000000E+01
  1.00800000E+00  1.00800000E+00  1.60000000E+01  1.00800000E+00  1.00800000E+00
  1.60000000E+01  1.00800000E+00  1.00800000E+00  1.60000000E+01  1.00800000E+00
  1.00800000E+00  1.60000000E+01  1.00800000E+00  1.00800000E+00  1.60000000E+01
  1.00800000E+00  1.00800000E+00  1.60000000E+01  1.00800000E+00  1.00800000E+00
  1.60000000E+01  1.00800000E+00  1.00800000E+00  1.60000000E+01  1.00800000E+00
  1.00800000E+00  1.60000000E+01  1.00800000E+00  1.00800000E+00  1.60000000E+01
  1.00800000E+00  1.00800000E+00  1.60000000E+01  1.00800000E+00  1.00800000E+00
  1.60000000E+01  1.00800000E+00  1.00800000E+00  1.60000000E+01  1.00800000E+00
  1.00800000E+00  1.60000000E+01  1.00800000E+00  1.00800000E+00  1.60000000E+01
  1.00800000E+00  1.00800000E+00  1.60000000E+01  1.00800000E+00  1.00800000E+00
  1.60000000E+01  1.00800000E+00  1.00800000E+00  1.60000000E+01  1.00800000E+00
  1.00800000E+00  1.60000000E+01  1.00800000E+00  1.00800000E+00  1.60000000E+01
  1.00800000E+00  1.00800000E+00  1.60000000E+01  1.00800000E+00  1.00800000E+00
  1.60000000E+01  1.00800000E+00  1.00800000E+00  1.60000000E+01  1.00800000E+00
  1.00800000E+00  1.60000000E+01  1.00800000E+00  1.00800000E+00  1.60000000E+01
  1.00800000E+00  1.00800000E+00  1.60000000E+01  1.00800000E+00  1.00800000E+00
  1.60000000E+01  1.00800000E+00  1.00800000E+00  1.60000000E+01  1.00800000E+00
  1.00800000E+00  1.60000000E+01  1.00800000E+00  1.00800000E+00  1.60000000E+01
  1.00800000E+00  1.00800000E+00  1.60000000E+01  1.00800000E+00  1.00800000E+00
  1.60000000E+01  1.00800000E+00  1.00800000E+00  1.60000000E+01  1.00800000E+00
  1.00800000E+00  1.60000000E+01  1.00800000E+00  1.00800000E+00  1.60000000E+01
  1.00800000E+00  1.00800000E+00  1.60000000E+01  1.00800000E+00  1.00800000E+00
  1.60000000E+01  1.00800000E+00  1.00800000E+00  1.60000000E+01  1.00800000E+00
  1.00800000E+00  1.60000000E+01  1.00800000E+00  1.00800000E+00  1.60000000E+01
  1.00800000E+00  1.00800000E+00  1.60000000E+01  1.00800000E+00  1.00800000E+00
  1.60000000E+01  1.00800000E+00  1.00800000E+00  1.60000000E+01  1.00800000E+00
  1.00800000E+00  1.60000000E+01  1.00800000E+00  1.00800000E+00  1.60000000E+01
  1.00800000E+00  1.00800000E+00  1.60000000E+01  1.00800000E+00  1.00800000E+00
  1.60000000E+01  1.00800000E+00  1.00800000E+00  1.60000000E+01  1.00800000E+00
  1.00800000E+00  1.60000000E+01  1.00800000E+00  1.00800000E+00  1.60000000E+01
  1.00800000E+00  1.00800000E+00  1.60000000E+01  1.00800000E+00  1.00800000E+00
  1.60000000E+01  1.00800000E+00  1.00800000E+00  1.60000000E+01  1.00800000E+00
  1.00800000E+00  1.60000000E+01  1.00800000E+00  1.00800000E+00  1.60000000E+01
  1.00800000E+00  1.00800000E+00  1.60000000E+01  1.00800000E+00  1.00800000E+00
  1.60000000E+01  1.00800000E+00  1.00800000E+00  1.60000000E+01  1.00800000E+00
  1.00800000E+00  1.60000000E+01  1.00800000E+00  1.00800000E+00  1.60000000E+01
  1.00800000E+00  1.00800000E+00  1.60000000E+01  1.00800000E+00  1.00800000E+00
  1.60000000E+01  1.00800000E+00  1.00800000E+00  1.60000000E+01  1.00800000E+00
  1.00800000E+00  1.60000000E+01  1.00800000E+00  1.00800000E+00  1.60000000E+01
  1.00800000E+00  1.00800000E+00  1.60000000E+01  1.00800000E+00  1.00800000E+00
  1.60000000E+01  1.00800000E+00  1.00800000E+00  1.60000000E+01  1.00800000E+00
  1.00800000E+00  1.60000000E+01  1.00800000E+00  1.00800000E+00  1.60000000E+01
  1.00800000E+00  1.00800000E+00  1.60000000E+01  1.00800000E+00  1.00800000E+00
  1.60000000E+01  1.00800000E+00  1.00800000E+00  1.60000000E+01  1.00800000E+00
  1.00800000E+00  1.60000000E+01  1.00800000E+00  1.00800000E+00  1.60000000E+01
  1.00800000E+00  1.00800000E+00  1.60000000E+01  1.00800000E+00  1.00800000E+00
  1.60000000E+01  1.00800000E+00  1.00800000E+00  1.60000000E+01  1.00800000E+00
  1.00800000E+00  1.60000000E+01  1.00800000E+00  1.00800000E+00  1.60000000E+01
  1.00800000E+00  1.00800000E+00  1.60000000E+01  1.00800000E+00  1.00800000E+00
  1.60000000E+01  1.00800000E+00  1.00800000E+00  1.60000000E+01  1.00800000E+00
  1.00800000E+00  1.60000000E+01  1.00800000E+00  1.00800000E+00  1.60000000E+01
  1.00800000E+00  1.00800000E+00  1.60000000E+01  1.00800000E+00  1.00800000E+00
  1.60000000E+01  1.00800000E+00  1.00800000E+00  1.60000000E+01  1.00800000E+00
  1.00800000E+00  1.60000000E+01  1.00800000E+00  1.00800000E+00  1.60000000E+01
  1.00800000E+00  1.00800000E+00  1.60000000E+01  1.00800000E+00  1.00800000E+00
  1.60000000E+01  1.00800000E+00  1.00800000E+00  1.60000000E+01  1.00800000E+00
  1.00800000E+00  1.60000000E+01  1.00800000E+00  1.00800000E+00  1.60000000E+01
  1.00800000E+00  1.00800000E+00  1.60000000E+01  1.00800000E+00  1.00800000E+00
  1.60000000E+01  1.00800000E+00  1.00800000E+00  1.60000000E+01  1.00800000E+00
  1.00800000E+00  1.60000000E+01  1.00800000E+00  1.00800000E+00  1.60000000E+01
  1.00800000E+00  1.00800000E+00  1.60000000E+01  1.00800000E+00  1.00800000E+00
  1.60000000E+01  1.00800000E+00  1.00800000E+00  1.60000000E+01  1.00800000E+00
  1.00800000E+00  1.60000000E+01  1.00800000E+00  1.00800000E+00  1.60000000E+01
  1.00800000E+00  1.00800000E+00  1.60000000E+01  1.00800000E+00  1.00800000E+00
  1.60000000E+01  1.00800000E+00  1.00800000E+00  1.60000000E+01  1.00800000E+00
  1.00800000E+00  1.60000000E+01  1.00800000E+00  1.00800000E+00  1.60000000E+01
  1.00800000E+00  1.00800000E+00  1.60000000E+01  1.00800000E+00  1.00800000E+00
  1.60000000E+01  1.00800000E+00  1.00800000E+00  1.60000000E+01  1.00800000E+00
  1.00800000E+00  1.60000000E+01  1.00800000E+00  1.00800000E+00  1.60000000E+01
  1.00800000E+00  1.00800000E+00  1.60000000E+01  1.00800000E+00  1.00800000E+00
  1.60000000E+01  1.00800000E+00  1.00800000E+00  1.60000000E+01  1.00800000E+00
  1.00800000E+00  1.60000000E+01  1.00800000E+00  1.00800000E+00  1.60000000E+01
  1.00800000E+00  1.00800000E+00  1.60000000E+01  1.00800000E+00  1.00800000E+00
  1.60000000E+01  1.00800000E+00  1.00800000E+00  1.60000000E+01  1.00800000E+00
  1.00800000E+00  1.60000000E+01  1.00800000E+00  1.00800000E+00  1.60000000E+01
  1.00800000E+00  1.00800000E+00  1.60000000E+01  1.00800000E+00  1.00800000E+00
  1.60000000E+01  1.00800000E+00  1.00800000E+00  1.60000000E+01  1.00800000E+00
  1.00800000E+00  1.60000000E+01  1.00800000E+00  1.00800000E+00  1.60000000E+01
  1.00800000E+00  1.00800000E+00  1.60000000E+01  1.00800000E+00  1.00800000E+00
  1.60000000E+01  1.00800000E+00  1.00800000E+00  1.60000000E+01  1.00800000E+00
  1.00800000E+00  1.60000000E+01  1.00800000E+00  1.00800000E+00  1.60000000E+01
  1.00800000E+00  1.00800000E+00  1.60000000E+01  1.00800000E+00  1.00800000E+00
  1.60000000E+01  1.00800000E+00  1.00800000E+00  1.60000000E+01  1.00800000E+00
  1.00800000E+00  1.60000000E+01  1.00800000E+00  1.00800000E+00  1.60000000E+01
  1.00800000E+00  1.00800000E+00  1.60000000E+01  1.00800000E+00  1.00800000E+00
  1.60000000E+01  1.00800000E+00  1.00800000E+00  1.60000000E+01  1.00800000E+00
  1.00800000E+00  1.60000000E+01  1.00800000E+00  1.00800000E+00  1.60000000E+01
  1.00800000E+00  1.00800000E+00  1.60000000E+01  1.00800000E+00  1.00800000E+00
  1.60000000E+01  1.00800000E+00  1.00800000E+00  1.60000000E+01  1.00800000E+00
  1.00800000E+00  1.60000000E+01  1.00800000E+00  1.00800000E+00  1.60000000E+01
  1.00800000E+00  1.00800000E+00  1.60000000E+01  1.00800000E+00  1.00800000E+00
  1.60000000E+01  1.00800000E+00  1.00800000E+00  1.60000000E+01  1.00800000E+00
  1.00800000E+00  1.60000000E+01  1.00800000E+00  1.00800000E+00  1.60000000E+01
  1.00800000E+00  1.00800000E+00  1.60000000E+01  1.00800000E+00  1.00800000E+00
  1.60000000E+01  1.00800000E+00  1.00800000E+00  1.60000000E+01  1.00800000E+00
  1.00800000E+00  1.60000000E+01  1.00800000E+00  1.00800000E+00  1.60000000E+01
  1.00800000E+00  1.00800000E+00  1.60000000E+01  1.00800000E+00  1.00800000E+00
  1.60000000E+01  1.00800000E+00  1.00800000E+00  1.60000000E+01  1.00800000E+00
  1.00800000E+00  1.60000000E+01  1.00800000E+00  1.00800000E+00  1.60000000E+01
  1.00800000E+00  1.00800000E+00  1.60000000E+01  1.00800000E+00  1.00800000E+00
  1.60000000E+01  1.00800000E+00  1.00800000E+00  1.60000000E+01  1.00800000E+00
  1.00800000E+00  1.60000000E+01  1.00800000E+00  1.00800000E+00  1.60000000E+01
  1.00800000E+00  1.00800000E+00  1.60000000E+01  1.00800000E+00  1.00800000E+00
  1.60000000E+01  1.00800000E+00  1.00800000E+00  1.60000000E+01  1.00800000E+00
  1.00800000E+00  1.60000000E+01  1.00800000E+00  1.00800000E+00  1.60000000E+01
  1.00800000E+00  1.00800000E+00  1.60000000E+01  1.00800000E+00  1.00800000E+00
  1.60000000E+01  1.00800000E+00  1.00800000E+00  1.60000000E+01  1.00800000E+00
  1.00800000E+00  1.60000000E+01  1.00800000E+00  1.00800000E+00  1.60000000E+01
  1.00800000E+00  1.00800000E+00  1.60000000E+01  1.00800000E+00  1.00800000E+00
  1.60000000E+01  1.00800000E+00  1.00800000E+00  1.60000000E+01  1.00800000E+00
  1.00800000E+00  1.60000000E+01  1.00800000E+00  1.00800000E+00  1.60000000E+01
  1.00800000E+00  1.00800000E+00  1.60000000E+01  1.00800000E+00  1.00800000E+00
  1.60000000E+01  1.00800000E+00  1.00800000E+00  1.60000000E+01  1.00800000E+00
  1.00800000E+00  1.60000000E+01  1.00800000E+00  1.00800000E+00  1.60000000E+01
  1.00800000E+00  1.00800000E+00  1.60000000E+01  1.00800000E+00  1.00800000E+00
  1.60000000E+01  1.00800000E+00  1.00800000E+00  1.60000000E+01  1.00800000E+00
  1.00800000E+00  1.60000000E+01  1.00800000E+00  1.00800000E+00  1.60000000E+01
  1.00800000E+00  1.00800000E+00  1.60000000E+01  1.00800000E+00  1.00800000E+00
  1.60000000E+01  1.00800000E+00  1.00800000E+00  1.60000000E+01  1.00800000E+00
  1.00800000E+00  1.60000000E+01  1.00800000E+00  1.00800000E+00  1.60000000E+01
  1.00800000E+00  1.00800000E+00  1.60000000E+01  1.00800000E+00  1.00800000E+00
  1.60000000E+01  1.00800000E+00  1.00800000E+00  1.60000000E+01  1.00800000E+00
  1.00800000E+00  1.60000000E+01  1.00800000E+00  1.00800000E+00  1.60000000E+01
  1.00800000E+00  1.00800000E+00  1.60000000E+01  1.00800000E+00  1.00800000E+00
  1.60000000E+01  1.00800000E+00  1.00800000E+00  1.60000000E+01  1.00800000E+00
  1.00800000E+00  1.60000000E+01  1.00800000E+00  1.00800000E+00  1.60000000E+01
  1.00800000E+00  1.00800000E+00  1.60000000E+01  1.00800000E+00  1.00800000E+00
  1.60000000E+01  1.00800000E+00  1.00800000E+00  1.60000000E+01  1.00800000E+00
  1.00800000E+00  1.60000000E+01  1.00800000E+00  1.00800000E+00  1.60000000E+01
  1.00800000E+00  1.00800000E+00  1.60000000E+01  1.00800000E+00  1.00800000E+00
  1.60000000E+01  1.00800000E+00  1.00800000E+00  1.60000000E+01  1.00800000E+00
  1.00800000E+00  1.60000000E+01  1.00800000E+00  1.00800000E+00  1.60000000E+01
  1.00800000E+00  1.00800000E+00  1.60000000E+01  1.00800000E+00  1.00800000E+00
  1.60000000E+01  1.00800000E+00  1.00800000E+00  1.60000000E+01  1.00800000E+00
  1.00800000E+00  1.60000000E+01  1.00800000E+00  1.00800000E+00  1.60000000E+01
  1.00800000E+00  1.00800000E+00  1.60000000E+01  1.00800000E+00  1.00800000E+00
  1.60000000E+01  1.00800000E+00  1.00800000E+00  1.60000000E+01  1.00800000E+00
  1.00800000E+00  1.60000000E+01  1.00800000E+00  1.00800000E+00  1.60000000E+01
  1.00800000E+00  1.00800000E+00  1.60000000E+01  1.00800000E+00  1.00800000E+00
  1.60000000E+01  1.00800000E+00  1.00800000E+00  1.60000000E+01  1.00800000E+00
  1.00800000E+00  1.60000000E+01  1.00800000E+00  1.00800000E+00  1.60000000E+01
  1.00800000E+00  1.00800000E+00  1.60000000E+01  1.00800000E+00  1.00800000E+00
  1.60000000E+01  1.00800000E+00  1.00800000E+00  1.60000000E+01  1.00800000E+00
  1.00800000E+00  1.60000000E+01  1.00800000E+00  1.00800000E+00  1.60000000E+01
  1.00800000E+00  1.00800000E+00  1.60000000E+01  1.00800000E+00  1.00800000E+00
  1.60000000E+01  1.00800000E+00  1.00800000E+00  1.60000000E+01  1.00800000E+00
  1.00800000E+00  1.60000000E+01  1.00800000E+00  1.00800000E+00  1.60000000E+01
  1.00800000E+00  1.00800000E+00  1.60000000E+01  1.00800000E+00  1.00800000E+00
  1.60000000E+01  1.00800000E+00  1.00800000E+00  1.60000000E+01  1.00800000E+00
  1.00800000E+00  1.60000000E+01  1.00800000E+00  1.00800000E+00  1.60000000E+01
  1.00800000E+00  1.00800000E+00  1.60000000E+01  1.00800000E+00  1.00800000E+00
  1.60000000E+01  1.00800000E+00  1.00800000E+00  1.60000000E+01  1.00800000E+00
  1.00800000E+00  1.60000000E+01  1.00800000E+00  1.00800000E+00  1.60000000E+01
  1.00800000E+00  1.00800000E+00  1.60000000E+01  1.00800000E+00  1.00800000E+00
  1.60000000E+01  1.00800000E+00  1.00800000E+00  1.60000000E+01  1.00800000E+00
  1.00800000E+00  1.60000000E+01  1.00800000E+00  1.00800000E+00  1.60000000E+01
  1.00800000E+00  1.00800000E+00  1.60000000E+01  1.00800000E+00  1.00800000E+00
  1.60000000E+01  1.00800000E+00  1.00800000E+00  1.60000000E+01  1.00800000E+00
  1.00800000E+00  1.60000000E+01  1.00800000E+00  1.00800000E+00  1.60000000E+01
  1.00800000E+00  1.00800000E+00  1.60000000E+01  1.00800000E+00  1.00800000E+00
  1.60000000E+01  1.00800000E+00  1.00800000E+00  1.60000000E+01  1.00800000E+00
  1.00800000E+00  1.60000000E+01  1.00800000E+00  1.00800000E+00  1.60000000E+01
  1.00800000E+00  1.00800000E+00  1.60000000E+01  1.00800000E+00  1.00800000E+00
  1.60000000E+01  1.00800000E+00  1.00800000E+00  1.60000000E+01  1.00800000E+00
  1.00800000E+00  1.60000000E+01  1.00800000E+00  1.00800000E+00  1.60000000E+01
  1.00800000E+00  1.00800000E+00  1.60000000E+01  1.00800000E+00  1.00800000E+00
  1.60000000E+01  1.00800000E+00  1.00800000E+00  1.60000000E+01  1.00800000E+00
  1.00800000E+00  1.60000000E+01  1.00800000E+00  1.00800000E+00  1.60000000E+01
  1.00800000E+00  1.00800000E+00  1.60000000E+01  1.00800000E+00  1.00800000E+00
  1.60000000E+01  1.00800000E+00  1.00800000E+00  1.60000000E+01  1.00800000E+00
  1.00800000E+00  1.60000000E+01  1.00800000E+00  1.00800000E+00  1.60000000E+01
  1.00800000E+00  1.00800000E+00  1.60000000E+01  1.00800000E+00  1.00800000E+00
  1.60000000E+01  1.00800000E+00  1.00800000E+00  1.60000000E+01  1.00800000E+00
  1.00800000E+00  1.60000000E+01  1.00800000E+00  1.00800000E+00  1.60000000E+01
  1.00800000E+00  1.00800000E+00  1.60000000E+01  1.00800000E+00  1.00800000E+00
  1.60000000E+01  1.00800000E+00  1.00800000E+00  1.60000000E+01  1.00800000E+00
  1.00800000E+00  1.60000000E+01  1.00800000E+00  1.00800000E+00  1.60000000E+01
  1.00800000E+00  1.00800000E+00  1.60000000E+01  1.00800000E+00  1.00800000E+00
  1.60000000E+01  1.00800000E+00  1.00800000E+00  1.60000000E+01  1.00800000E+00
  1.00800000E+00  1.60000000E+01  1.00800000E+00  1.00800000E+00  1.60000000E+01
  1.00800000E+00  1.00800000E+00  1.60000000E+01  1.00800000E+00  1.00800000E+00
  1.60000000E+01  1.00800000E+00  1.00800000E+00  1.60000000E+01  1.00800000E+00
  1.00800000E+00  1.60000000E+01  1.00800000E+00  1.00800000E+00  1.60000000E+01
  1.00800000E+00  1.00800000E+00  1.60000000E+01  1.00800000E+00  1.00800000E+00
  1.60000000E+01  1.00800000E+00  1.00800000E+00  1.60000000E+01  1.00800000E+00
  1.00800000E+00  1.60000000E+01  1.00800000E+00  1.00800000E+00  1.60000000E+01
  1.00800000E+00  1.00800000E+00  1.60000000E+01  1.00800000E+00  1.00800000E+00
  1.60000000E+01  1.00800000E+00  1.00800000E+00  1.60000000E+01  1.00800000E+00
  1.00800000E+00  1.60000000E+01  1.00800000E+00  1.00800000E+00  1.60000000E+01
  1.00800000E+00  1.00800000E+00  1.60000000E+01  1.00800000E+00  1.00800000E+00
  1.60000000E+01  1.00800000E+00  1.00800000E+00  1.60000000E+01  1.00800000E+00
  1.00800000E+00  1.60000000E+01  1.00800000E+00  1.00800000E+00  1.60000000E+01
  1.00800000E+00  1.00800000E+00  1.60000000E+01  1.00800000E+00  1.00800000E+00
  1.60000000E+01  1.00800000E+00  1.00800000E+00  1.60000000E+01  1.00800000E+00
  1.00800000E+00  1.60000000E+01  1.00800000E+00  1.00800000E+00  1.60000000E+01
  1.00800000E+00  1.00800000E+00  1.60000000E+01  1.00800000E+00  1.00800000E+00
  1.60000000E+01  1.00800000E+00  1.00800000E+00  1.60000000E+01  1.00800000E+00
  1.00800000E+00  1.60000000E+01  1.00800000E+00  1.00800000E+00  1.60000000E+01
  1.00800000E+00  1.00800000E+00  1.60000000E+01  1.00800000E+00  1.00800000E+00
  1.60000000E+01  1.00800000E+00  1.00800000E+00  1.60000000E+01  1.00800000E+00
  1.00800000E+00  1.60000000E+01  1.00800000E+00  1.00800000E+00  1.60000000E+01
  1.00800000E+00  1.00800000E+00  1.60000000E+01  1.00800000E+00  1.00800000E+00
  1.60000000E+01  1.00800000E+00  1.00800000E+00  1.60000000E+01  1.00800000E+00
  1.00800000E+00  1.60000000E+01  1.00800000E+00  1.00800000E+00  1.60000000E+01
  1.00800000E+00  1.00800000E+00  1.60000000E+01  1.00800000E+00  1.00800000E+00
  1.60000000E+01  1.00800000E+00  1.00800000E+00  1.60000000E+01  1.00800000E+00
  1.00800000E+00  1.60000000E+01  1.00800000E+00  1.00800000E+00  1.60000000E+01
  1.00800000E+00  1.00800000E+00  1.60000000E+01  1.00800000E+00  1.00800000E+00
  1.60000000E+01  1.00800000E+00  1.00800000E+00  1.60000000E+01  1.00800000E+00
  1.00800000E+00  1.60000000E+01  1.00800000E+00  1.00800000E+00  1.60000000E+01
  1.00800000E+00  1.00800000E+00  1.60000000E+01  1.00800000E+00  1.00800000E+00
  1.60000000E+01  1.00800000E+00  1.00800000E+00  1.60000000E+01  1.00800000E+00
  1.00800000E+00  1.60000000E+01  1.00800000E+00  1.00800000E+00  1.60000000E+01
  1.00800000E+00  1.00800000E+00  1.60000000E+01  1.00800000E+00  1.00800000E+00
  1.60000000E+01  1.00800000E+00  1.00800000E+00  1.60000000E+01  1.00800000E+00
  1.00800000E+00  1.60000000E+01  1.00800000E+00  1.00800000E+00  1.60000000E+01
  1.00800000E+00  1.00800000E+00  1.60000000E+01  1.00800000E+00  1.00800000E+00
  1.60000000E+01  1.00800000E+00  1.00800000E+00  1.60000000E+01  1.00800000E+00
  1.00800000E+00  1.60000000E+01  1.00800000E+00  1.00800000E+00  1.60000000E+01
  1.00800000E+00  1.00800000E+00  1.60000000E+01  1.00800000E+00  1.00800000E+00
  1.60000000E+01  1.00800000E+00  1.00800000E+00  1.60000000E+01  1.00800000E+00
  1.00800000E+00  1.60000000E+01  1.00800000E+00  1.00800000E+00  1.60000000E+01
  1.00800000E+00  1.00800000E+00  1.60000000E+01  1.00800000E+00  1.00800000E+00
  1.60000000E+01  1.00800000E+00  1.00800000E+00  1.60000000E+01  1.00800000E+00
  1.00800000E+00  1.60000000E+01  1.00800000E+00  1.00800000E+00  1.60000000E+01
  1.00800000E+00  1.00800000E+00  1.60000000E+01  1.00800000E+00  1.00800000E+00
  1.60000000E+01  1.00800000E+00  1.00800000E+00  1.60000000E+01  1.00800000E+00
  1.00800000E+00  1.60000000E+01  1.00800000E+00  1.00800000E+00  1.60000000E+01
  1.00800000E+00  1.00800000E+00  1.60000000E+01  1.00800000E+00  1.00800000E+00
  1.60000000E+01  1.00800000E+00  1.00800000E+00  1.60000000E+01  1.00800000E+00
  1.00800000E+00  1.60000000E+01  1.00800000E+00  1.00800000E+00  1.60000000E+01
  1.00800000E+00  1.00800000E+00  1.60000000E+01  1.00800000E+00  1.00800000E+00
  1.60000000E+01  1.00800000E+00  1.00800000E+00  1.60000000E+01  1.00800000E+00
  1.00800000E+00  1.60000000E+01  1.00800000E+00  1.00800000E+00  1.60000000E+01
  1.00800000E+00  1.00800000E+00  1.60000000E+01  1.00800000E+00  1.00800000E+00
  1.60000000E+01  1.00800000E+00  1.00800000E+00  1.60000000E+01  1.00800000E+00
  1.00800000E+00  1.60000000E+01  1.00800000E+00  1.00800000E+00  1.60000000E+01
  1.00800000E+00  1.00800000E+00  1.60000000E+01  1.00800000E+00  1.00800000E+00
  1.60000000E+01  1.00800000E+00  1.00800000E+00  1.60000000E+01  1.00800000E+00
  1.00800000E+00  1.60000000E+01  1.00800000E+00  1.00800000E+00  1.60000000E+01
  1.00800000E+00  1.00800000E+00  1.60000000E+01  1.00800000E+00  1.00800000E+00
  1.60000000E+01  1.00800000E+00  1.00800000E+00  1.60000000E+01  1.00800000E+00
  1.00800000E+00  1.60000000E+01  1.00800000E+00  1.00800000E+00  1.60000000E+01
  1.00800000E+00  1.00800000E+00  1.60000000E+01  1.00800000E+00  1.00800000E+00
  1.60000000E+01  1.00800000E+00  1.00800000E+00  1.60000000E+01  1.00800000E+00
  1.00800000E+00  1.60000000E+01  1.00800000E+00  1.00800000E+00  1.60000000E+01
  1.00800000E+00  1.00800000E+00  1.60000000E+01  1.00800000E+00  1.00800000E+00
  1.60000000E+01  1.00800000E+00  1.00800000E+00  1.60000000E+01  1.00800000E+00
  1.00800000E+00  1.60000000E+01  1.00800000E+00  1.00800000E+00  1.60000000E+01
  1.00800000E+00  1.00800000E+00  1.60000000E+01  1.00800000E+00  1.00800000E+00
  1.60000000E+01  1.00800000E+00  1.00800000E+00  1.60000000E+01  1.00800000E+00
  1.00800000E+00  1.60000000E+01  1.00800000E+00  1.00800000E+00  1.60000000E+01
  1.00800000E+00  1.00800000E+00  1.60000000E+01  1.00800000E+00  1.00800000E+00
  1.60000000E+01  1.00800000E+00  1.00800000E+00  1.60000000E+01  1.00800000E+00
  1.00800000E+00  1.60000000E+01  1.00800000E+00  1.00800000E+00  1.60000000E+01
  1.00800000E+00  1.00800000E+00  1.60000000E+01  1.00800000E+00  1.00800000E+00
  1.60000000E+01  1.00800000E+00  1.00800000E+00  1.60000000E+01  1.00800000E+00
  1.00800000E+00  1.60000000E+01  1.00800000E+00  1.00800000E+00  1.60000000E+01
  1.00800000E+00  1.00800000E+00  1.60000000E+01  1.00800000E+00  1.00800000E+00
  1.60000000E+01  1.00800000E+00  1.00800000E+00  1.60000000E+01  1.00800000E+00
  1.00800000E+00  1.60000000E+01  1.00800000E+00  1.00800000E+00  1.60000000E+01
  1.00800000E+00  1.00800000E+00  1.60000000E+01  1.00800000E+00  1.00800000E+00
  1.60000000E+01  1.00800000E+00  1.00800000E+00  1.60000000E+01  1.00800000E+00
  1.00800000E+00  1.60000000E+01  1.00800000E+00  1.00800000E+00  1.60000000E+01
  1.00800000E+00  1.00800000E+00  1.60000000E+01  1.00800000E+00  1.00800000E+00
  1.60000000E+01  1.00800000E+00  1.00800000E+00  1.60000000E+01  1.00800000E+00
  1.00800000E+00  1.60000000E+01  1.00800000E+00  1.00800000E+00  1.60000000E+01
  1.00800000E+00  1.00800000E+00  1.60000000E+01  1.00800000E+00  1.00800000E+00
  1.60000000E+01  1.00800000E+00  1.00800000E+00  1.60000000E+01  1.00800000E+00
  1.00800000E+00  1.60000000E+01  1.00800000E+00  1.00800000E+00  1.60000000E+01
  1.00800000E+00  1.00800000E+00  1.60000000E+01  1.00800000E+00  1.00800000E+00
  1.60000000E+01  1.00800000E+00  1.00800000E+00  1.60000000E+01  1.00800000E+00
  1.00800000E+00  1.60000000E+01  1.00800000E+00  1.00800000E+00  1.60000000E+01
  1.00800000E+00  1.00800000E+00  1.60000000E+01  1.00800000E+00  1.00800000E+00
  1.60000000E+01  1.00800000E+00  1.00800000E+00  1.60000000E+01  1.00800000E+00
  1.00800000E+00  1.60000000E+01  1.00800000E+00  1.00800000E+00  1.60000000E+01
  1.00800000E+00  1.00800000E+00  1.60000000E+01  1.00800000E+00  1.00800000E+00
  1.60000000E+01  1.00800000E+00  1.00800000E+00  1.60000000E+01  1.00800000E+00
  1.00800000E+00  1.60000000E+01  1.00800000E+00  1.00800000E+00  1.60000000E+01
  1.00800000E+00  1.00800000E+00  1.60000000E+01  1.00800000E+00  1.00800000E+00
  1.60000000E+01  1.00800000E+00  1.00800000E+00  1.60000000E+01  1.00800000E+00
  1.00800000E+00  1.60000000E+01  1.00800000E+00  1.00800000E+00  1.60000000E+01
  1.00800000E+00  1.00800000E+00  1.60000000E+01  1.00800000E+00  1.00800000E+00
  1.60000000E+01  1.00800000E+00  1.00800000E+00  1.60000000E+01  1.00800000E+00
  1.00800000E+00  1.60000000E+01  1.00800000E+00  1.00800000E+00  1.60000000E+01
  1.00800000E+00  1.00800000E+00  1.60000000E+01  1.00800000E+00  1.00800000E+00
  1.60000000E+01  1.00800000E+00  1.00800000E+00  1.60000000E+01  1.00800000E+00
  1.00800000E+00  1.60000000E+01  1.00800000E+00  1.00800000E+00  1.60000000E+01
  1.00800000E+00  1.00800000E+00  1.60000000E+01  1.00800000E+00  1.00800000E+00
  1.60000000E+01  1.00800000E+00  1.00800000E+00  1.60000000E+01  1.00800000E+00
  1.00800000E+00  1.60000000E+01  1.00800000E+00  1.00800000E+00  1.60000000E+01
  1.00800000E+00  1.00800000E+00  1.60000000E+01  1.00800000E+00  1.00800000E+00
  1.60000000E+01  1.00800000E+00  1.00800000E+00  1.60000000E+01  1.00800000E+00
  1.00800000E+00  1.60000000E+01  1.00800000E+00  1.00800000E+00  1.60000000E+01
  1.00800000E+00  1.00800000E+00  1.60000000E+01  1.00800000E+00  1.00800000E+00
  1.60000000E+01  1.00800000E+00  1.00800000E+00  1.60000000E+01  1.00800000E+00
  1.00800000E+00  1.60000000E+01  1.00800000E+00  1.00800000E+00  1.60000000E+01
  1.00800000E+00  1.00800000E+00  1.60000000E+01  1.00800000E+00  1.00800000E+00
  1.60000000E+01  1.00800000E+00  1.00800000E+00  1.60000000E+01  1.00800000E+00
  1.00800000E+00  1.60000000E+01  1.00800000E+00  1.00800000E+00  1.60000000E+01
  1.00800000E+00  1.00800000E+00  1.60000000E+01  1.00800000E+00  1.00800000E+00
  1.60000000E+01  1.00800000E+00  1.00800000E+00  1.60000000E+01  1.00800000E+00
  1.00800000E+00  1.60000000E+01  1.00800000E+00  1.00800000E+00  1.60000000E+01
  1.00800000E+00  1.00800000E+00  1.60000000E+01  1.00800000E+00  1.00800000E+00
  1.60000000E+01  1.00800000E+00  1.00800000E+00  1.60000000E+01  1.00800000E+00
  1.00800000E+00  1.60000000E+01  1.00800000E+00  1.00800000E+00  1.60000000E+01
  1.00800000E+00  1.00800000E+00  1.60000000E+01  1.00800000E+00  1.00800000E+00
  1.60000000E+01  1.00800000E+00  1.00800000E+00  1.60000000E+01  1.00800000E+00
  1.00800000E+00  1.60000000E+01  1.00800000E+00  1.00800000E+00  1.60000000E+01
  1.00800000E+00  1.00800000E+00  1.60000000E+01  1.00800000E+00  1.00800000E+00
  1.60000000E+01  1.00800000E+00  1.00800000E+00  1.60000000E+01  1.00800000E+00
  1.00800000E+00  1.60000000E+01  1.00800000E+00  1.00800000E+00  1.60000000E+01
  1.00800000E+00  1.00800000E+00  1.60000000E+01  1.00800000E+00  1.00800000E+00
  1.60000000E+01  1.00800000E+00  1.00800000E+00  1.60000000E+01  1.00800000E+00
  1.00800000E+00  1.60000000E+01  1.00800000E+00  1.00800000E+00  1.60000000E+01
  1.00800000E+00  1.00800000E+00  1.60000000E+01  1.00800000E+00  1.00800000E+00
  1.60000000E+01  1.00800000E+00  1.00800000E+00  1.60000000E+01  1.00800000E+00
  1.00800000E+00  1.60000000E+01  1.00800000E+00  1.00800000E+00  1.60000000E+01
  1.00800000E+00  1.00800000E+00  1.60000000E+01  1.00800000E+00  1.00800000E+00
  1.60000000E+01  1.00800000E+00  1.00800000E+00  1.60000000E+01  1.00800000E+00
  1.00800000E+00  1.60000000E+01  1.00800000E+00  1.00800000E+00  1.60000000E+01
  1.00800000E+00  1.00800000E+00  1.60000000E+01  1.00800000E+00  1.00800000E+00
  1.60000000E+01  1.00800000E+00  1.00800000E+00  1.60000000E+01  1.00800000E+00
  1.00800000E+00  1.60000000E+01  1.00800000E+00  1.00800000E+00  1.60000000E+01
  1.00800000E+00  1.00800000E+00  1.60000000E+01  1.00800000E+00  1.00800000E+00
  1.60000000E+01  1.00800000E+00  1.00800000E+00  1.60000000E+01  1.00800000E+00
  1.00800000E+00  1.60000000E+01  1.00800000E+00  1.00800000E+00  1.60000000E+01
  1.00800000E+00  1.00800000E+00  1.60000000E+01  1.00800000E+00  1.00800000E+00
  1.60000000E+01  1.00800000E+00  1.00800000E+00  1.60000000E+01  1.00800000E+00
  1.00800000E+00  1.60000000E+01  1.00800000E+00  1.00800000E+00  1.60000000E+01
  1.00800000E+00  1.00800000E+00  1.60000000E+01  1.00800000E+00  1.00800000E+00
  1.60000000E+01  1.00800000E+00  1.00800000E+00  1.60000000E+01  1.00800000E+00
  1.00800000E+00  1.60000000E+01  1.00800000E+00  1.00800000E+00  1.60000000E+01
  1.00800000E+00  1.00800000E+00  1.60000000E+01  1.00800000E+00  1.00800000E+00
  1.60000000E+01  1.00800000E+00  1.00800000E+00  1.60000000E+01  1.00800000E+00
  1.00800000E+00  1.60000000E+01  1.00800000E+00  1.00800000E+00  1.60000000E+01
  1.00800000E+00  1.00800000E+00  1.60000000E+01  1.00800000E+00  1.00800000E+00
  1.60000000E+01  1.00800000E+00  1.00800000E+00  1.60000000E+01  1.00800000E+00
  1.00800000E+00  1.60000000E+01  1.00800000E+00  1.00800000E+00  1.60000000E+01
  1.00800000E+00  1.00800000E+00  1.60000000E+01  1.00800000E+00  1.00800000E+00
  1.60000000E+01  1.00800000E+00  1.00800000E+00  1.60000000E+01  1.00800000E+00
  1.00800000E+00  1.60000000E+01  1.00800000E+00  1.00800000E+00  1.60000000E+01
  1.00800000E+00  1.00800000E+00  1.60000000E+01  1.00800000E+00  1.00800000E+00
  1.60000000E+01  1.00800000E+00  1.00800000E+00  1.60000000E+01  1.00800000E+00
  1.00800000E+00  1.60000000E+01  1.00800000E+00  1.00800000E+00  1.60000000E+01
  1.00800000E+00  1.00800000E+00  1.60000000E+01  1.00800000E+00  1.00800000E+00
  1.60000000E+01  1.00800000E+00  1.00800000E+00  1.60000000E+01  1.00800000E+00
  1.00800000E+00  1.60000000E+01  1.00800000E+00  1.00800000E+00  1.60000000E+01
  1.00800000E+00  1.00800000E+00  1.60000000E+01  1.00800000E+00  1.00800000E+00
  1.60000000E+01  1.00800000E+00  1.00800000E+00  1.60000000E+01  1.00800000E+00
  1.00800000E+00  1.60000000E+01  1.00800000E+00  1.00800000E+00  1.60000000E+01
  1.00800000E+00  1.00800000E+00  1.60000000E+01  1.00800000E+00  1.00800000E+00
  1.60000000E+01  1.00800000E+00  1.00800000E+00  1.60000000E+01  1.00800000E+00
  1.00800000E+00  1.60000000E+01  1.00800000E+00  1.00800000E+00  1.60000000E+01
  1.00800000E+00  1.00800000E+00  1.60000000E+01  1.00800000E+00  1.00800000E+00
  1.60000000E+01  1.00800000E+00  1.00800000E+00  1.60000000E+01  1.00800000E+00
  1.00800000E+00  1.60000000E+01  1.00800000E+00  1.00800000E+00  1.60000000E+01
  1.00800000E+00  1.00800000E+00  1.60000000E+01  1.00800000E+00  1.00800000E+00
  1.60000000E+01  1.00800000E+00  1.00800000E+00  1.60000000E+01  1.00800000E+00
  1.00800000E+00  1.60000000E+01  1.00800000E+00  1.00800000E+00  1.60000000E+01
  1.00800000E+00  1.00800000E+00  1.60000000E+01  1.00800000E+00  1.00800000E+00
  1.60000000E+01  1.00800000E+00  1.00800000E+00  1.60000000E+01  1.00800000E+00
  1.00800000E+00  1.60000000E+01  1.00800000E+00  1.00800000E+00  1.60000000E+01
  1.00800000E+00  1.00800000E+00  1.60000000E+01  1.00800000E+00  1.00800000E+00
  1.60000000E+01  1.00800000E+00  1.00800000E+00  1.60000000E+01  1.00800000E+00
  1.00800000E+00  1.60000000E+01  1.00800000E+00  1.00800000E+00  1.60000000E+01
  1.00800000E+00  1.00800000E+00  1.60000000E+01  1.00800000E+00  1.00800000E+00
  1.60000000E+01  1.00800000E+00  1.00800000E+00  1.60000000E+01  1.00800000E+00
  1.00800000E+00  1.60000000E+01  1.00800000E+00  1.00800000E+00  1.60000000E+01
  1.00800000E+00  1.00800000E+00  1.60000000E+01  1.00800000E+00  1.00800000E+00
  1.60000000E+01  1.00800000E+00  1.00800000E+00  1.60000000E+01  1.00800000E+00
  1.00800000E+00  1.60000000E+01  1.00800000E+00  1.00800000E+00  1.60000000E+01
  1.00800000E+00  1.00800000E+00  1.60000000E+01  1.00800000E+00  1.00800000E+00
  1.60000000E+01  1.00800000E+00  1.00800000E+00  1.60000000E+01  1.00800000E+00
  1.00800000E+00  1.60000000E+01  1.00800000E+00  1.00800000E+00  1.60000000E+01
  1.00800000E+00  1.00800000E+00  1.60000000E+01  1.00800000E+00  1.00800000E+00
  1.60000000E+01  1.00800000E+00  1.00800000E+00  1.60000000E+01  1.00800000E+00
  1.00800000E+00  1.60000000E+01  1.00800000E+00  1.00800000E+00  1.60000000E+01
  1.00800000E+00  1.00800000E+00  1.60000000E+01  1.00800000E+00  1.00800000E+00
  1.60000000E+01  1.00800000E+00  1.00800000E+00  1.60000000E+01  1.00800000E+00
  1.00800000E+00  1.60000000E+01  1.00800000E+00  1.00800000E+00  1.60000000E+01
  1.00800000E+00  1.00800000E+00  1.60000000E+01  1.00800000E+00  1.00800000E+00
  1.60000000E+01  1.00800000E+00  1.00800000E+00  1.60000000E+01  1.00800000E+00
  1.00800000E+00  1.60000000E+01  1.00800000E+00  1.00800000E+00  1.60000000E+01
  1.00800000E+00  1.00800000E+00  1.60000000E+01  1.00800000E+00  1.00800000E+00
  1.60000000E+01  1.00800000E+00  1.00800000E+00  1.60000000E+01  1.00800000E+00
  1.00800000E+00  1.60000000E+01  1.00800000E+00  1.00800000E+00  1.60000000E+01
  1.00800000E+00  1.00800000E+00  1.60000000E+01  1.00800000E+00  1.00800000E+00
  1.60000000E+01  1.00800000E+00  1.00800000E+00  1.60000000E+01  1.00800000E+00
  1.00800000E+00  1.60000000E+01  1.00800000E+00  1.00800000E+00  1.60000000E+01
  1.00800000E+00  1.00800000E+00  1.60000000E+01  1.00800000E+00  1.00800000E+00
  1.60000000E+01  1.00800000E+00  1.00800000E+00  1.60000000E+01  1.00800000E+00
  1.00800000E+00  1.60000000E+01  1.00800000E+00  1.00800000E+00  1.60000000E+01
  1.00800000E+00  1.00800000E+00  1.60000000E+01  1.00800000E+00  1.00800000E+00
  1.60000000E+01  1.00800000E+00  1.00800000E+00  1.60000000E+01  1.00800000E+00
  1.00800000E+00  1.60000000E+01  1.00800000E+00  1.00800000E+00  1.60000000E+01
  1.00800000E+00  1.00800000E+00  1.60000000E+01  1.00800000E+00  1.00800000E+00
  1.60000000E+01  1.00800000E+00  1.00800000E+00  1.60000000E+01  1.00800000E+00
  1.00800000E+00  1.60000000E+01  1.00800000E+00  1.00800000E+00  1.60000000E+01
  1.00800000E+00  1.00800000E+00  1.60000000E+01  1.00800000E+00  1.00800000E+00
  1.60000000E+01  1.00800000E+00  1.00800000E+00  1.60000000E+01  1.00800000E+00
  1.00800000E+00  1.60000000E+01  1.00800000E+00  1.00800000E+00  1.60000000E+01
  1.00800000E+00  1.00800000E+00  1.60000000E+01  1.00800000E+00  1.00800000E+00
  1.60000000E+01  1.00800000E+00  1.00800000E+00  1.60000000E+01  1.00800000E+00
  1.00800000E+00  1.60000000E+01  1.00800000E+00  1.00800000E+00  1.60000000E+01
  1.00800000E+00  1.00800000E+00  1.60000000E+01  1.00800000E+00  1.00800000E+00
  1.60000000E+01  1.00800000E+00  1.00800000E+00  1.60000000E+01  1.00800000E+00
  1.00800000E+00  1.60000000E+01  1.00800000E+00  1.00800000E+00  1.60000000E+01
  1.00800000E+00  1.00800000E+00  1.60000000E+01  1.00800000E+00  1.00800000E+00
  1.60000000E+01  1.00800000E+00  1.00800000E+00  1.60000000E+01  1.00800000E+00
  1.00800000E+00  1.60000000E+01  1.00800000E+00  1.00800000E+00  1.60000000E+01
  1.00800000E+00  1.00800000E+00  1.60000000E+01  1.00800000E+00  1.00800000E+00
  1.60000000E+01  1.00800000E+00  1.00800000E+00  1.60000000E+01  1.00800000E+00
  1.00800000E+00  1.60000000E+01  1.00800000E+00  1.00800000E+00  1.60000000E+01
  1.00800000E+00  1.00800000E+00  1.60000000E+01  1.00800000E+00  1.00800000E+00
  1.60000000E+01  1.00800000E+00  1.00800000E+00  1.60000000E+01  1.00800000E+00
  1.00800000E+00  1.60000000E+01  1.00800000E+00  1.00800000E+00  1.60000000E+01
  1.00800000E+00  1.00800000E+00  1.60000000E+01  1.00800000E+00  1.00800000E+00
  1.60000000E+01  1.00800000E+00  1.00800000E+00  1.60000000E+01  1.00800000E+00
  1.00800000E+00  1.60000000E+01  1.00800000E+00  1.00800000E+00  1.60000000E+01
  1.00800000E+00  1.00800000E+00  1.60000000E+01  1.00800000E+00  1.00800000E+00
  1.60000000E+01  1.00800000E+00  1.00800000E+00  1.60000000E+01  1.00800000E+00
  1.00800000E+00  1.60000000E+01  1.00800000E+00  1.00800000E+00  1.60000000E+01
  1.00800000E+00  1.00800000E+00  1.60000000E+01  1.00800000E+00  1.00800000E+00
  1.60000000E+01  1.00800000E+00  1.00800000E+00  1.60000000E+01  1.00800000E+00
  1.00800000E+00  1.60000000E+01  1.00800000E+00  1.00800000E+00  1.60000000E+01
  1.00800000E+00  1.00800000E+00  1.60000000E+01  1.00800000E+00  1.00800000E+00
  1.60000000E+01  1.00800000E+00  1.00800000E+00  1.60000000E+01  1.00800000E+00
  1.00800000E+00  1.60000000E+01  1.00800000E+00  1.00800000E+00  1.60000000E+01
  1.00800000E+00  1.00800000E+00  1.60000000E+01  1.00800000E+00  1.00800000E+00
  1.60000000E+01  1.00800000E+00  1.00800000E+00  1.60000000E+01  1.00800000E+00
  1.00800000E+00  1.60000000E+01  1.00800000E+00  1.00800000E+00  1.60000000E+01
  1.00800000E+00  1.00800000E+00  1.60000000E+01  1.00800000E+00  1.00800000E+00
  1.60000000E+01  1.00800000E+00  1.00800000E+00  1.60000000E+01  1.00800000E+00
  1.00800000E+00  1.60000000E+01  1.00800000E+00  1.00800000E+00  1.60000000E+01
  1.00800000E+00  1.00800000E+00  1.60000000E+01  1.00800000E+00  1.00800000E+00
  1.60000000E+01  1.00800000E+00  1.00800000E+00  1.60000000E+01  1.00800000E+00
  1.00800000E+00  1.60000000E+01  1.00800000E+00  1.00800000E+00  1.60000000E+01
  1.00800000E+00  1.00800000E+00  1.60000000E+01  1.00800000E+00  1.00800000E+00
  1.60000000E+01  1.00800000E+00  1.00800000E+00  1.60000000E+01  1.00800000E+00
  1.00800000E+00  1.60000000E+01  1.00800000E+00  1.00800000E+00  1.60000000E+01
  1.00800000E+00  1.00800000E+00  1.60000000E+01  1.00800000E+00  1.00800000E+00
  1.60000000E+01  1.00800000E+00  1.00800000E+00  1.60000000E+01  1.00800000E+00
  1.00800000E+00  1.60000000E+01  1.00800000E+00  1.00800000E+00  1.60000000E+01
  1.00800000E+00  1.00800000E+00  1.60000000E+01  1.00800000E+00  1.00800000E+00
  1.60000000E+01  1.00800000E+00  1.00800000E+00  1.60000000E+01  1.00800000E+00
  1.00800000E+00  1.60000000E+01  1.00800000E+00  1.00800000E+00  1.60000000E+01
  1.00800000E+00  1.00800000E+00  1.60000000E+01  1.00800000E+00  1.00800000E+00
  1.60000000E+01  1.00800000E+00  1.00800000E+00  1.60000000E+01  1.00800000E+00
  1.00800000E+00  1.60000000E+01  1.00800000E+00  1.00800000E+00  1.60000000E+01
  1.00800000E+00  1.00800000E+00  1.60000000E+01  1.00800000E+00  1.00800000E+00
  1.60000000E+01  1.00800000E+00  1.00800000E+00  1.60000000E+01  1.00800000E+00
  1.00800000E+00  1.60000000E+01  1.00800000E+00  1.00800000E+00  1.60000000E+01
  1.00800000E+00  1.00800000E+00  1.60000000E+01  1.00800000E+00  1.00800000E+00
  1.60000000E+01  1.00800000E+00  1.00800000E+00  1.60000000E+01  1.00800000E+00
  1.00800000E+00  1.60000000E+01  1.00800000E+00  1.00800000E+00  1.60000000E+01
  1.00800000E+00  1.00800000E+00  1.60000000E+01  1.00800000E+00  1.00800000E+00
  1.60000000E+01  1.00800000E+00  1.00800000E+00  1.60000000E+01  1.00800000E+00
  1.00800000E+00  1.60000000E+01  1.00800000E+00  1.00800000E+00  1.60000000E+01
  1.00800000E+00  1.00800000E+00  1.60000000E+01  1.00800000E+00  1.00800000E+00
  1.60000000E+01  1.00800000E+00  1.00800000E+00  1.60000000E+01  1.00800000E+00
  1.00800000E+00  1.60000000E+01  1.00800000E+00  1.00800000E+00  1.60000000E+01
  1.00800000E+00  1.00800000E+00  1.60000000E+01  1.00800000E+00  1.00800000E+00
  1.60000000E+01  1.00800000E+00  1.00800000E+00  1.60000000E+01  1.00800000E+00
  1.00800000E+00  1.60000000E+01  1.00800000E+00  1.00800000E+00  1.60000000E+01
  1.00800000E+00  1.00800000E+00  1.60000000E+01  1.00800000E+00  1.00800000E+00
  1.60000000E+01  1.00800000E+00  1.00800000E+00  1.60000000E+01  1.00800000E+00
  1.00800000E+00  1.60000000E+01  1.00800000E+00  1.00800000E+00  1.60000000E+01
  1.00800000E+00  1.00800000E+00  1.60000000E+01  1.00800000E+00  1.00800000E+00
  1.60000000E+01  1.00800000E+00  1.00800000E+00  1.60000000E+01  1.00800000E+00
  1.00800000E+00  1.60000000E+01  1.00800000E+00  1.00800000E+00  1.60000000E+01
  1.00800000E+00  1.00800000E+00  1.60000000E+01  1.00800000E+00  1.00800000E+00
  1.60000000E+01  1.00800000E+00  1.00800000E+00  1.60000000E+01  1.00800000E+00
  1.00800000E+00  1.60000000E+01  1.00800000E+00  1.00800000E+00  1.60000000E+01
  1.00800000E+00  1.00800000E+00  1.60000000E+01  1.00800000E+00  1.00800000E+00
  1.60000000E+01  1.00800000E+00  1.00800000E+00  1.60000000E+01  1.00800000E+00
  1.00800000E+00  1.60000000E+01  1.00800000E+00  1.00800000E+00  1.60000000E+01
  1.00800000E+00  1.00800000E+00  1.60000000E+01  1.00800000E+00  1.00800000E+00
  1.60000000E+01  1.00800000E+00  1.00800000E+00  1.60000000E+01  1.00800000E+00
  1.00800000E+00  1.60000000E+01  1.00800000E+00  1.00800000E+00  1.60000000E+01
  1.00800000E+00  1.00800000E+00  1.60000000E+01  1.00800000E+00  1.00800000E+00
  1.60000000E+01  1.00800000E+00  1.00800000E+00  1.60000000E+01  1.00800000E+00
  1.00800000E+00  1.60000000E+01  1.00800000E+00  1.00800000E+00  1.60000000E+01
  1.00800000E+00  1.00800000E+00  1.60000000E+01  1.00800000E+00  1.00800000E+00
  1.60000000E+01  1.00800000E+00  1.00800000E+00  1.60000000E+01  1.00800000E+00
  1.00800000E+00  1.60000000E+01  1.00800000E+00  1.00800000E+00  1.60000000E+01
  1.00800000E+00  1.00800000E+00  1.60000000E+01  1.00800000E+00  1.00800000E+00
  1.60000000E+01  1.00800000E+00  1.00800000E+00  1.60000000E+01  1.00800000E+00
  1.00800000E+00  1.60000000E+01  1.00800000E+00  1.00800000E+00  1.60000000E+01
  1.00800000E+00  1.00800000E+00  1.60000000E+01  1.00800000E+00  1.00800000E+00
  1.60000000E+01  1.00800000E+00  1.00800000E+00  1.60000000E+01  1.00800000E+00
  1.00800000E+00  1.60000000E+01  1.00800000E+00  1.00800000E+00  1.60000000E+01
  1.00800000E+00  1.00800000E+00  1.60000000E+01  1.00800000E+00  1.00800000E+00
  1.60000000E+01  1.00800000E+00  1.00800000E+00  1.60000000E+01  1.00800000E+00
  1.00800000E+00  1.60000000E+01  1.00800000E+00  1.00800000E+00  1.60000000E+01
  1.00800000E+00  1.00800000E+00  1.60000000E+01  1.00800000E+00  1.00800000E+00
  1.60000000E+01  1.00800000E+00  1.00800000E+00  1.60000000E+01  1.00800000E+00
  1.00800000E+00  1.60000000E+01  1.00800000E+00  1.00800000E+00  1.60000000E+01
  1.00800000E+00  1.00800000E+00  1.60000000E+01  1.00800000E+00  1.00800000E+00
  1.60000000E+01  1.00800000E+00  1.00800000E+00  1.60000000E+01  1.00800000E+00
  1.00800000E+00  1.60000000E+01  1.00800000E+00  1.00800000E+00  1.60000000E+01
  1.00800000E+00  1.00800000E+00  1.60000000E+01  1.00800000E+00  1.00800000E+00
  1.60000000E+01  1.00800000E+00  1.00800000E+00  1.60000000E+01  1.00800000E+00
  1.00800000E+00  1.60000000E+01  1.00800000E+00  1.00800000E+00  1.60000000E+01
  1.00800000E+00  1.00800000E+00  1.60000000E+01  1.00800000E+00  1.00800000E+00
  1.60000000E+01  1.00800000E+00  1.00800000E+00  1.60000000E+01  1.00800000E+00
  1.00800000E+00  1.60000000E+01  1.00800000E+00  1.00800000E+00  1.60000000E+01
  1.00800000E+00  1.00800000E+00  1.60000000E+01  1.00800000E+00  1.00800000E+00
  1.60000000E+01  1.00800000E+00  1.00800000E+00  1.60000000E+01  1.00800000E+00
  1.00800000E+00  1.60000000E+01  1.00800000E+00  1.00800000E+00  1.60000000E+01
  1.00800000E+00  1.00800000E+00  1.60000000E+01  1.00800000E+00  1.00800000E+00
  1.60000000E+01  1.00800000E+00  1.00800000E+00  1.60000000E+01  1.00800000E+00
  1.00800000E+00  1.60000000E+01  1.00800000E+00  1.00800000E+00  1.60000000E+01
  1.00800000E+00  1.00800000E+00  1.60000000E+01  1.00800000E+00  1.00800000E+00
  1.60000000E+01  1.00800000E+00  1.00800000E+00  1.60000000E+01  1.00800000E+00
  1.00800000E+00  1.60000000E+01  1.00800000E+00  1.00800000E+00  1.60000000E+01
  1.00800000E+00  1.00800000E+00  1.60000000E+01  1.00800000E+00  1.00800000E+00
  1.60000000E+01  1.00800000E+00  1.00800000E+00  1.60000000E+01  1.00800000E+00
  1.00800000E+00  1.60000000E+01  1.00800000E+00  1.00800000E+00  1.60000000E+01
  1.00800000E+00  1.00800000E+00  1.60000000E+01  1.00800000E+00  1.00800000E+00
  1.60000000E+01  1.00800000E+00  1.00800000E+00  1.60000000E+01  1.00800000E+00
  1.00800000E+00  1.60000000E+01  1.00800000E+00  1.00800000E+00  1.60000000E+01
  1.00800000E+00  1.00800000E+00  1.60000000E+01  1.00800000E+00  1.00800000E+00
  1.60000000E+01  1.00800000E+00  1.00800000E+00  1.60000000E+01  1.00800000E+00
  1.00800000E+00  1.60000000E+01  1.00800000E+00  1.00800000E+00  1.60000000E+01
  1.00800000E+00  1.00800000E+00  1.60000000E+01  1.00800000E+00  1.00800000E+00
  1.60000000E+01  1.00800000E+00  1.00800000E+00  1.60000000E+01  1.00800000E+00
  1.00800000E+00  1.60000000E+01  1.00800000E+00  1.00800000E+00  1.60000000E+01
  1.00800000E+00  1.00800000E+00  1.60000000E+01  1.00800000E+00  1.00800000E+00
  1.60000000E+01  1.00800000E+00  1.00800000E+00  1.60000000E+01  1.00800000E+00
  1.00800000E+00  1.60000000E+01  1.00800000E+00  1.00800000E+00  1.60000000E+01
  1.00800000E+00  1.00800000E+00  1.60000000E+01  1.00800000E+00  1.00800000E+00
  1.60000000E+01  1.00800000E+00  1.00800000E+00  1.60000000E+01  1.00800000E+00
  1.00800000E+00  1.60000000E+01  1.00800000E+00  1.00800000E+00  1.60000000E+01
  1.00800000E+00  1.00800000E+00  1.60000000E+01  1.00800000E+00  1.00800000E+00
  1.60000000E+01  1.00800000E+00  1.00800000E+00  1.60000000E+01  1.00800000E+00
  1.00800000E+00  1.60000000E+01  1.00800000E+00  1.00800000E+00  1.60000000E+01
  1.00800000E+00  1.00800000E+00  1.60000000E+01  1.00800000E+00  1.00800000E+00
  1.60000000E+01  1.00800000E+00  1.00800000E+00  1.60000000E+01  1.00800000E+00
  1.00800000E+00  1.60000000E+01  1.00800000E+00  1.00800000E+00  1.60000000E+01
  1.00800000E+00  1.00800000E+00  1.60000000E+01  1.00800000E+00  1.00800000E+00
  1.60000000E+01  1.00800000E+00  1.00800000E+00  1.60000000E+01  1.00800000E+00
  1.00800000E+00  1.60000000E+01  1.00800000E+00  1.00800000E+00  1.60000000E+01
  1.00800000E+00  1.00800000E+00  1.60000000E+01  1.00800000E+00  1.00800000E+00
  1.60000000E+01  1.00800000E+00  1.00800000E+00  1.60000000E+01  1.00800000E+00
  1.00800000E+00  1.60000000E+01  1.00800000E+00  1.00800000E+00  1.60000000E+01
  1.00800000E+00  1.00800000E+00  1.60000000E+01  1.00800000E+00  1.00800000E+00
  1.60000000E+01  1.00800000E+00  1.00800000E+00  1.60000000E+01  1.00800000E+00
  1.00800000E+00  1.60000000E+01  1.00800000E+00  1.00800000E+00  1.60000000E+01
  1.00800000E+00  1.00800000E+00  1.60000000E+01  1.00800000E+00  1.00800000E+00
  1.60000000E+01  1.00800000E+00  1.00800000E+00  1.60000000E+01  1.00800000E+00
  1.00800000E+00  1.60000000E+01  1.00800000E+00  1.00800000E+00  1.60000000E+01
  1.00800000E+00  1.00800000E+00  1.60000000E+01  1.00800000E+00  1.00800000E+00
  1.60000000E+01  1.00800000E+00  1.00800000E+00  1.60000000E+01  1.00800000E+00
  1.00800000E+00  1.60000000E+01  1.00800000E+00  1.00800000E+00  1.60000000E+01
  1.00800000E+00  1.00800000E+00  1.60000000E+01  1.00800000E+00  1.00800000E+00
  1.60000000E+01  1.00800000E+00  1.00800000E+00  1.60000000E+01  1.00800000E+00
  1.00800000E+00  1.60000000E+01  1.00800000E+00  1.00800000E+00  1.60000000E+01
  1.00800000E+00  1.00800000E+00  1.60000000E+01  1.00800000E+00  1.00800000E+00
  1.60000000E+01  1.00800000E+00  1.00800000E+00  1.60000000E+01  1.00800000E+00
  1.00800000E+00  1.60000000E+01  1.00800000E+00  1.00800000E+00  1.60000000E+01
  1.00800000E+00  1.00800000E+00  1.60000000E+01  1.00800000E+00  1.00800000E+00
  1.60000000E+01  1.00800000E+00  1.00800000E+00  1.60000000E+01  1.00800000E+00
  1.00800000E+00  1.60000000E+01  1.00800000E+00  1.00800000E+00  1.60000000E+01
  1.00800000E+00  1.00800000E+00  1.60000000E+01  1.00800000E+00  1.00800000E+00
  1.60000000E+01  1.00800000E+00  1.00800000E+00  1.60000000E+01  1.00800000E+00
  1.00800000E+00  1.60000000E+01  1.00800000E+00  1.00800000E+00  1.60000000E+01
  1.00800000E+00  1.00800000E+00  1.60000000E+01  1.00800000E+00  1.00800000E+00
  1.60000000E+01  1.00800000E+00  1.00800000E+00  1.60000000E+01  1.00800000E+00
  1.00800000E+00  1.60000000E+01  1.00800000E+00  1.00800000E+00  1.60000000E+01
  1.00800000E+00  1.00800000E+00  1.60000000E+01  1.00800000E+00  1.00800000E+00
  1.60000000E+01  1.00800000E+00  1.00800000E+00  1.60000000E+01  1.00800000E+00
  1.00800000E+00  1.60000000E+01  1.00800000E+00  1.00800000E+00  1.60000000E+01
  1.00800000E+00  1.00800000E+00  1.60000000E+01  1.00800000E+00  1.00800000E+00
  1.60000000E+01  1.00800000E+00  1.00800000E+00  1.60000000E+01  1.00800000E+00
  1.00800000E+00  1.60000000E+01  1.00800000E+00  1.00800000E+00  1.60000000E+01
  1.00800000E+00  1.00800000E+00  1.60000000E+01  1.00800000E+00  1.00800000E+00
  1.60000000E+01  1.00800000E+00  1.00800000E+00  1.60000000E+01  1.00800000E+00
  1.00800000E+00  1.60000000E+01  1.00800000E+00  1.00800000E+00  1.60000000E+01
  1.00800000E+00  1.00800000E+00  1.60000000E+01  1.00800000E+00  1.00800000E+00
  1.60000000E+01  1.00800000E+00  1.00800000E+00  1.60000000E+01  1.00800000E+00
  1.00800000E+00  1.60000000E+01  1.00800000E+00  1.00800000E+00  1.60000000E+01
  1.00800000E+00  1.00800000E+00  1.60000000E+01  1.00800000E+00  1.00800000E+00
  1.60000000E+01  1.00800000E+00  1.00800000E+00  1.60000000E+01  1.00800000E+00
  1.00800000E+00  1.60000000E+01  1.00800000E+00  1.00800000E+00  1.60000000E+01
  1.00800000E+00  1.00800000E+00  1.60000000E+01  1.00800000E+00  1.00800000E+00
  1.60000000E+01  1.00800000E+00  1.00800000E+00  1.60000000E+01  1.00800000E+00
  1.00800000E+00  1.60000000E+01  1.00800000E+00  1.00800000E+00  1.60000000E+01
  1.00800000E+00  1.00800000E+00  1.60000000E+01  1.00800000E+00  1.00800000E+00
  1.60000000E+01  1.00800000E+00  1.00800000E+00  1.60000000E+01  1.00800000E+00
  1.00800000E+00  1.60000000E+01  1.00800000E+00  1.00800000E+00  1.60000000E+01
  1.00800000E+00  1.00800000E+00  1.60000000E+01  1.00800000E+00  1.00800000E+00
  1.60000000E+01  1.00800000E+00  1.00800000E+00  1.60000000E+01  1.00800000E+00
  1.00800000E+00  1.60000000E+01  1.00800000E+00  1.00800000E+00  1.60000000E+01
  1.00800000E+00  1.00800000E+00  1.60000000E+01  1.00800000E+00  1.00800000E+00
  1.60000000E+01  1.00800000E+00  1.00800000E+00  1.60000000E+01  1.00800000E+00
  1.00800000E+00  1.60000000E+01  1.00800000E+00  1.00800000E+00  1.60000000E+01
  1.00800000E+00  1.00800000E+00  1.60000000E+01  1.00800000E+00  1.00800000E+00
  1.60000000E+01  1.00800000E+00  1.00800000E+00  1.60000000E+01  1.00800000E+00
  1.00800000E+00  1.60000000E+01  1.00800000E+00  1.00800000E+00  1.60000000E+01
  1.00800000E+00  1.00800000E+00  1.60000000E+01  1.00800000E+00  1.00800000E+00
  1.60000000E+01  1.00800000E+00  1.00800000E+00  1.60000000E+01  1.00800000E+00
  1.00800000E+00  1.60000000E+01  1.00800000E+00  1.00800000E+00  1.60000000E+01
  1.00800000E+00  1.00800000E+00  1.60000000E+01  1.00800000E+00  1.00800000E+00
  1.60000000E+01  1.00800000E+00  1.00800000E+00  1.60000000E+01  1.00800000E+00
  1.00800000E+00  1.60000000E+01  1.00800000E+00  1.00800000E+00  1.60000000E+01
  1.00800000E+00  1.00800000E+00  1.60000000E+01  1.00800000E+00  1.00800000E+00
  1.60000000E+01  1.00800000E+00  1.00800000E+00  1.60000000E+01  1.00800000E+00
  1.00800000E+00  1.60000000E+01  1.00800000E+00  1.00800000E+00  1.60000000E+01
  1.00800000E+00  1.00800000E+00  1.60000000E+01  1.00800000E+00  1.00800000E+00
  1.60000000E+01  1.00800000E+00  1.00800000E+00  1.60000000E+01  1.00800000E+00
  1.00800000E+00  1.60000000E+01  1.00800000E+00  1.00800000E+00  1.60000000E+01
  1.00800000E+00  1.00800000E+00  1.60000000E+01  1.00800000E+00  1.00800000E+00
  1.60000000E+01  1.00800000E+00  1.00800000E+00  1.60000000E+01  1.00800000E+00
  1.00800000E+00  1.60000000E+01  1.00800000E+00  1.00800000E+00  1.60000000E+01
  1.00800000E+00  1.00800000E+00  1.60000000E+01  1.00800000E+00  1.00800000E+00
  1.60000000E+01  1.00800000E+00  1.00800000E+00  1.60000000E+01  1.00800000E+00
  1.00800000E+00  1.60000000E+01  1.00800000E+00  1.00800000E+00  1.60000000E+01
  1.00800000E+00  1.00800000E+00  1.60000000E+01  1.00800000E+00  1.00800000E+00
  1.60000000E+01  1.00800000E+00  1.00800000E+00  1.60000000E+01  1.00800000E+00
  1.00800000E+00  1.60000000E+01  1.00800000E+00  1.00800000E+00  1.60000000E+01
  1.00800000E+00  1.00800000E+00  1.60000000E+01  1.00800000E+00  1.00800000E+00
  1.60000000E+01  1.00800000E+00  1.00800000E+00  1.60000000E+01  1.00800000E+00
  1.00800000E+00  1.60000000E+01  1.00800000E+00  1.00800000E+00  1.60000000E+01
  1.00800000E+00  1.00800000E+00  1.60000000E+01  1.00800000E+00  1.00800000E+00
  1.60000000E+01  1.00800000E+00  1.00800000E+00  1.60000000E+01  1.00800000E+00
  1.00800000E+00  1.60000000E+01  1.00800000E+00  1.00800000E+00  1.60000000E+01
  1.00800000E+00  1.00800000E+00  1.60000000E+01  1.00800000E+00  1.00800000E+00
  1.60000000E+01  1.00800000E+00  1.00800000E+00  1.60000000E+01  1.00800000E+00
  1.00800000E+00  1.60000000E+01  1.00800000E+00  1.00800000E+00  1.60000000E+01
  1.00800000E+00  1.00800000E+00  1.60000000E+01  1.00800000E+00  1.00800000E+00
  1.60000000E+01  1.00800000E+00  1.00800000E+00  1.60000000E+01  1.00800000E+00
  1.00800000E+00  1.60000000E+01  1.00800000E+00  1.00800000E+00
%FLAG ATOM_TYPE_INDEX                                                           
%FORMAT(10I8)                                                                   
       1       1       1       1       1       1       1       1       1       1
       1       1       1       1       1       1       2       2       2       2
       2       2       2       2       2       2       1       2       2       3
       1       4       5       4       4       1       4       4       1       5
       6       7       7       7       7       8       4       4       9       4
       7       9       8       4       9       4       9       1       3       5
       2       5       5       5       2      10      10       5       5       5
       5      10      10      10      10      11      10      10      10      11
      12      11      10      11       3       1       4       5       4       4
       1       4       4       1       5       6       7       7       7       7
       8       4       4       9       4       7       9       8       4       9
       4       9       1       3       5       2       5       5       5       2
      10      10       5       5       5       5      10      10      10      10
      11      10      10      10      11      12      11      10      11       3
       1       4       5       4       4       1       4       4       1       5
       6       7       7       7       7       8       4       4       9       4
       7       9       8       4       9       4       9       1       3       5
       2       5       5       5       2      10      10       5       5       5
       5      10      10      10      10      11      10      10      10      11
      12      11      10      11       3       1       4       5       4       4
       1       4       4       1       5       6       7       7       7       7
       8       4       4       9       4       7       9       8       4       9
       4       9       1       3       5       2       5       5       5       2
      10      10       5       5       5       5      10      10      10      10
      11      10      10      10      11      12      11      10      11       3
       1       4       5       4       4       1       4       4       1       5
       6       7       7       7       7       8       4       4       9       4
       7       9       8       4       9       4       9       1       3       5
       2       5       5       5       2      10      10       5       5       5
       5      10      10      10      10      11      10      10      10      11
      12      11      10      11       3       1       4       5       4       4
       1       4       4       1       5       6       7       7       7       7
       8       4       4       9       4       7       9       8       4       9
       4       9       1       3       5       2       5       5       5       2
      10      10       5       5       5       5      10      10      10      10
      11      10      10      10      11      12      11      10      11       3
       1       4       5       4       4       1       4       4       1       5
       6       7       7       7       7       8       4       4       9       4
       7       9       8       4       9       4       9       1       3       5
       2       5       5       5       2      10      10       5       5       5
       5      10      10      10      10      11      10      10      10      11
      12      11      10      11       3       1       4       5       4       4
       1       4       4       1       5       6       7       7       7       7
       8       4       4       9       4       7       9       8       4       9
       4       9       1       3       5       2       5       5       5       2
      10      10       5       5       5       5      10      10      10      10
      11      10      10      10      11      12      11      10      11       3
       1       4       5       4       4       1       4       4       1       5
       6       7       7       7       7       8       4       4       9       4
       7       9       8       4       9       4       9       1       3       5
       2       5       5       5       2      10      10       5       5       5
       5      10      10      10      10      11      10      10      10      11
      12      11      10      11       3       1       4       5       4       4
       1       4       4       1       5       6       7       7       7       7
       8       4       4       9       4       7       9       8       4       9
       4       9       1       3       5       2       5       5       5       2
      10      10       5       5       5       5      10      10      10      10
      11      10      10      10      11      12      11      10      11       1
       2       2       1       2       2       3       1       4       5       4
       4       1       4       4       1       5       6       7       7       7
       7       8       4       4       9       4       7       9       8       4
       9       4       9       1       3       5       2       5       5       5
       2      10      10       5       5       5       5      10      10      10
      10      11      10      10      10      11      12      11      10      11
       3       1       4       5       4       4       1       4       4       1
       5       6       7       7       7       7       8       4       4       9
       4       7       9       8       4       9       4       9       1       3
       5       2       5       5       5       2      10      10       5       5
       5       5      10      10      10      10      11      10      10      10
      11      12      11      10      11       3       1       4       5       4
       4       1       4       4       1       5       6       7       7       7
       7       8       4       4       9       4       7       9       8       4
       9       4       9       1       3       5       2       5       5       5
       2      10      10       5       5       5       5      10      10      10
      10      11      10      10      10      11      12      11      10      11
       3       1       4       5       4       4       1       4       4       1
       5       6       7       7       7       7       8       4       4       9
       4       7       9       8       4       9       4       9       1       3
       5       2       5       5       5       2      10      10       5       5
       5       5      10      10      10      10      11      10      10      10
      11      12      11      10      11       3       1       4       5       4
       4       1       4       4       1       5       6       7       7       7
       7       8       4       4       9       4       7       9       8       4
       9       4       9       1       3       5       2       5       5       5
       2      10      10       5       5       5       5      10      10      10
      10      11      10      10      10      11      12      11      10      11
       3       1       4       5       4       4       1       4       4       1
       5       6       7       7       7       7       8       4       4       9
       4       7       9       8       4       9       4       9       1       3
       5       2       5       5       5       2      10      10       5       5
       5       5      10      10      10      10      11      10      10      10
      11      12      11      10      11       3       1       4       5       4
       4       1       4       4       1       5       6       7       7       7
       7       8       4       4       9       4       7       9       8       4
       9       4       9       1       3       5       2       5       5       5
       2      10      10       5       5       5       5      10      10      10
      10      11      10      10      10      11      12      11      10      11
       3       1       4       5       4       4       1       4       4       1
       5       6       7       7       7       7       8       4       4       9
       4       7       9       8       4       9       4       9       1       3
       5       2       5       5       5       2      10      10       5       5
       5       5      10      10      10      10      11      10      10      10
      11      12      11      10      11       3       1       4       5       4
       4       1       4       4       1       5       6       7       7       7
       7       8       4       4       9       4       7       9       8       4
       9       4       9       1       3       5       2       5       5       5
       2      10      10       5       5       5       5      10      10      10
      10      11      10      10      10      11      12      11      10      11
       3       1       4       5       4       4       1       4       4       1
       5       6       7       7       7       7       8       4       4       9
       4       7       9       8       4       9       4       9       1       3
       5       2       5       5       5       2      10      10       5       5
       5       5      10      10      10      10      11      10      10      10
      11      12      11      10      11       1       2       2      13      14
      14      13      14      14      13      14      14      13      14      14
      13      14      14      13      14      14      13      14      14      13
      14      14      13      14      14      13      14      14      13      14
      14      13      14      14      13      14      14      13      14      14
      13      14      14      13      14      14      13      14      14      13
      14      14      13      14      14      13      14      14      13      14
      14      13      14      14      13      14      14      13      14      14
      13      14      14      13      14      14      13      14      14      13
      14      14      13      14      14      13      14      14      13      14
      14      13      14      14      13      14      14      13      14      14
      13      14      14      13      14      14      13      14      14      13
      14      14      13      14      14      13      14      14      13      14
      14      13      14      14      13      14      14      13      14      14
      13      14      14      13      14      14      13      14      14      13
      14      14      13      14      14      13      14      14      13      14
      14      13      14      14      13      14      14      13      14      14
      13      14      14      13      14      14      13      14      14      13
      14      14      13      14      14      13      14      14      13      14
      14      13      14      14      13      14      14      13      14      14
      13      14      14      13      14      14      13      14      14      13
      14      14      13      14      14      13      14      14      13      14
      14      13      14      14      13      14      14      13      14      14
      13      14      14      13      14      14      13      14      14      13
      14      14      13      14      14      13      14      14      13      14
      14      13      14      14      13      14      14      13      14      14
      13      14      14      13      14      14      13      14      14      13
      14      14      13      14      14      13      14      14      13      14
      14      13      14      14      13      14      14      13      14      14
      13      14      14      13      14      14      13      14      14      13
      14      14      13      14      14      13      14      14      13      14
      14      13      14      14      13      14      14      13      14      14
      13      14      14      13      14      14      13      14      14      13
      14      14      13      14      14      13      14      14      13      14
      14      13      14      14      13      14      14      13      14      14
      13      14      14      13      14      14      13      14      14      13
      14      14      13      14      14      13      14      14      13      14
      14      13      14      14      13      14      14      13      14      14
      13      14      14      13      14      14      13      14      14      13
      14      14      13      14      14      13      14      14      13      14
      14      13      14      14      13      14      14      13      14      14
      13      14      14      13      14      14      13      14      14      13
      14      14      13      14      14      13      14      14      13      14
      14      13      14      14      13      14      14      13      14      14
      13      14      14      13      14      14      13      14      14      13
      14      14      13      14      14      13      14      14      13      14
      14      13      14      14      13      14      14      13      14      14
      13      14      14      13      14      14      13      14      14      13
      14      14      13      14      14      13      14      14      13      14
      14      13      14      14      13      14      14      13      14      14
      13      14      14      13      14      14      13      14      14      13
      14      14      13      14      14      13      14      14      13      14
      14      13      14      14      13      14      14      13      14      14
      13      14      14      13      14      14      13      14      14      13
      14      14      13      14      14      13      14      14      13      14
      14      13      14      14      13      14      14      13      14      14
      13      14      14      13      14      14      13      14      14      13
      14      14      13      14      14      13      14      14      13      14
      14      13      14      14      13      14      14      13      14      14
      13      14      14      13      14      14      13      14      14      13
      14      14      13      14      14      13      14      14      13      14
      14      13      14      14      13      14      14      13      14      14
      13      14      14      13      14      14      13      14      14      13
      14      14      13      14      14      13      14      14      13      14
      14      13      14      14      13      14      14      13      14      14
      13      14      14      13      14      14      13      14      14      13
      14      14      13      14      14      13      14      14      13      14
      14      13      14      14      13      14      14      13      14      14
      13      14      14      13      14      14      13      14      14      13
      14      14      13      14      14      13      14      14      13      14
      14      13      14      14      13      14      14      13      14      14
      13      14      14      13      14      14      13      14      14      13
      14      14      13      14      14      13      14      14      13      14
      14      13      14      14      13      14      14      13      14      14
      13      14      14      13      14      14      13      14      14      13
      14      14      13      14      14      13      14      14      13      14
      14      13      14      14      13      14      14      13      14      14
      13      14      14      13      14      14      13      14      14      13
      14      14      13      14      14      13      14      14      13      14
      14      13      14      14      13      14      14      13      14      14
      13      14      14      13      14      14      13      14      14      13
      14      14      13      14      14      13      14      14      13      14
      14      13      14      14      13      14      14      13      14      14
      13      14      14      13      14      14      13      14      14      13
      14      14      13      14      14      13      14      14      13      14
      14      13      14      14      13      14      14      13      14      14
      13      14      14      13      14      14      13      14      14      13
      14      14      13      14      14      13      14      14      13      14
      14      13      14      14      13      14      14      13      14      14
      13      14      14      13      14      14      13      14      14      13
      14      14      13      14      14      13      14      14      13      14
      14      13      14      14      13      14      14      13      14      14
      13      14      14      13      14      14      13      14      14      13
      14      14      13      14      14      13      14      14      13      14
      14      13      14      14      13      14      14      13      14      14
      13      14      14      13      14      14      13      14      14      13
      14      14      13      14      14      13      14      14      13      14
      14      13      14      14      13      14      14      13      14      14
      13      14      14      13      14      14      13      14      14      13
      14      14      13      14      14      13      14      14      13      14
      14      13      14      14      13      14      14      13      14      14
      13      14      14      13      14      14      13      14      14      13
      14      14      13      14      14      13      14      14      13      14
      14      13      14      14      13      14      14      13      14      14
      13      14      14      13      14      14      13      14      14      13
      14      14      13      14      14      13      14      14      13      14
      14      13      14      14      13      14      14      13      14      14
      13      14      14      13      14      14      13      14      14      13
      14      14      13      14      14      13      14      14      13      14
      14      13      14      14      13      14      14      13      14      14
      13      14      14      13      14      14      13      14      14      13
      14      14      13      14      14      13      14      14      13      14
      14      13      14      14      13      14      14      13      14      14
      13      14      14      13      14      14      13      14      14      13
      14      14      13      14      14      13      14      14      13      14
      14      13      14      14      13      14      14      13      14      14
      13      14      14      13      14      14      13      14      14      13
      14      14      13      14      14      13      14      14      13      14
      14      13      14      14      13      14      14      13      14      14
      13      14      14      13      14      14      13      14      14      13
      14      14      13      14      14      13      14      14      13      14
      14      13      14      14      13      14      14      13      14      14
      13      14      14      13      14      14      13      14      14      13
      14      14      13      14      14      13      14      14      13      14
      14      13      14      14      13      14      14      13      14      14
      13      14      14      13      14      14      13      14      14      13
      14      14      13      14      14      13      14      14      13      14
      14      13      14      14      13      14      14      13      14      14
      13      14      14      13      14      14      13      14      14      13
      14      14      13      14      14      13      14      14      13      14
      14      13      14      14      13      14      14      13      14      14
      13      14      14      13      14      14      13      14      14      13
      14      14      13      14      14      13      14      14      13      14
      14      13      14      14      13      14      14      13      14      14
      13      14      14      13      14      14      13      14      14      13
      14      14      13      14      14      13      14      14      13      14
      14      13      14      14      13      14      14      13      14      14
      13      14      14      13      14      14      13      14      14      13
      14      14      13      14      14      13      14      14      13      14
      14      13      14      14      13      14      14      13      14      14
      13      14      14      13      14      14      13      14      14      13
      14      14      13      14      14      13      14      14      13      14
      14      13      14      14      13      14      14      13      14      14
      13      14      14      13      14      14      13      14      14      13
      14      14      13      14      14      13      14      14      13      14
      14      13      14      14      13      14      14      13      14      14
      13      14      14      13      14      14      13      14      14      13
      14      14      13      14      14      13      14      14      13      14
      14      13      14      14      13      14      14      13      14      14
      13      14      14      13      14      14      13      14      14      13
      14      14      13      14      14      13      14      14      13      14
      14      13      14      14      13      14      14      13      14      14
      13      14      14      13      14      14      13      14      14      13
      14      14      13      14      14      13      14      14      13      14
      14      13      14      14      13      14      14      13      14      14
      13      14      14      13      14      14      13      14      14      13
      14      14      13      14      14      13      14      14      13      14
      14      13      14      14      13      14      14      13      14      14
      13      14      14      13      14      14      13      14      14      13
      14      14      13      14      14      13      14      14      13      14
      14      13      14      14      13      14      14      13      14      14
      13      14      14      13      14      14      13      14      14      13
      14      14      13      14      14      13      14      14      13      14
      14      13      14      14      13      14      14      13      14      14
      13      14      14      13      14      14      13      14      14      13
      14      14      13      14      14      13      14      14      13      14
      14      13      14      14      13      14      14      13      14      14
      13      14      14      13      14      14      13      14      14      13
      14      14      13      14      14      13      14      14      13      14
      14      13      14      14      13      14      14      13      14      14
      13      14      14      13      14      14      13      14      14      13
      14      14      13      14      14      13      14      14      13      14
      14      13      14      14      13      14      14      13      14      14
      13      14      14      13      14      14      13      14      14      13
      14      14      13      14      14      13      14      14      13      14
      14      13      14      14      13      14      14      13      14      14
      13      14      14      13      14      14      13      14      14      13
      14      14      13      14      14      13      14      14      13      14
      14      13      14      14      13      14      14      13      14      14
      13      14      14      13      14      14      13      14      14      13
      14      14      13      14      14      13      14      14      13      14
      14      13      14      14      13      14      14      13      14      14
      13      14      14      13      14      14      13      14      14      13
      14      14      13      14      14      13      14      14      13      14
      14      13      14      14      13      14      14      13      14      14
      13      14      14      13      14      14      13      14      14      13
      14      14      13      14      14      13      14      14      13      14
      14      13      14      14      13      14      14      13      14      14
      13      14      14      13      14      14      13      14      14      13
      14      14      13      14      14      13      14      14      13      14
      14      13      14      14      13      14      14      13      14      14
      13      14      14      13      14      14      13      14      14      13
      14      14      13      14      14      13      14      14      13      14
      14      13      14      14      13      14      14      13      14      14
      13      14      14      13      14      14      13      14      14      13
      14      14      13      14      14      13      14      14      13      14
      14      13      14      14      13      14      14      13      14      14
      13      14      14      13      14      14      13      14      14      13
      14      14      13      14      14      13      14      14      13      14
      14      13      14      14      13      14      14      13      14      14
      13      14      14      13      14      14      13      14      14      13
      14      14      13      14      14      13      14      14      13      14
      14      13      14      14      13      14      14      13      14      14
      13      14      14      13      14      14      13      14      14      13
      14      14      13      14      14      13      14      14      13      14
      14      13      14      14      13      14      14      13      14      14
      13      14      14      13      14      14      13      14      14      13
      14      14      13      14      14      13      14      14      13      14
      14      13      14      14      13      14      14      13      14      14
      13      14      14      13      14      14      13      14      14      13
      14      14      13      14      14      13      14      14      13      14
      14      13      14      14      13      14      14      13      14      14
      13      14      14      13      14      14      13      14      14      13
      14      14      13      14      14      13      14      14      13      14
      14      13      14      14      13      14      14      13      14      14
      13      14      14      13      14      14      13      14      14      13
      14      14      13      14      14      13      14      14      13      14
      14      13      14      14      13      14      14      13      14      14
      13      14      14      13      14      14      13      14      14      13
      14      14      13      14      14      13      14      14      13      14
      14      13      14      14      13      14      14      13      14      14
      13      14      14      13      14      14      13      14      14      13
      14      14      13      14      14      13      14      14      13      14
      14      13      14      14      13      14      14      13      14      14
      13      14      14      13      14      14      13      14      14      13
      14      14      13      14      14      13      14      14      13      14
      14      13      14      14      13      14      14      13      14      14
      13      14      14      13      14      14      13      14      14      13
      14      14      13      14      14      13      14      14      13      14
      14      13      14      14      13      14      14      13      14      14
      13      14      14      13      14      14      13      14      14      13
      14      14      13      14      14      13      14      14      13      14
      14      13      14      14      13      14      14      13      14      14
      13      14      14      13      14      14      13      14      14      13
      14      14      13      14      14      13      14      14      13      14
      14      13      14      14      13      14      14      13      14      14
      13      14      14      13      14      14      13      14      14      13
      14      14      13      14      14      13      14      14      13      14
      14      13      14      14      13      14      14      13      14      14
      13      14      14      13      14      14      13      14      14      13
      14      14      13      14      14      13      14      14      13      14
      14      13      14      14      13      14      14      13      14      14
      13      14      14      13      14      14      13      14      14      13
      14      14      13      14      14      13      14      14      13      14
      14      13      14      14      13      14      14      13      14      14
      13      14      14      13      14      14      13      14      14      13
      14      14      13      14      14      13      14      14      13      14
      14      13      14      14      13      14      14      13      14      14
      13      14      14      13      14      14      13      14      14      13
      14      14      13      14      14      13      14      14      13      14
      14      13      14      14      13      14      14      13      14      14
      13      14      14      13      14      14      13      14      14      13
      14      14      13      14      14      13      14      14      13      14
      14      13      14      14      13      14      14      13      14      14
      13      14      14      13      14      14      13      14      14      13
      14      14      13      14      14      13      14      14      13      14
      14      13      14      14      13      14      14      13      14      14
      13      14      14      13      14      14      13      14      14      13
      14      14      13      14      14      13      14      14      13      14
      14      13      14      14      13      14      14      13      14      14
      13      14      14      13      14      14      13      14      14      13
      14      14      13      14      14      13      14      14      13      14
      14      13      14      14      13      14      14      13      14      14
      13      14      14      13      14      14      13      14      14      13
      14      14      13      14      14      13      14      14      13      14
      14      13      14      14      13      14      14      13      14      14
      13      14      14      13      14      14      13      14      14      13
      14      14      13      14      14      13      14      14      13      14
      14      13      14      14      13      14      14      13      14      14
      13      14      14      13      14      14      13      14      14      13
      14      14      13      14      14      13      14      14      13      14
      14      13      14      14      13      14      14      13      14      14
      13      14      14      13      14      14      13      14      14      13
      14      14      13      14      14      13      14      14      13      14
      14      13      14      14      13      14      14      13      14      14
      13      14      14      13      14      14      13      14      14      13
      14      14      13      14      14      13      14      14      13      14
      14      13      14      14      13      14      14      13      14      14
      13      14      14      13      14      14      13      14      14      13
      14      14      13      14      14      13      14      14      13      14
      14      13      14      14      13      14      14      13      14      14
      13      14      14      13      14      14      13      14      14      13
      14      14      13      14      14      13      14      14      13      14
      14      13      14      14      13      14      14      13      14      14
      13      14      14      13      14      14      13      14      14      13
      14      14      13      14      14      13      14      14      13      14
      14      13      14      14      13      14      14      13      14      14
      13      14      14      13      14      14      13      14      14      13
      14      14      13      14      14      13      14      14      13      14
      14      13      14      14      13      14      14      13      14      14
      13      14      14      13      14      14      13      14      14      13
      14      14      13      14      14      13      14      14      13      14
      14      13      14      14      13      14      14      13      14      14
      13      14      14      13      14      14      13      14      14      13
      14      14      13      14      14      13      14      14      13      14
      14      13      14      14      13      14      14      13      14      14
      13      14      14      13      14      14      13      14      14      13
      14      14      13      14      14      13      14      14      13      14
      14      13      14      14      13      14      14      13      14      14
      13      14      14      13      14      14      13      14      14      13
      14      14      13      14      14      13      14      14      13      14
      14      13      14      14      13      14      14      13      14      14
      13      14      14      13      14      14      13      14      14      13
      14      14      13      14      14      13      14      14      13      14
      14      13      14      14      13      14      14      13      14      14
      13      14      14      13      14      14      13      14      14      13
      14      14      13      14      14      13      14      14      13      14
      14      13      14      14      13      14      14      13      14      14
      13      14      14      13      14      14      13      14      14      13
      14      14      13      14      14      13      14      14      13      14
      14      13      14      14      13      14      14      13      14      14
      13      14      14      13      14      14      13      14      14      13
      14      14      13      14      14      13      14      14      13      14
      14      13      14      14      13      14      14      13      14      14
      13      14      14      13      14      14      13      14      14      13
      14      14      13      14      14      13      14      14      13      14
      14      13      14      14      13      14      14      13      14      14
      13      14      14      13      14      14      13      14      14      13
      14      14      13      14      14      13      14      14      13      14
      14      13      14      14      13      14      14      13      14      14
      13      14      14      13      14      14      13      14      14      13
      14      14      13      14      14      13      14      14      13      14
      14      13      14      14      13      14      14      13      14      14
      13      14      14      13      14      14      13      14      14      13
      14      14      13      14      14      13      14      14      13      14
      14      13      14      14      13      14      14      13      14      14
      13      14      14      13      14      14      13      14      14      13
      14      14      13      14      14      13      14      14      13      14
      14      13      14      14      13      14      14      13      14      14
      13      14      14      13      14      14      13      14      14      13
      14      14      13      14      14      13      14      14      13      14
      14      13      14      14      13      14      14      13      14      14
      13      14      14      13      14      14      13      14      14      13
      14      14      13      14      14      13      14      14      13      14
      14      13      14      14      13      14      14      13      14      14
      13      14      14      13      14      14      13      14      14      13
      14      14      13      14      14      13      14      14      13      14
      14      13      14      14      13      14      14      13      14      14
      13      14      14      13      14      14      13      14      14      13
      14      14      13      14      14      13      14      14      13      14
      14      13      14      14      13      14      14      13      14      14
      13      14      14      13      14      14      13      14      14      13
      14      14      13      14      14      13      14      14      13      14
      14      13      14      14      13      14      14      13      14      14
      13      14      14      13      14      14      13      14      14      13
      14      14      13      14      14      13      14      14      13      14
      14      13      14      14      13      14      14      13      14      14
      13      14      14      13      14      14      13      14      14      13
      14      14      13      14      14      13      14      14      13      14
      14      13      14      14      13      14      14      13      14      14
      13      14      14      13      14      14      13      14      14      13
      14      14      13      14      14      13      14      14      13      14
      14      13      14      14      13      14      14      13      14      14
      13      14      14      13      14      14      13      14      14      13
      14      14      13      14      14      13      14      14      13      14
      14      13      14      14      13      14      14      13      14      14
      13      14      14      13      14      14      13      14      14      13
      14      14      13      14      14      13      14      14      13      14
      14      13      14      14      13      14      14      13      14      14
      13      14      14      13      14      14      13      14      14      13
      14      14      13      14      14      13      14      14      13      14
      14      13      14      14      13      14      14      13      14      14
      13      14      14      13      14      14      13      14      14      13
      14      14      13      14      14      13      14      14      13      14
      14      13      14      14      13      14      14      13      14      14
      13      14      14      13      14      14      13      14      14      13
      14      14      13      14      14      13      14      14      13      14
      14      13      14      14      13      14      14      13      14      14
      13      14      14      13      14      14      13      14      14      13
      14      14      13      14      14      13      14      14      13      14
      14      13      14      14      13      14      14      13      14      14
      13      14      14      13      14      14      13      14      14      13
      14      14      13      14      14      13      14      14      13      14
      14      13      14      14      13      14      14      13      14      14
      13      14      14      13      14      14      13      14      14      13
      14      14      13      14      14      13      14      14      13      14
      14      13      14      14      13      14      14      13      14      14
      13      14      14      13      14      14      13      14      14      13
      14      14      13      14      14      13      14      14      13      14
      14      13      14      14      13      14      14      13      14      14
      13      14      14      13      14      14      13      14      14      13
      14      14      13      14      14      13      14      14      13      14
      14      13      14      14      13      14      14      13      14      14
      13      14      14      13      14      14      13      14      14      13
      14      14      13      14      14      13      14      14      13      14
      14      13      14      14      13      14      14      13      14      14
      13      14      14      13      14      14      13      14      14      13
      14      14      13      14      14      13      14      14      13      14
      14      13      14      14      13      14      14      13      14      14
      13      14      14      13      14      14      13      14      14      13
      14      14      13      14      14      13      14      14      13      14
      14      13      14      14      13      14      14      13      14      14
      13      14      14      13      14      14      13      14      14      13
      14      14      13      14      14      13      14      14      13      14
      14      13      14      14      13      14      14      13      14      14
      13      14      14      13      14      14      13      14      14      13
      14      14      13      14      14      13      14      14      13      14
      14      13      14      14      13      14      14      13      14      14
      13      14      14      13      14      14      13      14      14      13
      14      14      13      14      14      13      14      14      13      14
      14      13      14      14      13      14      14      13      14      14
      13      14      14      13      14      14      13      14      14      13
      14      14      13      14      14      13      14      14      13      14
      14      13      14      14      13      14      14      13      14      14
      13      14      14      13      14      14      13      14      14      13
      14      14      13      14      14      13      14      14      13      14
      14      13      14      14      13      14      14      13      14      14
      13      14      14      13      14      14      13      14      14      13
      14      14      13      14      14      13      14      14      13      14
      14      13      14      14      13      14      14      13      14      14
      13      14      14      13      14      14      13      14      14      13
      14      14      13      14      14      13      14      14      13      14
      14      13      14      14      13      14      14      13      14      14
      13      14      14      13      14      14      13      14      14      13
      14      14      13      14      14      13      14      14      13      14
      14      13      14      14      13      14      14      13      14      14
      13      14      14      13      14      14      13      14      14      13
      14      14      13      14      14      13      14      14      13      14
      14      13      14      14      13      14      14      13      14      14
      13      14      14      13      14      14      13      14      14      13
      14      14      13      14      14      13      14      14      13      14
      14      13      14      14      13      14      14      13      14      14
      13      14      14      13      14      14      13      14      14      13
      14      14      13      14      14      13      14      14      13      14
      14      13      14      14      13      14      14      13      14      14
      13      14      14      13      14      14      13      14      14      13
      14      14      13      14      14      13      14      14      13      14
      14      13      14      14      13      14      14      13      14      14
      13      14      14      13      14      14      13      14      14      13
      14      14      13      14      14      13      14      14      13      14
      14      13      14      14      13      14      14      13      14      14
      13      14      14      13      14      14      13      14      14      13
      14      14      13      14      14      13      14      14      13      14
      14      13      14      14      13      14      14      13      14      14
      13      14      14      13      14      14      13      14      14      13
      14      14      13      14      14      13      14      14      13      14
      14      13      14      14      13      14      14      13      14      14
      13      14      14      13      14      14      13      14      14      13
      14      14      13      14      14      13      14      14      13      14
      14      13      14      14      13      14      14      13      14      14
      13      14      14      13      14      14      13      14      14      13
      14      14      13      14      14      13      14      14      13      14
      14      13      14      14      13      14      14      13      14      14
      13      14      14      13      14      14      13      14      14      13
      14      14      13      14      14      13      14      14      13      14
      14      13      14      14      13      14      14      13      14      14
      13      14      14      13      14      14      13      14      14      13
      14      14      13      14      14      13      14      14      13      14
      14      13      14      14      13      14      14      13      14      14
      13      14      14      13      14      14      13      14      14      13
      14      14      13      14      14      13      14      14      13      14
      14      13      14      14      13      14      14      13      14      14
      13      14      14      13      14      14      13      14      14      13
      14      14      13      14      14      13      14      14      13      14
      14      13      14      14      13      14      14      13      14      14
      13      14      14      13      14      14      13      14      14      13
      14      14      13      14      14      13      14      14      13      14
      14      13      14      14      13      14      14      13      14      14
      13      14      14      13      14      14      13      14      14      13
      14      14      13      14      14      13      14      14      13      14
      14      13      14      14      13      14      14      13      14      14
      13      14      14      13      14      14      13      14      14      13
      14      14      13      14      14      13      14      14      13      14
      14      13      14      14      13      14      14      13      14      14
      13      14      14      13      14      14      13      14      14      13
      14      14      13      14      14      13      14      14      13      14
      14      13      14      14      13      14      14      13      14      14
      13      14      14      13      14      14      13      14      14      13
      14      14      13      14      14      13      14      14      13      14
      14      13      14      14      13      14      14      13      14      14
      13      14      14      13      14      14      13      14      14      13
      14      14      13      14      14      13      14      14      13      14
      14      13      14      14      13      14      14      13      14      14
      13      14      14      13      14      14      13      14      14      13
      14      14      13      14      14      13      14      14      13      14
      14      13      14      14      13      14      14      13      14      14
      13      14      14      13      14      14      13      14      14      13
      14      14      13      14      14      13      14      14      13      14
      14      13      14      14      13      14      14      13      14      14
      13      14      14      13      14      14      13      14      14      13
      14      14      13      14      14      13      14      14      13      14
      14      13      14      14      13      14      14      13      14      14
      13      14      14      13      14      14      13      14      14      13
      14      14      13      14      14      13      14      14      13      14
      14      13      14      14      13      14      14      13      14      14
      13      14      14      13      14      14      13      14      14      13
      14      14      13      14      14      13      14      14      13      14
      14      13      14      14      13      14      14      13      14      14
      13      14      14      13      14      14      13      14      14      13
      14      14      13      14      14      13      14      14      13      14
      14      13      14      14      13      14      14      13      14      14
      13      14      14      13      14      14      13      14      14      13
      14      14      13      14      14      13      14      14      13      14
      14      13      14      14      13      14      14      13      14      14
      13      14      14      13      14      14      13      14      14      13
      14      14      13      14      14      13      14      14      13      14
      14      13      14      14      13      14      14      13      14      14
      13      14      14      13      14      14      13      14      14      13
      14      14      13      14      14      13      14      14      13      14
      14      13      14      14      13      14      14      13      14      14
      13      14      14      13      14      14      13      14      14      13
      14      14      13      14      14      13      14      14      13      14
      14      13      14      14      13      14      14      13      14      14
      13      14      14      13      14      14      13      14      14      13
      14      14      13      14      14      13      14      14      13      14
      14      13      14      14      13      14      14      13      14      14
      13      14      14      13      14      14      13      14      14      13
      14      14      13      14      14      13      14      14      13      14
      14      13      14      14      13      14      14      13      14      14
      13      14      14      13      14      14      13      14      14      13
      14      14      13      14      14      13      14      14      13      14
      14      13      14      14      13      14      14      13      14      14
      13      14      14      13      14      14      13      14      14      13
      14      14      13      14      14      13      14      14      13      14
      14      13      14      14      13      14      14      13      14      14
      13      14      14      13      14      14      13      14      14      13
      14      14      13      14      14      13      14      14      13      14
      14      13      14      14      13      14      14      13      14      14
      13      14      14      13      14      14      13      14      14      13
      14      14      13      14      14      13      14      14      13      14
      14      13      14      14      13      14      14      13      14      14
      13      14      14      13      14      14      13      14      14      13
      14      14      13      14      14      13      14      14      13      14
      14      13      14      14      13      14      14      13      14      14
      13      14      14      13      14      14      13      14      14      13
      14      14      13      14      14      13      14      14      13      14
      14      13      14      14      13      14      14      13      14      14
      13      14      14      13      14      14      13      14      14      13
      14      14      13      14      14      13      14      14      13      14
      14      13      14      14      13      14      14      13      14      14
      13      14      14      13      14      14      13      14      14      13
      14      14      13      14      14      13      14      14      13      14
      14      13      14      14      13      14      14      13      14      14
      13      14      14      13      14      14      13      14      14      13
      14      14      13      14      14      13      14      14      13      14
      14      13      14      14      13      14      14      13      14      14
      13      14      14      13      14      14      13      14      14      13
      14      14      13      14      14      13      14      14      13      14
      14      13      14      14      13      14      14      13      14      14
      13      14      14      13      14      14      13      14      14      13
      14      14      13      14      14      13      14      14      13      14
      14      13      14      14      13      14      14      13      14      14
      13      14      14      13      14      14      13      14      14      13
      14      14      13      14      14      13      14      14      13      14
      14      13      14      14      13      14      14      13      14      14
      13      14      14      13      14      14      13      14      14      13
      14      14      13      14      14      13      14      14      13      14
      14      13      14      14      13      14      14      13      14      14
      13      14      14      13      14      14      13      14      14      13
      14      14      13      14      14      13      14      14      13      14
      14      13      14      14      13      14      14      13      14      14
      13      14      14      13      14      14      13      14      14      13
      14      14      13      14      14      13      14      14      13      14
      14      13      14      14      13      14      14      13      14      14
      13      14      14      13      14      14      13      14      14      13
      14      14      13      14      14      13      14      14      13      14
      14      13      14      14      13      14      14      13      14      14
      13      14      14      13      14      14      13      14      14      13
      14      14      13      14      14      13      14      14      13      14
      14      13      14      14      13      14      14      13      14      14
      13      14      14      13      14      14      13      14      14      13
      14      14      13      14      14      13      14      14      13      14
      14      13      14      14      13      14      14      13      14      14
      13      14      14      13      14      14      13      14      14      13
      14      14      13      14      14      13      14      14      13      14
      14      13      14      14      13      14      14      13      14      14
      13      14      14      13      14      14      13      14      14      13
      14      14      13      14      14      13      14      14      13      14
      14      13      14      14      13      14      14      13      14      14
      13      14      14      13      14      14      13      14      14      13
      14      14      13      14      14      13      14      14      13      14
      14      13      14      14      13      14      14      13      14      14
      13      14      14      13      14      14      13      14      14      13
      14      14      13      14      14      13      14      14      13      14
      14      13      14      14      13      14      14      13      14      14
      13      14      14      13      14      14      13      14      14      13
      14      14      13      14      14      13      14      14      13      14
      14      13      14      14      13      14      14      13      14      14
      13      14      14      13      14      14      13      14      14      13
      14      14      13      14      14      13      14      14      13      14
      14      13      14      14      13      14      14      13      14      14
      13      14      14      13      14      14      13      14      14      13
      14      14      13      14      14      13      14      14      13      14
      14      13      14      14      13      14      14      13      14      14
      13      14      14      13      14      14      13      14      14      13
      14      14      13      14      14      13      14      14      13      14
      14      13      14      14      13      14      14      13      14      14
      13      14      14      13      14      14      13      14      14      13
      14      14      13      14      14      13      14      14      13      14
      14      13      14      14      13      14      14      13      14      14
      13      14      14      13      14      14      13      14      14      13
      14      14      13      14      14      13      14      14      13      14
      14      13      14      14      13      14      14      13      14      14
      13      14      14      13      14      14      13      14      14      13
      14      14      13      14      14      13      14      14      13      14
      14      13      14      14      13      14      14      13      14      14
      13      14      14      13      14      14      13      14      14      13
      14      14      13      14      14      13      14      14      13      14
      14      13      14      14      13      14      14      13      14      14
      13      14      14      13      14      14      13      14      14      13
      14      14      13      14      14      13      14      14      13      14
      14      13      14      14      13      14      14      13      14      14
      13      14      14      13      14      14      13      14      14      13
      14      14      13      14      14      13      14      14      13      14
      14      13      14      14      13      14      14      13      14      14
      13      14      14      13      14      14      13      14      14      13
      14      14      13      14      14      13      14      14      13      14
      14      13      14      14      13      14      14      13      14      14
      13      14      14      13      14      14      13      14      14      13
      14      14      13      14      14      13      14      14      13      14
      14      13      14      14      13      14      14      13      14      14
      13      14      14      13      14      14      13      14      14      13
      14      14      13      14      14      13      14      14      13      14
      14      13      14      14      13      14      14      13      14      14
      13      14      14      13      14      14      13      14      14      13
      14      14      13      14      14      13      14      14      13      14
      14      13      14      14      13      14      14      13      14      14
      13      14      14      13      14      14      13      14      14      13
      14      14      13      14      14      13      14      14      13      14
      14      13      14      14      13      14      14      13      14      14
      13      14      14      13      14      14      13      14      14      13
      14      14      13      14      14      13      14      14      13      14
      14      13      14      14      13      14      14      13      14      14
      13      14      14      13      14      14      13      14      14      13
      14      14      13      14      14      13      14      14      13      14
      14      13      14      14      13      14      14      13      14      14
      13      14      14      13      14      14      13      14      14      13
      14      14      13      14      14      13      14      14      13      14
      14      13      14      14      13      14      14      13      14      14
      13      14      14      13      14      14      13      14      14      13
      14      14      13      14      14      13      14      14      13      14
      14      13      14      14      13      14      14      13      14      14
      13      14      14      13      14      14      13      14      14      13
      14      14      13      14      14      13      14      14      13      14
      14      13      14      14      13      14      14      13      14      14
      13      14      14      13      14      14      13      14      14      13
      14      14      13      14      14      13      14      14      13      14
      14      13      14      14      13      14      14      13      14      14
      13      14      14      13      14      14      13      14      14      13
      14      14      13      14      14      13      14      14      13      14
      14      13      14      14      13      14      14      13      14      14
      13      14      14      13      14      14      13      14      14      13
      14      14      13      14      14      13      14      14      13      14
      14      13      14      14      13      14      14      13      14      14
      13      14      14      13      14      14      13      14      14      13
      14      14      13      14      14      13      14      14      13      14
      14      13      14      14      13      14      14      13      14      14
      13      14      14      13      14      14      13      14      14      13
      14      14      13      14      14      13      14      14      13      14
      14      13      14      14      13      14      14      13      14      14
      13      14      14      13      14      14      13      14      14      13
      14      14      13      14      14      13      14      14      13      14
      14      13      14      14      13      14      14      13      14      14
      13      14      14      13      14      14      13      14      14      13
      14      14      13      14      14      13      14      14      13      14
      14      13      14      14      13      14      14      13      14      14
      13      14      14      13      14      14      13      14      14      13
      14      14      13      14      14      13      14      14      13      14
      14      13      14      14      13      14      14      13      14      14
      13      14      14      13      14      14      13      14      14      13
      14      14      13      14      14      13      14      14      13      14
      14      13      14      14      13      14      14      13      14      14
      13      14      14      13      14      14      13      14      14      13
      14      14      13      14      14      13      14      14      13      14
      14      13      14      14      13      14      14      13      14      14
      13      14      14      13      14      14      13      14      14      13
      14      14      13      14      14      13      14      14      13      14
      14      13      14      14      13      14      14      13      14      14
      13      14      14      13      14      14      13      14      14      13
      14      14      13      14      14      13      14      14      13      14
      14      13      14      14      13      14      14      13      14      14
      13      14      14      13      14      14      13      14      14      13
      14      14      13      14      14      13      14      14      13      14
      14      13      14      14      13      14      14      13      14      14
      13      14      14      13      14      14      13      14      14      13
      14      14      13      14      14      13      14      14      13      14
      14      13      14      14      13      14      14      13      14      14
      13      14      14      13      14      14      13      14      14      13
      14      14      13      14      14      13      14      14      13      14
      14      13      14      14      13      14      14      13      14      14
      13      14      14      13      14      14      13      14      14      13
      14      14      13      14      14      13      14      14      13      14
      14      13      14      14      13      14      14      13      14      14
      13      14      14      13      14      14      13      14      14      13
      14      14      13      14      14      13      14      14      13      14
      14      13      14      14      13      14      14      13      14      14
      13      14      14      13      14      14      13      14      14      13
      14      14      13      14      14      13      14      14      13      14
      14      13      14      14      13      14      14      13      14      14
      13      14      14      13      14      14      13      14      14      13
      14      14      13      14      14      13      14      14      13      14
      14      13      14      14      13      14      14      13      14      14
      13      14      14      13      14      14      13      14      14      13
      14      14      13      14      14      13      14      14      13      14
      14      13      14      14      13      14      14      13      14      14
      13      14      14      13      14      14      13      14      14      13
      14      14      13      14      14      13      14      14      13      14
      14      13      14      14      13      14      14      13      14      14
      13      14      14      13      14      14      13      14      14      13
      14      14      13      14      14      13      14      14      13      14
      14      13      14      14      13      14      14      13      14      14
      13      14      14      13      14      14      13      14      14      13
      14      14      13      14      14      13      14      14      13      14
      14      13      14      14      13      14      14      13      14      14
      13      14      14      13      14      14      13      14      14      13
      14      14      13      14      14      13      14      14      13      14
      14      13      14      14      13      14      14      13      14      14
      13      14      14      13      14      14      13      14      14      13
      14      14      13      14      14      13      14      14      13      14
      14      13      14      14      13      14      14      13      14      14
      13      14      14      13      14      14      13      14      14      13
      14      14      13      14      14      13      14      14      13      14
      14      13      14      14      13      14      14      13      14      14
      13      14      14      13      14      14      13      14      14      13
      14      14      13      14      14      13      14      14      13      14
      14      13      14      14      13      14      14      13      14      14
      13      14      14      13      14      14      13      14      14      13
      14      14      13      14      14      13      14      14      13      14
      14      13      14      14      13      14      14      13      14      14
      13      14      14      13      14      14      13      14      14      13
      14      14      13      14      14      13      14      14      13      14
      14      13      14      14      13      14      14      13      14      14
      13      14      14      13      14      14      13      14      14      13
      14      14      13      14      14      13      14      14      13      14
      14      13      14      14      13      14      14      13      14      14
      13      14      14      13      14      14      13      14      14      13
      14      14      13      14      14      13      14      14      13      14
      14      13      14      14      13      14      14      13      14      14
      13      14      14      13      14      14      13      14      14      13
      14      14      13      14      14      13      14      14      13      14
      14      13      14      14      13      14      14      13      14      14
      13      14      14      13      14      14      13      14      14      13
      14      14      13      14      14      13      14      14      13      14
      14      13      14      14      13      14      14      13      14      14
      13      14      14      13      14      14      13      14      14      13
      14      14      13      14      14      13      14      14      13      14
      14      13      14      14      13      14      14      13      14      14
      13      14      14      13      14      14      13      14      14      13
      14      14      13      14      14      13      14      14      13      14
      14      13      14      14      13      14      14      13      14      14
      13      14      14      13      14      14      13      14      14      13
      14      14      13      14      14      13      14      14      13      14
      14      13      14      14      13      14      14      13      14      14
      13      14      14      13      14      14      13      14      14      13
      14      14      13      14      14      13      14      14      13      14
      14      13      14      14      13      14      14      13      14      14
      13      14      14      13      14      14      13      14      14      13
      14      14      13      14      14      13      14      14      13      14
      14      13      14      14      13      14      14      13      14      14
      13      14      14      13      14      14      13      14      14      13
      14      14      13      14      14      13      14      14      13      14
      14      13      14      14      13      14      14      13      14      14
      13      14      14      13      14      14      13      14      14      13
      14      14      13      14      14      13      14      14      13      14
      14      13      14      14      13      14      14      13      14      14
      13      14      14      13      14      14      13      14      14      13
      14      14      13      14      14      13      14      14      13      14
      14      13      14      14      13      14      14      13      14      14
      13      14      14      13      14      14      13      14      14      13
      14      14      13      14      14      13      14      14      13      14
      14      13      14      14      13      14      14      13      14      14
      13      14      14      13      14      14      13      14      14      13
      14      14      13      14      14      13      14      14      13      14
      14      13      14      14      13      14      14      13      14      14
      13      14      14      13      14      14      13      14      14      13
      14      14      13      14      14      13      14      14      13      14
      14      13      14      14      13      14      14      13      14      14
      13      14      14      13      14      14      13      14      14      13
      14      14      13      14      14      13      14      14      13      14
      14      13      14      14      13      14      14      13      14      14
      13      14      14      13      14      14      13      14      14      13
      14      14      13      14      14      13      14      14      13      14
      14      13      14      14      13      14      14      13      14      14
      13      14      14      13      14      14      13      14      14      13
      14      14      13      14      14      13      14      14      13      14
      14      13      14      14      13      14      14      13      14      14
      13      14      14      13      14      14      13      14      14      13
      14      14      13      14      14      13      14      14      13      14
      14      13      14      14      13      14      14      13      14      14
      13      14      14      13      14      14      13      14      14      13
      14      14      13      14      14      13      14      14      13      14
      14      13      14      14      13      14      14      13      14      14
      13      14      14      13      14      14      13      14      14      13
      14      14      13      14      14      13      14      14      13      14
      14      13      14      14      13      14      14      13      14      14
      13      14      14      13      14      14      13      14      14      13
      14      14      13      14      14      13      14      14      13      14
      14      13      14      14      13      14      14      13      14      14
      13      14      14      13      14      14      13      14      14      13
      14      14      13      14      14      13      14      14      13      14
      14      13      14      14      13      14      14      13      14      14
      13      14      14      13      14      14      13      14      14      13
      14      14      13      14      14      13      14      14      13      14
      14      13      14      14      13      14      14      13      14      14
      13      14      14      13      14      14      13      14      14      13
      14      14      13      14      14      13      14      14      13      14
      14      13      14      14      13      14      14      13      14      14
      13      14      14      13      14      14      13      14      14      13
      14      14      13      14      14      13      14      14      13      14
      14      13      14      14      13      14      14      13      14      14
      13      14      14      13      14      14      13      14      14      13
      14      14      13      14      14      13      14      14      13      14
      14      13      14      14      13      14      14      13      14      14
      13      14      14      13      14      14      13      14      14      13
      14      14      13      14      14      13      14      14      13      14
      14      13      14      14      13      14      14      13      14      14
      13      14      14      13      14      14      13      14      14      13
      14      14      13      14      14      13      14      14      13      14
      14      13      14      14      13      14      14      13      14      14
      13      14      14      13      14      14      13      14      14      13
      14      14      13      14      14      13      14      14      13      14
      14      13      14      14      13      14      14      13      14      14
      13      14      14      13      14      14      13      14      14      13
      14      14      13      14      14      13      14      14      13      14
      14      13      14      14      13      14      14      13      14      14
      13      14      14      13      14      14      13      14      14      13
      14      14      13      14      14      13      14      14      13      14
      14      13      14      14      13      14      14      13      14      14
      13      14      14      13      14      14      13      14      14      13
      14      14      13      14      14      13      14      14      13      14
      14      13      14      14      13      14      14      13      14      14
      13      14      14      13      14      14      13      14      14      13
      14      14      13      14      14      13      14      14      13      14
      14      13      14      14      13      14      14      13      14      14
      13      14      14      13      14      14      13      14      14      13
      14      14      13      14      14      13      14      14      13      14
      14      13      14      14      13      14      14      13      14      14
      13      14      14      13      14      14      13      14      14      13
      14      14      13      14      14      13      14      14      13      14
      14      13      14      14      13      14      14      13      14      14
      13      14      14      13      14      14      13      14      14      13
      14      14      13      14      14      13      14      14      13      14
      14      13      14      14      13      14      14      13      14      14
      13      14      14      13      14      14      13      14      14      13
      14      14      13      14      14      13      14      14      13      14
      14      13      14      14      13      14      14      13      14      14
      13      14      14      13      14      14      13      14      14      13
      14      14      13      14      14      13      14      14      13      14
      14      13      14      14      13      14      14      13      14      14
      13      14      14      13      14      14      13      14      14      13
      14      14      13      14      14      13      14      14      13      14
      14      13      14      14      13      14      14      13      14      14
      13      14      14      13      14      14      13      14      14      13
      14      14      13      14      14      13      14      14      13      14
      14      13      14      14      13      14      14      13      14      14
      13      14      14      13      14      14      13      14      14      13
      14      14      13      14      14      13      14      14      13      14
      14      13      14      14      13      14      14      13      14      14
      13      14      14      13      14      14      13      14      14      13
      14      14      13      14      14      13      14      14      13      14
      14      13      14      14      13      14      14      13      14      14
      13      14      14      13      14      14      13      14      14      13
      14      14      13      14      14      13      14      14      13      14
      14      13      14      14      13      14      14      13      14      14
      13      14      14      13      14      14      13      14      14      13
      14      14      13      14      14      13      14      14      13      14
      14      13      14      14      13      14      14      13      14      14
      13      14      14      13      14      14      13      14      14      13
      14      14      13      14      14      13      14      14      13      14
      14      13      14      14      13      14      14      13      14      14
      13      14      14      13      14      14      13      14      14      13
      14      14      13      14      14      13      14      14      13      14
      14      13      14      14      13      14      14      13      14      14
      13      14      14      13      14      14      13      14      14      13
      14      14      13      14      14      13      14      14      13      14
      14      13      14      14      13      14      14      13      14      14
      13      14      14      13      14      14      13      14      14      13
      14      14      13      14      14      13      14      14      13      14
      14      13      14      14      13      14      14      13      14      14
      13      14      14      13      14      14      13      14      14      13
      14      14      13      14      14      13      14      14      13      14
      14      13      14      14      13      14      14      13      14      14
      13      14      14      13      14      14      13      14      14      13
      14      14      13      14      14      13      14      14      13      14
      14      13      14      14      13      14      14      13      14      14
      13      14      14      13      14      14      13      14      14      13
      14      14      13      14      14      13      14      14      13      14
      14      13      14      14      13      14      14      13      14      14
      13      14      14      13      14      14      13      14      14      13
      14      14      13      14      14      13      14      14      13      14
      14      13      14      14      13      14      14      13      14      14
      13      14      14      13      14      14      13      14      14      13
      14      14      13      14      14      13      14      14      13      14
      14      13      14      14      13      14      14      13      14      14
      13      14      14      13      14      14      13      14      14      13
      14      14      13      14      14      13      14      14      13      14
      14      13      14      14      13      14      14      13      14      14
      13      14      14      13      14      14      13      14      14      13
      14      14      13      14      14      13      14      14      13      14
      14      13      14      14      13      14      14      13      14      14
      13      14      14      13      14      14      13      14      14      13
      14      14      13      14      14      13      14      14      13      14
      14      13      14      14      13      14      14      13      14      14
      13      14      14      13      14      14      13      14      14      13
      14      14      13      14      14      13      14      14      13      14
      14      13      14      14      13      14      14      13      14      14
      13      14      14      13      14      14      13      14      14      13
      14      14      13      14      14      13      14      14      13      14
      14      13      14      14      13      14      14      13      14      14
      13      14      14      13      14      14      13      14      14      13
      14      14      13      14      14      13      14      14      13      14
      14      13      14      14      13      14      14      13      14      14
      13      14      14      13      14      14      13      14      14      13
      14      14      13      14      14      13      14      14      13      14
      14      13      14      14      13      14      14      13      14      14
      13      14      14      13      14      14      13      14      14      13
      14      14      13      14      14      13      14      14      13      14
      14      13      14      14      13      14      14      13      14      14
      13      14      14      13      14      14      13      14      14      13
      14      14      13      14      14      13      14      14      13      14
      14      13      14      14      13      14      14      13      14      14
      13      14      14      13      14      14      13      14      14      13
      14      14      13      14      14      13      14      14      13      14
      14      13      14      14      13      14      14      13      14      14
      13      14      14      13      14      14      13      14      14      13
      14      14      13      14      14      13      14      14      13      14
      14      13      14      14      13      14      14      13      14      14
      13      14      14      13      14      14      13      14      14      13
      14      14      13      14      14      13      14      14      13      14
      14      13      14      14      13      14      14      13      14      14
      13      14      14      13      14      14      13      14      14      13
      14      14      13      14      14      13      14      14      13      14
      14      13      14      14      13      14      14      13      14      14
      13      14      14      13      14      14      13      14      14      13
      14      14      13      14      14      13      14      14      13      14
      14      13      14      14      13      14      14      13      14      14
      13      14      14      13      14      14      13      14      14      13
      14      14      13      14      14      13      14      14      13      14
      14      13      14      14      13      14      14      13      14      14
      13      14      14      13      14      14      13      14      14      13
      14      14      13      14      14      13      14      14      13      14
      14      13      14      14      13      14      14      13      14      14
      13      14      14      13      14      14      13      14      14      13
      14      14      13      14      14      13      14      14      13      14
      14      13      14      14      13      14      14      13      14      14
      13      14      14      13      14      14      13      14      14      13
      14      14      13      14      14      13      14      14      13      14
      14      13      14      14      13      14      14      13      14      14
      13      14      14      13      14      14      13      14      14      13
      14      14      13      14      14      13      14      14      13      14
      14      13      14      14      13      14      14      13      14      14
      13      14      14      13      14      14      13      14      14      13
      14      14      13      14      14      13      14      14      13      14
      14      13      14      14      13      14      14      13      14      14
      13      14      14      13      14      14      13      14      14      13
      14      14      13      14      14      13      14      14      13      14
      14      13      14      14      13      14      14      13      14      14
      13      14      14      13      14      14      13      14      14      13
      14      14      13      14      14      13      14      14      13      14
      14      13      14      14      13      14      14      13      14      14
      13      14      14      13      14      14      13      14      14      13
      14      14      13      14      14      13      14      14      13      14
      14      13      14      14      13      14      14      13      14      14
      13      14      14      13      14      14      13      14      14      13
      14      14      13      14      14      13      14      14      13      14
      14      13      14      14      13      14      14      13      14      14
      13      14      14      13      14      14      13      14      14      13
      14      14      13      14      14      13      14      14      13      14
      14      13      14      14      13      14      14      13      14      14
      13      14      14      13      14      14      13      14      14      13
      14      14      13      14      14      13      14      14      13      14
      14      13      14      14      13      14      14      13      14      14
      13      14      14      13      14      14      13      14      14      13
      14      14      13      14      14      13      14      14      13      14
      14      13      14      14      13      14      14      13      14      14
      13      14      14      13      14      14      13      14      14      13
      14      14      13      14      14      13      14      14      13      14
      14      13      14      14      13      14      14      13      14      14
      13      14      14      13      14      14      13      14      14      13
      14      14      13      14      14      13      14      14      13      14
      14      13      14      14      13      14      14      13      14      14
      13      14      14      13      14      14      13      14      14      13
      14      14      13      14      14      13      14      14      13      14
      14      13      14      14      13      14      14      13      14      14
      13      14      14      13      14      14      13      14      14      13
      14      14      13      14      14      13      14      14      13      14
      14      13      14      14      13      14      14      13      14      14
      13      14      14      13      14      14      13      14      14      13
      14      14      13      14      14      13      14      14      13      14
      14      13      14      14      13      14      14      13      14      14
      13      14      14      13      14      14      13      14      14      13
      14      14      13      14      14      13      14      14      13      14
      14      13      14      14      13      14      14      13      14      14
      13      14      14      13      14      14      13      14      14      13
      14      14      13      14      14      13      14      14      13      14
      14      13      14      14      13      14      14      13      14      14
      13      14      14      13      14      14      13      14      14      13
      14      14      13      14      14      13      14      14      13      14
      14      13      14      14      13      14      14      13      14      14
      13      14      14      13      14      14      13      14      14      13
      14      14      13      14      14      13      14      14      13      14
      14      13      14      14      13      14      14      13      14      14
      13      14      14      13      14      14      13      14      14      13
      14      14      13      14      14      13      14      14      13      14
      14      13      14      14      13      14      14      13      14      14
      13      14      14      13      14      14      13      14      14      13
      14      14      13      14      14      13      14      14      13      14
      14      13      14      14      13      14      14      13      14      14
      13      14      14      13      14      14      13      14      14      13
      14      14      13      14      14      13      14      14      13      14
      14      13      14      14      13      14      14      13      14      14
      13      14      14      13      14      14      13      14      14      13
      14      14      13      14      14      13      14      14      13      14
      14      13      14      14      13      14      14      13      14      14
      13      14      14      13      14      14      13      14      14      13
      14      14      13      14      14      13      14      14      13      14
      14      13      14      14      13      14      14      13      14      14
      13      14      14      13      14      14      13      14      14      13
      14      14      13      14      14      13      14      14      13      14
      14      13      14      14      13      14      14      13      14      14
      13      14      14      13      14      14      13      14      14      13
      14      14      13      14      14      13      14      14      13      14
      14      13      14      14      13      14      14      13      14      14
      13      14      14      13      14      14      13      14      14      13
      14      14      13      14      14      13      14      14      13      14
      14      13      14      14      13      14      14      13      14      14
      13      14      14      13      14      14      13      14      14      13
      14      14      13      14      14      13      14      14      13      14
      14      13      14      14      13      14      14      13      14      14
      13      14      14      13      14      14      13      14      14      13
      14      14      13      14      14      13      14      14      13      14
      14      13      14      14      13      14      14      13      14      14
      13      14      14      13      14      14      13      14      14      13
      14      14      13      14      14      13      14      14      13      14
      14      13      14      14      13      14      14      13      14      14
      13      14      14      13      14      14      13      14      14      13
      14      14      13      14      14      13      14      14      13      14
      14      13      14      14      13      14      14      13      14      14
      13      14      14      13      14      14      13      14      14      13
      14      14      13      14      14      13      14      14      13      14
      14      13      14      14      13      14      14      13      14      14
      13      14      14      13      14      14      13      14      14      13
      14      14      13      14      14      13      14      14      13      14
      14      13      14      14      13      14      14      13      14      14
      13      14      14      13      14      14      13      14      14      13
      14      14      13      14      14      13      14      14      13      14
      14      13      14      14      13      14      14      13      14      14
      13      14      14      13      14      14      13      14      14      13
      14      14      13      14      14      13      14      14      13      14
      14      13      14      14      13      14      14      13      14      14
      13      14      14      13      14      14      13      14      14      13
      14      14      13      14      14      13      14      14      13      14
      14      13      14      14      13      14      14      13      14      14
      13      14      14      13      14      14      13      14      14      13
      14      14      13      14      14      13      14      14      13      14
      14      13      14      14      13      14      14      13      14      14
      13      14      14      13      14      14      13      14      14      13
      14      14      13      14      14      13      14      14      13      14
      14      13      14      14      13      14      14      13      14      14
      13      14      14      13      14      14      13      14      14      13
      14      14      13      14      14      13      14      14      13      14
      14      13      14      14      13      14      14      13      14      14
      13      14      14      13      14      14      13      14      14      13
      14      14      13      14      14      13      14      14      13      14
      14      13      14      14      13      14      14      13      14      14
      13      14      14      13      14      14      13      14      14      13
      14      14      13      14      14      13      14      14      13      14
      14      13      14      14      13      14      14      13      14      14
      13      14      14      13      14      14      13      14      14      13
      14      14      13      14      14      13      14      14      13      14
      14      13      14      14      13      14      14      13      14      14
      13      14      14      13      14      14      13      14      14      13
      14      14      13      14      14      13      14      14      13      14
      14      13      14      14      13      14      14      13      14      14
      13      14      14      13      14      14      13      14      14      13
      14      14      13      14      14      13      14      14      13      14
      14      13      14      14      13      14      14      13      14      14
      13      14      14      13      14      14      13      14      14      13
      14      14      13      14      14      13      14      14      13      14
      14      13      14      14      13      14      14      13      14      14
      13      14      14      13      14      14      13      14      14      13
      14      14      13      14      14      13      14      14      13      14
      14      13      14      14      13      14      14      13      14      14
      13      14      14      13      14      14      13      14      14      13
      14      14      13      14      14      13      14      14      13      14
      14      13      14      14      13      14      14      13      14      14
      13      14      14      13      14      14      13      14      14      13
      14      14      13      14      14      13      14      14      13      14
      14      13      14      14      13      14      14      13      14      14
      13      14      14      13      14      14      13      14      14      13
      14      14      13      14      14      13      14      14      13      14
      14      13      14      14      13      14      14      13      14      14
      13      14      14      13      14      14      13      14      14      13
      14      14      13      14      14      13      14      14      13      14
      14      13      14      14      13      14      14      13      14      14
      13      14      14      13      14      14      13      14      14      13
      14      14      13      14      14      13      14      14      13      14
      14      13      14      14      13      14      14      13      14      14
      13      14      14      13      14      14      13      14      14      13
      14      14      13      14      14      13      14      14      13      14
      14      13      14      14      13      14      14      13      14      14
      13      14      14      13      14      14      13      14      14      13
      14      14      13      14      14      13      14      14      13      14
      14      13      14      14      13      14      14      13      14      14
      13      14      14      13      14      14      13      14      14      13
      14      14      13      14      14      13      14      14      13      14
      14      13      14      14      13      14      14      13      14      14
      13      14      14      13      14      14      13      14      14      13
      14      14      13      14      14      13      14      14      13      14
      14      13      14      14      13      14      14      13      14      14
      13      14      14      13      14      14      13      14      14      13
      14      14      13      14      14      13      14      14      13      14
      14      13      14      14      13      14      14      13      14      14
      13      14      14      13      14      14      13      14      14      13
      14      14      13      14      14      13      14      14      13      14
      14      13      14      14      13      14      14      13      14      14
      13      14      14      13      14      14      13      14      14      13
      14      14      13      14      14      13      14      14      13      14
      14      13      14      14      13      14      14      13      14      14
      13      14      14      13      14      14      13      14      14      13
      14      14      13      14      14      13      14      14      13      14
      14      13      14      14      13      14      14      13      14      14
      13      14      14      13      14      14      13      14      14      13
      14      14      13      14      14      13      14      14      13      14
      14      13      14      14      13      14      14      13      14      14
      13      14      14      13      14      14      13      14      14      13
      14      14      13      14      14      13      14      14      13      14
      14      13      14      14      13      14      14      13      14      14
      13      14      14      13      14      14      13      14      14      13
      14      14      13      14      14      13      14      14      13      14
      14      13      14      14      13      14      14      13      14      14
      13      14      14      13      14      14      13      14      14      13
      14      14      13      14      14      13      14      14      13      14
      14      13      14      14      13      14      14      13      14      14
      13      14      14      13      14      14      13      14      14      13
      14      14      13      14      14      13      14      14      13      14
      14      13      14      14      13      14      14      13      14      14
      13      14      14      13      14      14      13      14      14      13
      14      14      13      14      14      13      14      14      13      14
      14      13      14      14      13      14      14      13      14      14
      13      14      14      13      14      14      13      14      14      13
      14      14      13      14      14      13      14      14      13      14
      14      13      14      14      13      14      14      13      14      14
      13      14      14      13      14      14      13      14      14      13
      14      14      13      14      14      13      14      14      13      14
      14      13      14      14      13      14      14      13      14      14
      13      14      14      13      14      14      13      14      14      13
      14      14      13      14      14      13      14      14      13      14
      14      13      14      14      13      14      14      13      14      14
      13      14      14      13      14      14      13      14      14      13
      14      14      13      14      14      13      14      14      13      14
      14      13      14      14      13      14      14      13      14      14
      13      14      14      13      14      14      13      14      14      13
      14      14      13      14      14      13      14      14      13      14
      14      13      14      14      13      14      14      13      14      14
      13      14      14      13      14      14      13      14      14      13
      14      14      13      14      14      13      14      14      13      14
      14      13      14      14      13      14      14      13      14      14
      13      14      14      13      14      14      13      14      14      13
      14      14      13      14      14      13      14      14      13      14
      14      13      14      14      13      14      14      13      14      14
      13      14      14      13      14      14      13      14      14      13
      14      14      13      14      14      13      14      14      13      14
      14      13      14      14      13      14      14      13      14      14
      13      14      14      13      14      14      13      14      14      13
      14      14      13      14      14      13      14      14      13      14
      14      13      14      14      13      14      14      13      14      14
      13      14      14      13      14      14      13      14      14      13
      14      14      13      14      14      13      14      14      13      14
      14      13      14      14      13      14      14      13      14      14
      13      14      14      13      14      14      13      14      14      13
      14      14      13      14      14      13      14      14      13      14
      14      13      14      14      13      14      14      13      14      14
      13      14      14      13      14      14      13      14      14      13
      14      14      13      14      14      13      14      14      13      14
      14      13      14      14      13      14      14      13      14      14
      13      14      14      13      14      14      13      14      14      13
      14      14      13      14      14      13      14      14      13      14
      14      13      14      14      13      14      14      13      14      14
      13      14      14      13      14      14      13      14      14      13
      14      14      13      14      14      13      14      14      13      14
      14      13      14      14      13      14      14      13      14      14
      13      14      14      13      14      14      13      14      14      13
      14      14      13      14      14      13      14      14      13      14
      14      13      14      14      13      14      14      13      14      14
      13      14      14      13      14      14      13      14      14      13
      14      14      13      14      14      13      14      14      13      14
      14      13      14      14      13      14      14      13      14      14
      13      14      14      13      14      14      13      14      14      13
      14      14      13      14      14      13      14      14      13      14
      14      13      14      14      13      14      14      13      14      14
      13      14      14      13      14      14      13      14      14      13
      14      14      13      14      14      13      14      14      13      14
      14      13      14      14      13      14      14      13      14      14
      13      14      14      13      14      14      13      14      14      13
      14      14      13      14      14      13      14      14      13      14
      14      13      14      14      13      14      14      13      14      14
      13      14      14      13      14      14      13      14      14      13
      14      14      13      14      14      13      14      14      13      14
      14      13      14      14      13      14      14      13      14      14
      13      14      14      13      14      14      13      14      14      13
      14      14      13      14      14      13      14      14      13      14
      14      13      14      14      13      14      14      13      14      14
      13      14      14      13      14      14      13      14      14      13
      14      14      13      14      14      13      14      14      13      14
      14      13      14      14      13      14      14      13      14      14
      13      14      14      13      14      14      13      14      14      13
      14      14      13      14      14      13      14      14      13      14
      14      13      14      14      13      14      14      13      14      14
      13      14      14      13      14      14      13      14      14      13
      14      14      13      14      14      13      14      14      13      14
      14      13      14      14      13      14      14      13      14      14
      13      14      14      13      14      14      13      14      14      13
      14      14      13      14      14      13      14      14      13      14
      14      13      14      14      13      14      14      13      14      14
      13      14      14      13      14      14      13      14      14      13
      14      14      13      14      14      13      14      14      13      14
      14      13      14      14      13      14      14      13      14      14
      13      14      14      13      14      14      13      14      14      13
      14      14      13      14      14      13      14      14      13      14
      14      13      14      14      13      14      14      13      14      14
      13      14      14      13      14      14      13      14      14      13
      14      14      13      14      14      13      14      14      13      14
      14      13      14      14      13      14      14      13      14      14
      13      14      14      13      14      14      13      14      14      13
      14      14      13      14      14      13      14      14      13      14
      14      13      14      14      13      14      14      13      14      14
      13      14      14      13      14      14      13      14      14      13
      14      14      13      14      14      13      14      14      13      14
      14      13      14      14      13      14      14      13      14      14
      13      14      14      13      14      14      13      14      14      13
      14      14      13      14      14      13      14      14      13      14
      14      13      14      14      13      14      14      13      14      14
      13      14      14      13      14      14      13      14      14      13
      14      14      13      14      14      13      14      14      13      14
      14      13      14      14      13      14      14      13      14      14
      13      14      14      13      14      14      13      14      14      13
      14      14      13      14      14      13      14      14      13      14
      14      13      14      14      13      14      14      13      14      14
      13      14      14      13      14      14      13      14      14      13
      14      14      13      14      14      13      14      14      13      14
      14      13      14      14      13      14      14      13      14      14
      13      14      14      13      14      14      13      14      14      13
      14      14      13      14      14      13      14      14      13      14
      14      13      14      14      13      14      14      13      14      14
      13      14      14      13      14      14      13      14      14      13
      14      14      13      14      14      13      14      14      13      14
      14      13      14      14      13      14      14      13      14      14
      13      14      14      13      14      14      13      14      14      13
      14      14      13      14      14      13      14      14      13      14
      14      13      14      14      13      14      14      13      14      14
      13      14      14      13      14      14      13      14      14      13
      14      14      13      14      14      13      14      14      13      14
      14      13      14      14      13      14      14      13      14      14
      13      14      14      13      14      14      13      14      14      13
      14      14      13      14      14      13      14      14      13      14
      14      13      14      14      13      14      14      13      14      14
      13      14      14      13      14      14      13      14      14      13
      14      14      13      14      14      13      14      14      13      14
      14      13      14      14      13      14      14      13      14      14
      13      14      14      13      14      14      13      14      14      13
      14      14      13      14      14      13      14      14      13      14
      14      13      14      14      13      14      14      13      14      14
      13      14      14      13      14      14      13      14      14      13
      14      14      13      14      14      13      14      14      13      14
      14      13      14      14      13      14      14      13      14      14
      13      14      14      13      14      14      13      14      14      13
      14      14      13      14      14      13      14      14      13      14
      14      13      14      14      13      14      14      13      14      14
      13      14      14      13      14      14      13      14      14      13
      14      14      13      14      14      13      14      14      13      14
      14      13      14      14      13      14      14      13      14      14
      13      14      14      13      14      14      13      14      14      13
      14      14      13      14      14      13      14      14      13      14
      14      13      14      14      13      14      14      13      14      14
      13      14      14      13      14      14      13      14      14      13
      14      14      13      14      14      13      14      14      13      14
      14      13      14      14      13      14      14      13      14      14
      13      14      14      13      14      14      13      14      14      13
      14      14      13      14      14      13      14      14      13      14
      14      13      14      14      13      14      14      13      14      14
      13      14      14      13      14      14      13      14      14      13
      14      14      13      14      14      13      14      14      13      14
      14      13      14      14      13      14      14      13      14      14
      13      14      14      13      14      14      13      14      14      13
      14      14      13      14      14      13      14      14      13      14
      14      13      14      14      13      14      14      13      14      14
      13      14      14      13      14      14      13      14      14      13
      14      14      13      14      14      13      14      14      13      14
      14      13      14      14      13      14      14      13      14      14
      13      14      14      13      14      14      13      14      14      13
      14      14      13      14      14      13      14      14      13      14
      14      13      14      14      13      14      14      13      14      14
      13      14      14      13      14      14      13      14      14      13
      14      14      13      14      14      13      14      14      13      14
      14      13      14      14      13      14      14      13      14      14
      13      14      14      13      14      14      13      14      14      13
      14      14      13      14      14      13      14      14      13      14
      14      13      14      14      13      14      14      13      14      14
      13      14      14      13      14      14      13      14      14      13
      14      14      13      14      14      13      14      14      13      14
      14      13      14      14      13      14      14      13      14      14
      13      14      14      13      14      14      13      14      14      13
      14      14      13      14      14      13      14      14      13      14
      14      13      14      14      13      14      14      13      14      14
      13      14      14      13      14      14      13      14      14      13
      14      14      13      14      14      13      14      14      13      14
      14      13      14      14      13      14      14      13      14      14
      13      14      14      13      14      14      13      14      14      13
      14      14      13      14      14      13      14      14      13      14
      14      13      14      14      13      14      14      13      14      14
      13      14      14      13      14      14      13      14      14      13
      14      14      13      14      14      13      14      14      13      14
      14      13      14      14      13      14      14      13      14      14
      13      14      14      13      14      14      13      14      14      13
      14      14      13      14      14      13      14      14      13      14
      14      13      14      14      13      14      14      13      14      14
      13      14      14      13      14      14      13      14      14      13
      14      14      13      14      14      13      14      14      13      14
      14      13      14      14      13      14      14      13      14      14
      13      14      14      13      14      14      13      14      14      13
      14      14      13      14      14      13      14      14      13      14
      14      13      14      14      13      14      14      13      14      14
      13      14      14      13      14      14      13      14      14      13
      14      14      13      14      14      13      14      14      13      14
      14      13      14      14      13      14      14      13      14      14
      13      14      14      13      14      14      13      14      14      13
      14      14      13      14      14      13      14      14      13      14
      14      13      14      14      13      14      14      13      14      14
      13      14      14      13      14      14      13      14      14      13
      14      14      13      14      14      13      14      14      13      14
      14      13      14      14      13      14      14      13      14      14
      13      14      14      13      14      14      13      14      14      13
      14      14      13      14      14      13      14      14      13      14
      14      13      14      14      13      14      14      13      14      14
      13      14      14      13      14      14      13      14      14      13
      14      14      13      14      14      13      14      14      13      14
      14      13      14      14      13      14      14      13      14      14
      13      14      14      13      14      14      13      14      14      13
      14      14      13      14      14      13      14      14      13      14
      14      13      14      14      13      14      14      13      14      14
      13      14      14      13      14      14      13      14      14      13
      14      14      13      14      14      13      14      14      13      14
      14      13      14      14      13      14      14      13      14      14
      13      14      14      13      14      14      13      14      14      13
      14      14      13      14      14      13      14      14      13      14
      14      13      14      14      13      14      14      13      14      14
      13      14      14      13      14      14      13      14      14      13
      14      14      13      14      14      13      14      14      13      14
      14      13      14      14      13      14      14      13      14      14
      13      14      14      13      14      14      13      14      14      13
      14      14      13      14      14      13      14      14      13      14
      14      13      14      14      13      14      14      13      14      14
      13      14      14      13      14      14      13      14      14      13
      14      14      13      14      14      13      14      14      13      14
      14      13      14      14      13      14      14      13      14      14
      13      14      14      13      14      14      13      14      14      13
      14      14      13      14      14      13      14      14      13      14
      14      13      14      14      13      14      14      13      14      14
      13      14      14      13      14      14      13      14      14      13
      14      14      13      14      14      13      14      14      13      14
      14      13      14      14      13      14      14      13      14      14
      13      14      14      13      14      14      13      14      14      13
      14      14      13      14      14      13      14      14      13      14
      14      13      14      14      13      14      14      13      14      14
      13      14      14      13      14      14      13      14      14      13
      14      14      13      14      14      13      14      14      13      14
      14      13      14      14      13      14      14      13      14      14
      13      14      14      13      14      14      13      14      14      13
      14      14      13      14      14      13      14      14      13      14
      14      13      14      14      13      14      14      13      14      14
      13      14      14      13      14      14      13      14      14      13
      14      14      13      14      14      13      14      14      13      14
      14      13      14      14      13      14      14      13      14      14
      13      14      14      13      14      14      13      14      14      13
      14      14      13      14      14      13      14      14      13      14
      14      13      14      14      13      14      14      13      14      14
      13      14      14      13      14      14      13      14      14      13
      14      14      13      14      14      13      14      14      13      14
      14      13      14      14      13      14      14      13      14      14
      13      14      14      13      14      14      13      14      14      13
      14      14      13      14      14      13      14      14      13      14
      14      13      14      14      13      14      14      13      14      14
      13      14      14      13      14      14      13      14      14      13
      14      14      13      14      14      13      14      14      13      14
      14      13      14      14      13      14      14      13      14      14
      13      14      14      13      14      14      13      14      14      13
      14      14      13      14      14      13      14      14      13      14
      14      13      14      14      13      14      14      13      14      14
      13      14      14      13      14      14      13      14      14      13
      14      14      13      14      14      13      14      14      13      14
      14      13      14      14      13      14      14      13      14      14
      13      14      14      13      14      14      13      14      14      13
      14      14      13      14      14      13      14      14      13      14
      14      13      14      14      13      14      14      13      14      14
      13      14      14      13      14      14      13      14      14      13
      14      14      13      14      14      13      14      14      13      14
      14      13      14      14      13      14      14      13      14      14
      13      14      14      13      14      14      13      14      14      13
      14      14      13      14      14      13      14      14      13      14
      14      13      14      14      13      14      14      13      14      14
      13      14      14      13      14      14      13      14      14      13
      14      14      13      14      14      13      14      14      13      14
      14      13      14      14      13      14      14      13      14      14
      13      14      14      13      14      14      13      14      14      13
      14      14      13      14      14      13      14      14      13      14
      14      13      14      14      13      14      14      13      14      14
      13      14      14      13      14      14      13      14      14      13
      14      14      13      14      14      13      14      14      13      14
      14      13      14      14      13      14      14      13      14      14
      13      14      14      13      14      14      13      14      14      13
      14      14      13      14      14      13      14      14      13      14
      14      13      14      14      13      14      14      13      14      14
      13      14      14      13      14      14      13      14      14      13
      14      14      13      14      14      13      14      14      13      14
      14      13      14      14      13      14      14      13      14      14
      13      14      14      13      14      14      13      14      14      13
      14      14      13      14      14      13      14      14      13      14
      14      13      14      14      13      14      14      13      14      14
      13      14      14      13      14      14      13      14      14      13
      14      14      13      14      14      13      14      14      13      14
      14      13      14      14      13      14      14      13      14      14
      13      14      14      13      14      14      13      14      14      13
      14      14      13      14      14      13      14      14      13      14
      14      13      14      14      13      14      14      13      14      14
      13      14      14      13      14      14      13      14      14      13
      14      14      13      14      14      13      14      14      13      14
      14      13      14      14      13      14      14      13      14      14
      13      14      14      13      14      14      13      14      14      13
      14      14      13      14      14      13      14      14      13      14
      14      13      14      14      13      14      14      13      14      14
      13      14      14      13      14      14      13      14      14      13
      14      14      13      14      14      13      14      14      13      14
      14      13      14      14      13      14      14      13      14      14
      13      14      14      13      14      14      13      14      14      13
      14      14      13      14      14      13      14      14      13      14
      14      13      14      14      13      14      14      13      14      14
      13      14      14      13      14      14      13      14      14      13
      14      14      13      14      14      13      14      14      13      14
      14      13      14      14      13      14      14      13      14      14
      13      14      14      13      14      14      13      14      14      13
      14      14      13      14      14      13      14      14      13      14
      14      13      14      14      13      14      14      13      14      14
      13      14      14      13      14      14      13      14      14      13
      14      14      13      14      14      13      14      14      13      14
      14      13      14      14      13      14      14      13      14      14
      13      14      14      13      14      14      13      14      14      13
      14      14      13      14      14      13      14      14      13      14
      14      13      14      14      13      14      14      13      14      14
      13      14      14      13      14      14      13      14      14      13
      14      14      13      14      14      13      14      14      13      14
      14      13      14      14      13      14      14      13      14      14
      13      14      14      13      14      14      13      14      14      13
      14      14      13      14      14      13      14      14      13      14
      14      13      14      14      13      14      14      13      14      14
      13      14      14      13      14      14      13      14      14      13
      14      14      13      14      14      13      14      14      13      14
      14      13      14      14      13      14      14      13      14      14
      13      14      14      13      14      14      13      14      14      13
      14      14      13      14      14      13      14      14      13      14
      14      13      14      14      13      14      14      13      14      14
      13      14      14      13      14      14      13      14      14      13
      14      14      13      14      14      13      14      14      13      14
      14      13      14      14      13      14      14      13      14      14
      13      14      14      13      14      14      13      14      14      13
      14      14      13      14      14      13      14      14      13      14
      14      13      14      14      13      14      14      13      14      14
      13      14      14      13      14      14      13      14      14      13
      14      14      13      14      14      13      14      14      13      14
      14      13      14      14      13      14      14      13      14      14
      13      14      14      13      14      14      13      14      14      13
      14      14      13      14      14      13      14      14      13      14
      14      13      14      14      13      14      14      13      14      14
      13      14      14      13      14      14      13      14      14      13
      14      14      13      14      14      13      14      14      13      14
      14      13      14      14      13      14      14      13      14      14
      13      14      14      13      14      14      13      14      14      13
      14      14      13      14      14      13      14      14      13      14
      14      13      14      14      13      14      14      13      14      14
      13      14      14      13      14      14      13      14      14      13
      14      14      13      14      14      13      14      14      13      14
      14      13      14      14      13      14      14      13      14      14
      13      14      14      13      14      14      13      14      14      13
      14      14      13      14      14      13      14      14      13      14
      14      13      14      14      13      14      14      13      14      14
      13      14      14      13      14      14      13      14      14      13
      14      14      13      14      14      13      14      14      13      14
      14      13      14      14      13      14      14      13      14      14
      13      14      14      13      14      14      13      14      14      13
      14      14      13      14      14      13      14      14      13      14
      14      13      14      14      13      14      14      13      14      14
      13      14      14      13      14      14      13      14      14      13
      14      14      13      14      14      13      14      14      13      14
      14      13      14      14      13      14      14      13      14      14
      13      14      14      13      14      14      13      14      14      13
      14      14      13      14      14      13      14      14      13      14
      14      13      14      14      13      14      14      13      14      14
      13      14      14      13      14      14      13      14      14      13
      14      14      13      14      14      13      14      14      13      14
      14      13      14      14      13      14      14      13      14      14
      13      14      14      13      14      14      13      14      14      13
      14      14      13      14      14      13      14      14      13      14
      14      13      14      14      13      14      14      13      14      14
      13      14      14      13      14      14      13      14      14      13
      14      14      13      14      14      13      14      14      13      14
      14      13      14      14      13      14      14      13      14      14
      13      14      14      13      14      14      13      14      14      13
      14      14      13      14      14      13      14      14      13      14
      14      13      14      14      13      14      14      13      14      14
      13      14      14      13      14      14      13      14      14      13
      14      14      13      14      14      13      14      14      13      14
      14      13      14      14      13      14      14      13      14      14
      13      14      14      13      14      14      13      14      14      13
      14      14      13      14      14      13      14      14      13      14
      14      13      14      14      13      14      14      13      14      14
      13      14      14      13      14      14      13      14      14      13
      14      14      13      14      14      13      14      14      13      14
      14      13      14      14      13      14      14      13      14      14
      13      14      14      13      14      14      13      14      14      13
      14      14      13      14      14      13      14      14      13      14
      14      13      14      14      13      14      14      13      14      14
      13      14      14      13      14      14      13      14      14      13
      14      14      13      14      14      13      14      14      13      14
      14      13      14      14      13      14      14      13      14      14
      13      14      14      13      14      14      13      14      14      13
      14      14      13      14      14      13      14      14      13      14
      14      13      14      14      13      14      14      13      14      14
      13      14      14      13      14      14      13      14      14      13
      14      14      13      14      14      13      14      14      13      14
      14      13      14      14      13      14      14      13      14      14
      13      14      14      13      14      14      13      14      14      13
      14      14      13      14      14      13      14      14      13      14
      14      13      14      14      13      14      14      13      14      14
      13      14      14      13      14      14      13      14      14      13
      14      14      13      14      14      13      14      14      13      14
      14      13      14      14      13      14      14      13      14      14
      13      14      14      13      14      14      13      14      14      13
      14      14      13      14      14      13      14      14      13      14
      14      13      14      14      13      14      14      13      14      14
      13      14      14      13      14      14      13      14      14      13
      14      14      13      14      14      13      14      14      13      14
      14      13      14      14      13      14      14      13      14      14
      13      14      14      13      14      14      13      14      14      13
      14      14      13      14      14      13      14      14      13      14
      14      13      14      14      13      14      14      13      14      14
      13      14      14      13      14      14      13      14      14      13
      14      14      13      14      14      13      14      14      13      14
      14      13      14      14      13      14      14      13      14      14
      13      14      14      13      14      14      13      14      14      13
      14      14      13      14      14      13      14      14      13      14
      14      13      14      14      13      14      14      13      14      14
      13      14      14      13      14      14      13      14      14      13
      14      14      13      14      14      13      14      14      13      14
      14      13      14      14      13      14      14      13      14      14
      13      14      14      13      14      14      13      14      14      13
      14      14      13      14      14      13      14      14      13      14
      14      13      14      14      13      14      14      13      14      14
      13      14      14      13      14      14      13      14      14      13
      14      14      13      14      14      13      14      14      13      14
      14      13      14      14      13      14      14      13      14      14
      13      14      14      13      14      14      13      14      14      13
      14      14      13      14      14      13      14      14      13      14
      14      13      14      14      13      14      14      13      14      14
      13      14      14      13      14      14      13      14      14      13
      14      14      13      14      14      13      14      14      13      14
      14      13      14      14      13      14      14      13      14      14
      13      14      14      13      14      14      13      14      14      13
      14      14      13      14      14      13      14      14      13      14
      14      13      14      14      13      14      14      13      14      14
      13      14      14      13      14      14      13      14      14      13
      14      14      13      14      14      13      14      14      13      14
      14      13      14      14      13      14      14      13      14      14
      13      14      14      13      14      14      13      14      14      13
      14      14      13      14      14      13      14      14      13      14
      14      13      14      14      13      14      14      13      14      14
      13      14      14      13      14      14      13      14      14      13
      14      14      13      14      14      13      14      14      13      14
      14      13      14      14      13      14      14      13      14      14
      13      14      14      13      14      14      13      14      14      13
      14      14      13      14      14      13      14      14      13      14
      14      13      14      14      13      14      14      13      14      14
      13      14      14      13      14      14      13      14      14      13
      14      14      13      14      14      13      14      14      13      14
      14      13      14      14      13      14      14      13      14      14
      13      14      14      13      14      14      13      14      14      13
      14      14      13      14      14      13      14      14      13      14
      14      13      14      14      13      14      14      13      14      14
      13      14      14      13      14      14      13      14      14      13
      14      14      13      14      14      13      14      14      13      14
      14      13      14      14      13      14      14      13      14      14
      13      14      14      13      14      14      13      14      14      13
      14      14      13      14      14      13      14      14      13      14
      14      13      14      14      13      14      14      13      14      14
      13      14      14      13      14      14      13      14      14      13
      14      14      13      14      14      13      14      14      13      14
      14      13      14      14      13      14      14      13      14      14
      13      14      14      13      14      14      13      14      14      13
      14      14      13      14      14      13      14      14      13      14
      14      13      14      14      13      14      14      13      14      14
      13      14      14      13      14      14      13      14      14      13
      14      14      13      14      14      13      14      14      13      14
      14      13      14      14      13      14      14      13      14      14
      13      14      14      13      14      14      13      14      14      13
      14      14      13      14      14      13      14      14      13      14
      14      13      14      14      13      14      14      13      14      14
      13      14      14      13      14      14      13      14      14      13
      14      14      13      14      14      13      14      14      13      14
      14      13      14      14      13      14      14      13      14      14
      13      14      14      13      14      14      13      14      14      13
      14      14      13      14      14      13      14      14      13      14
      14      13      14      14      13      14      14      13      14      14
      13      14      14      13      14      14      13      14      14      13
      14      14      13      14      14      13      14      14      13      14
      14      13      14      14      13      14      14      13      14      14
      13      14      14      13      14      14      13      14      14      13
      14      14      13      14      14      13      14      14      13      14
      14      13      14      14      13      14      14      13      14      14
      13      14      14      13      14      14      13      14      14      13
      14      14      13      14      14      13      14      14      13      14
      14      13      14      14      13      14      14      13      14      14
      13      14      14      13      14      14      13      14      14      13
      14      14      13      14      14      13      14      14      13      14
      14      13      14      14      13      14      14      13      14      14
      13      14      14      13      14      14      13      14      14      13
      14      14      13      14      14      13      14      14      13      14
      14      13      14      14      13      14      14      13      14      14
      13      14      14      13      14      14      13      14      14      13
      14      14      13      14      14      13      14      14      13      14
      14      13      14      14      13      14      14      13      14      14
      13      14      14      13      14      14      13      14      14      13
      14      14      13      14      14      13      14      14      13      14
      14      13      14      14      13      14      14      13      14      14
      13      14      14      13      14      14      13      14      14      13
      14      14      13      14      14      13      14      14      13      14
      14      13      14      14      13      14      14      13      14      14
      13      14      14      13      14      14      13      14      14      13
      14      14      13      14      14      13      14      14      13      14
      14      13      14      14      13      14      14      13      14      14
      13      14      14      13      14      14      13      14      14      13
      14      14      13      14      14      13      14      14      13      14
      14      13      14      14      13      14      14      13      14      14
      13      14      14      13      14      14      13      14      14      13
      14      14      13      14      14      13      14      14      13      14
      14      13      14      14      13      14      14      13      14      14
      13      14      14      13      14      14      13      14      14      13
      14      14      13      14      14      13      14      14      13      14
      14      13      14      14      13      14      14      13      14      14
      13      14      14      13      14      14      13      14      14      13
      14      14      13      14      14      13      14      14      13      14
      14      13      14      14      13      14      14      13      14      14
      13      14      14      13      14      14      13      14      14      13
      14      14      13      14      14      13      14      14      13      14
      14      13      14      14      13      14      14      13      14      14
      13      14      14      13      14      14      13      14      14      13
      14      14      13      14      14      13      14      14      13      14
      14      13      14      14      13      14      14      13      14      14
      13      14      14      13      14      14      13      14      14      13
      14      14      13      14      14      13      14      14      13      14
      14      13      14      14      13      14      14      13      14      14
      13      14      14      13      14      14      13      14      14      13
      14      14      13      14      14      13      14      14      13      14
      14      13      14      14      13      14      14      13      14      14
      13      14      14      13      14      14      13      14      14      13
      14      14      13      14      14      13      14      14      13      14
      14      13      14      14      13      14      14      13      14      14
      13      14      14      13      14      14      13      14      14      13
      14      14      13      14      14      13      14      14      13      14
      14      13      14      14      13      14      14      13      14      14
      13      14      14      13      14      14      13      14      14      13
      14      14      13      14      14      13      14      14      13      14
      14      13      14      14      13      14      14      13      14      14
      13      14      14      13      14      14      13      14      14      13
      14      14      13      14      14      13      14      14      13      14
      14      13      14      14      13      14      14      13      14      14
      13      14      14      13      14      14      13      14      14      13
      14      14      13      14      14      13      14      14      13      14
      14      13      14      14      13      14      14      13      14      14
      13      14      14      13      14      14      13      14      14      13
      14      14      13      14      14      13      14      14      13      14
      14      13      14      14      13      14      14      13      14      14
      13      14      14      13      14      14      13      14      14      13
      14      14      13      14      14      13      14      14      13      14
      14      13      14      14      13      14      14      13      14      14
      13      14      14      13      14      14      13      14      14      13
      14      14      13      14      14      13      14      14      13      14
      14      13      14      14      13      14      14      13      14      14
      13      14      14      13      14      14      13      14      14      13
      14      14      13      14      14      13      14      14      13      14
      14      13      14      14      13      14      14      13      14      14
      13      14      14      13      14      14      13      14      14      13
      14      14      13      14      14      13      14      14      13      14
      14      13      14      14      13      14      14      13      14      14
      13      14      14      13      14      14      13      14      14      13
      14      14      13      14      14      13      14      14      13      14
      14      13      14      14      13      14      14      13      14      14
      13      14      14      13      14      14      13      14      14      13
      14      14      13      14      14      13      14      14      13      14
      14      13      14      14      13      14      14      13      14      14
      13      14      14      13      14      14      13      14      14      13
      14      14      13      14      14      13      14      14      13      14
      14      13      14      14      13      14      14      13      14      14
      13      14      14      13      14      14      13      14      14      13
      14      14      13      14      14      13      14      14      13      14
      14      13      14      14      13      14      14      13      14      14
      13      14      14      13      14      14      13      14      14      13
      14      14      13      14      14      13      14      14      13      14
      14      13      14      14      13      14      14      13      14      14
      13      14      14      13      14      14      13      14      14      13
      14      14      13      14      14      13      14      14      13      14
      14      13      14      14      13      14      14      13      14      14
      13      14      14      13      14      14      13      14      14      13
      14      14      13      14      14      13      14      14      13      14
      14      13      14      14      13      14      14      13      14      14
      13      14      14      13      14      14      13      14      14      13
      14      14      13      14      14      13      14      14      13      14
      14      13      14      14      13      14      14      13      14      14
      13      14      14      13      14      14      13      14      14      13
      14      14      13      14      14      13      14      14      13      14
      14      13      14      14      13      14      14      13      14      14
      13      14      14      13      14      14      13      14      14      13
      14      14      13      14      14      13      14      14      13      14
      14      13      14      14      13      14      14      13      14      14
      13      14      14      13      14      14      13      14      14      13
      14      14      13      14      14      13      14      14      13      14
      14      13      14      14      13      14      14      13      14      14
      13      14      14      13      14      14      13      14      14      13
      14      14      13      14      14      13      14      14      13      14
      14      13      14      14      13      14      14      13      14      14
      13      14      14      13      14      14      13      14      14      13
      14      14      13      14      14      13      14      14      13      14
      14      13      14      14      13      14      14      13      14      14
      13      14      14      13      14      14      13      14      14      13
      14      14      13      14      14      13      14      14      13      14
      14      13      14      14      13      14      14      13      14      14
      13      14      14      13      14      14      13      14      14      13
      14      14      13      14      14      13      14      14      13      14
      14      13      14      14      13      14      14      13      14      14
      13      14      14      13      14      14      13      14      14      13
      14      14      13      14      14      13      14      14      13      14
      14      13      14      14      13      14      14      13      14      14
      13      14      14      13      14      14      13      14      14      13
      14      14      13      14      14      13      14      14      13      14
      14      13      14      14      13      14      14      13      14      14
      13      14      14      13      14      14      13      14      14      13
      14      14      13      14      14      13      14      14      13      14
      14      13      14      14      13      14      14      13      14      14
      13      14      14      13      14      14      13      14      14      13
      14      14      13      14      14      13      14      14      13      14
      14      13      14      14      13      14      14      13      14      14
      13      14      14      13      14      14      13      14      14      13
      14      14      13      14      14      13      14      14      13      14
      14      13      14      14      13      14      14      13      14      14
      13      14      14      13      14      14      13      14      14      13
      14      14      13      14      14      13      14      14      13      14
      14      13      14      14      13      14      14      13      14      14
      13      14      14      13      14      14      13      14      14      13
      14      14      13      14      14      13      14      14      13      14
      14      13      14      14      13      14      14      13      14      14
      13      14      14      13      14      14      13      14      14      13
      14      14      13      14      14      13      14      14      13      14
      14      13      14      14      13      14      14      13      14      14
      13      14      14      13      14      14      13      14      14      13
      14      14      13      14      14      13      14      14      13      14
      14      13      14      14      13      14      14      13      14      14
      13      14      14      13      14      14      13      14      14      13
      14      14      13      14      14      13      14      14      13      14
      14      13      14      14      13      14      14      13      14      14
      13      14      14      13      14      14      13      14      14      13
      14      14      13      14      14      13      14      14      13      14
      14      13      14      14      13      14      14      13      14      14
      13      14      14      13      14      14      13      14      14      13
      14      14      13      14      14      13      14      14      13      14
      14      13      14      14      13      14      14      13      14      14
      13      14      14      13      14      14      13      14      14      13
      14      14      13      14      14      13      14      14      13      14
      14      13      14      14      13      14      14      13      14      14
      13      14      14      13      14      14      13      14      14      13
      14      14      13      14      14      13      14      14      13      14
      14      13      14      14      13      14      14      13      14      14
      13      14      14      13      14      14      13      14      14      13
      14      14      13      14      14      13      14      14      13      14
      14      13      14      14      13      14      14      13      14      14
      13      14      14      13      14      14      13      14      14      13
      14      14      13      14      14      13      14      14      13      14
      14      13      14      14      13      14      14      13      14      14
      13      14      14      13      14      14      13      14      14      13
      14      14      13      14      14      13      14      14      13      14
      14      13      14      14      13      14      14      13      14      14
      13      14      14      13      14      14      13      14      14      13
      14      14      13      14      14      13      14      14      13      14
      14      13      14      14      13      14      14      13      14      14
      13      14      14      13      14      14      13      14      14      13
      14      14      13      14      14      13      14      14      13      14
      14      13      14      14      13      14      14      13      14      14
      13      14      14      13      14      14      13      14      14      13
      14      14      13      14      14      13      14      14      13      14
      14      13      14      14      13      14      14      13      14      14
      13      14      14      13      14      14      13      14      14      13
      14      14      13      14      14      13      14      14      13      14
      14      13      14      14      13      14      14      13      14      14
      13      14      14      13      14      14      13      14      14      13
      14      14      13      14      14      13      14      14      13      14
      14      13      14      14      13      14      14      13      14      14
      13      14      14      13      14      14      13      14      14      13
      14      14      13      14      14      13      14      14      13      14
      14      13      14      14      13      14      14      13      14      14
      13      14      14      13      14      14      13      14      14      13
      14      14      13      14      14      13      14      14      13      14
      14      13      14      14      13      14      14      13      14      14
      13      14      14      13      14      14      13      14      14      13
      14      14      13      14      14      13      14      14      13      14
      14      13      14      14      13      14      14      13      14      14
      13      14      14      13      14      14      13      14      14      13
      14      14      13      14      14      13      14      14      13      14
      14      13      14      14      13      14      14      13      14      14
      13      14      14      13      14      14      13      14      14      13
      14      14      13      14      14      13      14      14      13      14
      14      13      14      14      13      14      14      13      14      14
      13      14      14      13      14      14      13      14      14      13
      14      14      13      14      14      13      14      14      13      14
      14      13      14      14      13      14      14      13      14      14
      13      14      14      13      14      14      13      14      14      13
      14      14      13      14      14      13      14      14      13      14
      14      13      14      14      13      14      14      13      14      14
      13      14      14      13      14      14      13      14      14      13
      14      14      13      14      14      13      14      14      13      14
      14      13      14      14      13      14      14      13      14      14
      13      14      14      13      14      14      13      14      14      13
      14      14      13      14      14      13      14      14      13      14
      14      13      14      14      13      14      14      13      14      14
      13      14      14      13      14      14      13      14      14      13
      14      14      13      14      14      13      14      14      13      14
      14      13      14      14      13      14      14      13      14      14
      13      14      14      13      14      14      13      14      14      13
      14      14      13      14      14      13      14      14      13      14
      14      13      14      14      13      14      14      13      14      14
      13      14      14      13      14      14      13      14      14      13
      14      14      13      14      14      13      14      14      13      14
      14      13      14      14      13      14      14      13      14      14
      13      14      14      13      14      14      13      14      14      13
      14      14      13      14      14      13      14      14      13      14
      14      13      14      14      13      14      14      13      14      14
      13      14      14      13      14      14      13      14      14      13
      14      14      13      14      14      13      14      14      13      14
      14      13      14      14      13      14      14      13      14      14
      13      14      14      13      14      14      13      14      14      13
      14      14      13      14      14      13      14      14      13      14
      14      13      14      14      13      14      14      13      14      14
      13      14      14      13      14      14      13      14      14      13
      14      14      13      14      14      13      14      14      13      14
      14      13      14      14      13      14      14      13      14      14
      13      14      14      13      14      14      13      14      14      13
      14      14      13      14      14      13      14      14      13      14
      14      13      14      14      13      14      14      13      14      14
      13      14      14      13      14      14      13      14      14      13
      14      14      13      14      14      13      14      14      13      14
      14      13      14      14      13      14      14      13      14      14
      13      14      14      13      14      14      13      14      14      13
      14      14      13      14      14      13      14      14      13      14
      14      13      14      14      13      14      14      13      14      14
      13      14      14      13      14      14      13      14      14      13
      14      14      13      14      14      13      14      14      13      14
      14      13      14      14      13      14      14      13      14      14
      13      14      14      13      14      14      13      14      14      13
      14      14      13      14      14      13      14      14      13      14
      14      13      14      14      13      14      14      13      14      14
      13      14      14      13      14      14      13      14      14      13
      14      14      13      14      14      13      14      14      13      14
      14      13      14      14      13      14      14      13      14      14
      13      14      14      13      14      14      13      14      14      13
      14      14      13      14      14      13      14      14      13      14
      14      13      14      14      13      14      14      13      14      14
      13      14      14      13      14      14      13      14      14      13
      14      14      13      14      14      13      14      14      13      14
      14      13      14      14      13      14      14      13      14      14
      13      14      14      13      14      14      13      14      14      13
      14      14      13      14      14      13      14      14      13      14
      14      13      14      14      13      14      14      13      14      14
      13      14      14      13      14      14      13      14      14      13
      14      14      13      14      14      13      14      14      13      14
      14      13      14      14      13      14      14      13      14      14
      13      14      14      13      14      14      13      14      14      13
      14      14      13      14      14      13      14      14      13      14
      14      13      14      14      13      14      14      13      14      14
      13      14      14      13      14      14      13      14      14      13
      14      14      13      14      14      13      14      14      13      14
      14      13      14      14      13      14      14      13      14      14
      13      14      14      13      14      14      13      14      14      13
      14      14      13      14      14      13      14      14      13      14
      14      13      14      14      13      14      14      13      14      14
      13      14      14      13      14      14      13      14      14      13
      14      14      13      14      14      13      14      14      13      14
      14      13      14      14      13      14      14      13      14      14
      13      14      14      13      14      14      13      14      14      13
      14      14      13      14      14      13      14      14      13      14
      14      13      14      14      13      14      14      13      14      14
      13      14      14      13      14      14      13      14      14      13
      14      14      13      14      14      13      14      14      13      14
      14      13      14      14      13      14      14      13      14      14
      13      14      14      13      14      14      13      14      14      13
      14      14      13      14      14      13      14      14      13      14
      14      13      14      14      13      14      14      13      14      14
      13      14      14      13      14      14      13      14      14      13
      14      14      13      14      14      13      14      14      13      14
      14      13      14      14      13      14      14      13      14      14
      13      14      14      13      14      14      13      14      14      13
      14      14      13      14      14      13      14      14      13      14
      14      13      14      14      13      14      14      13      14      14
      13      14      14      13      14      14      13      14      14      13
      14      14      13      14      14      13      14      14      13      14
      14      13      14      14      13      14      14      13      14      14
      13      14      14      13      14      14      13      14      14      13
      14      14      13      14      14      13      14      14      13      14
      14      13      14      14      13      14      14      13      14      14
      13      14      14      13      14      14      13      14      14      13
      14      14      13      14      14      13      14      14      13      14
      14      13      14      14      13      14      14      13      14      14
      13      14      14      13      14      14      13      14      14      13
      14      14      13      14      14      13      14      14      13      14
      14      13      14      14      13      14      14      13      14      14
      13      14      14      13      14      14      13      14      14      13
      14      14      13      14      14      13      14      14      13      14
      14      13      14      14      13      14      14      13      14      14
      13      14      14      13      14      14      13      14      14      13
      14      14      13      14      14      13      14      14      13      14
      14      13      14      14      13      14      14      13      14      14
      13      14      14      13      14      14      13      14      14      13
      14      14      13      14      14      13      14      14      13      14
      14      13      14      14      13      14      14      13      14      14
      13      14      14      13      14      14      13      14      14      13
      14      14      13      14      14      13      14      14      13      14
      14      13      14      14      13      14      14      13      14      14
      13      14      14      13      14      14      13      14      14      13
      14      14      13      14      14      13      14      14      13      14
      14      13      14      14      13      14      14      13      14      14
      13      14      14      13      14      14      13      14      14      13
      14      14      13      14      14      13      14      14      13      14
      14      13      14      14      13      14      14      13      14      14
      13      14      14      13      14      14      13      14      14      13
      14      14      13      14      14      13      14      14      13      14
      14      13      14      14      13      14      14      13      14      14
      13      14      14      13      14      14      13      14      14      13
      14      14      13      14      14      13      14      14      13      14
      14      13      14      14      13      14      14      13      14      14
      13      14      14      13      14      14      13      14      14      13
      14      14      13      14      14      13      14      14      13      14
      14      13      14      14      13      14      14      13      14      14
      13      14      14      13      14      14      13      14      14      13
      14      14      13      14      14      13      14      14      13      14
      14      13      14      14      13      14      14      13      14      14
      13      14      14      13      14      14      13      14      14      13
      14      14      13      14      14      13      14      14      13      14
      14      13      14      14      13      14      14      13      14      14
      13      14      14      13      14      14      13      14      14      13
      14      14      13      14      14      13      14      14      13      14
      14      13      14      14      13      14      14      13      14      14
      13      14      14      13      14      14      13      14      14      13
      14      14      13      14      14      13      14      14      13      14
      14      13      14      14      13      14      14      13      14      14
      13      14      14      13      14      14      13      14      14      13
      14      14      13      14      14      13      14      14      13      14
      14      13      14      14      13      14      14      13      14      14
      13      14      14      13      14      14      13      14      14      13
      14      14      13      14      14      13      14      14      13      14
      14      13      14      14      13      14      14      13      14      14
      13      14      14      13      14      14      13      14      14      13
      14      14      13      14      14      13      14      14      13      14
      14      13      14      14      13      14      14      13      14      14
      13      14      14      13      14      14      13      14      14      13
      14      14      13      14      14      13      14      14      13      14
      14      13      14      14      13      14      14      13      14      14
      13      14      14      13      14      14      13      14      14      13
      14      14      13      14      14      13      14      14      13      14
      14      13      14      14      13      14      14      13      14      14
      13      14      14      13      14      14      13      14      14      13
      14      14      13      14      14      13      14      14      13      14
      14      13      14      14      13      14      14      13      14      14
      13      14      14      13      14      14      13      14      14      13
      14      14      13      14      14      13      14      14      13      14
      14      13      14      14      13      14      14      13      14      14
      13      14      14      13      14      14      13      14      14      13
      14      14      13      14      14      13      14      14      13      14
      14      13      14      14      13      14      14      13      14      14
      13      14      14      13      14      14      13      14      14      13
      14      14      13      14      14      13      14      14      13      14
      14      13      14      14      13      14      14      13      14      14
      13      14      14      13      14      14      13      14      14      13
      14      14      13      14      14      13      14      14      13      14
      14      13      14      14      13      14      14      13      14      14
      13      14      14      13      14      14      13      14      14      13
      14      14      13      14      14      13      14      14      13      14
      14      13      14      14      13      14      14      13      14      14
      13      14      14      13      14      14      13      14      14      13
      14      14      13      14      14      13      14      14      13      14
      14      13      14      14      13      14      14      13      14      14
      13      14      14      13      14      14      13      14      14      13
      14      14      13      14      14      13      14      14      13      14
      14      13      14      14      13      14      14      13      14      14
      13      14      14      13      14      14      13      14      14      13
      14      14      13      14      14      13      14      14      13      14
      14      13      14      14      13      14      14      13      14      14
      13      14      14      13      14      14      13      14      14      13
      14      14      13      14      14      13      14      14      13      14
      14      13      14      14      13      14      14      13      14      14
      13      14      14      13      14      14      13      14      14      13
      14      14      13      14      14      13      14      14      13      14
      14      13      14      14      13      14      14      13      14      14
      13      14      14      13      14      14      13      14      14      13
      14      14      13      14      14      13      14      14      13      14
      14      13      14      14      13      14      14      13      14      14
      13      14      14      13      14      14      13      14      14      13
      14      14      13      14      14      13      14      14      13      14
      14      13      14      14      13      14      14      13      14      14
      13      14      14      13      14      14      13      14      14      13
      14      14      13      14      14      13      14      14      13      14
      14      13      14      14      13      14      14      13      14      14
      13      14      14      13      14      14      13      14      14      13
      14      14      13      14      14      13      14      14      13      14
      14      13      14      14      13      14      14      13      14      14
      13      14      14      13      14      14      13      14      14      13
      14      14      13      14      14      13      14      14      13      14
      14      13      14      14      13      14      14      13      14      14
      13      14      14      13      14      14      13      14      14      13
      14      14      13      14      14      13      14      14      13      14
      14      13      14      14      13      14      14      13      14      14
      13      14      14      13      14      14      13      14      14      13
      14      14      13      14      14      13      14      14      13      14
      14      13      14      14      13      14      14      13      14      14
      13      14      14      13      14      14      13      14      14      13
      14      14      13      14      14      13      14      14      13      14
      14      13      14      14      13      14      14      13      14      14
      13      14      14      13      14      14      13      14      14      13
      14      14      13      14      14      13      14      14      13      14
      14      13      14      14      13      14      14      13      14      14
      13      14      14      13      14      14      13      14      14      13
      14      14      13      14      14      13      14      14      13      14
      14      13      14      14      13      14      14      13      14      14
      13      14      14      13      14      14      13      14      14      13
      14      14      13      14      14      13      14      14      13      14
      14      13      14      14      13      14      14      13      14      14
      13      14      14      13      14      14      13      14      14      13
      14      14      13      14      14      13      14      14      13      14
      14      13      14      14      13      14      14      13      14      14
      13      14      14      13      14      14      13      14      14      13
      14      14      13      14      14      13      14      14      13      14
      14      13      14      14      13      14      14      13      14      14
      13      14      14      13      14      14      13      14      14      13
      14      14      13      14      14      13      14      14      13      14
      14      13      14      14      13      14      14      13      14      14
      13      14      14      13      14      14      13      14      14      13
      14      14      13      14      14      13      14      14      13      14
      14      13      14      14      13      14      14      13      14      14
      13      14      14      13      14      14      13      14      14      13
      14      14      13      14      14      13      14      14      13      14
      14      13      14      14      13      14      14      13      14      14
      13      14      14      13      14      14      13      14      14      13
      14      14      13      14      14      13      14      14      13      14
      14      13      14      14      13      14      14      13      14      14
      13      14      14      13      14      14      13      14      14      13
      14      14      13      14      14      13      14      14      13      14
      14      13      14      14      13      14      14      13      14      14
      13      14      14      13      14      14      13      14      14      13
      14      14      13      14      14      13      14      14      13      14
      14      13      14      14      13      14      14      13      14      14
      13      14      14      13      14      14      13      14      14      13
      14      14      13      14      14      13      14      14      13      14
      14      13      14      14      13      14      14      13      14      14
      13      14      14      13      14      14      13      14      14      13
      14      14      13      14      14      13      14      14      13      14
      14      13      14      14      13      14      14      13      14      14
      13      14      14      13      14      14      13      14      14      13
      14      14      13      14      14      13      14      14      13      14
      14      13      14      14      13      14      14      13      14      14
      13      14      14      13      14      14      13      14      14      13
      14      14      13      14      14      13      14      14      13      14
      14      13      14      14      13      14      14      13      14      14
      13      14      14      13      14      14      13      14      14      13
      14      14      13      14      14      13      14      14      13      14
      14      13      14      14      13      14      14      13      14      14
      13      14      14      13      14      14      13      14      14      13
      14      14      13      14      14      13      14      14      13      14
      14      13      14      14      13      14      14      13      14      14
      13      14      14      13      14      14      13      14      14      13
      14      14      13      14      14      13      14      14      13      14
      14      13      14      14      13      14      14      13      14      14
      13      14      14      13      14      14      13      14      14      13
      14      14      13      14      14      13      14      14      13      14
      14      13      14      14      13      14      14      13      14      14
      13      14      14      13      14      14      13      14      14      13
      14      14      13      14      14      13      14      14      13      14
      14      13      14      14      13      14      14      13      14      14
      13      14      14      13      14      14      13      14      14      13
      14      14      13      14      14      13      14      14      13      14
      14      13      14      14      13      14      14      13      14      14
      13      14      14      13      14      14      13      14      14      13
      14      14      13      14      14      13      14      14      13      14
      14      13      14      14      13      14      14      13      14      14
      13      14      14      13      14      14      13      14      14      13
      14      14      13      14      14      13      14      14      13      14
      14      13      14      14      13      14      14      13      14      14
      13      14      14      13      14      14      13      14      14      13
      14      14      13      14      14      13      14      14      13      14
      14      13      14      14      13      14      14      13      14      14
      13      14      14      13      14      14      13      14      14      13
      14      14      13      14      14      13      14      14      13      14
      14      13      14      14      13      14      14      13      14      14
      13      14      14      13      14      14      13      14      14      13
      14      14      13      14      14      13      14      14      13      14
      14      13      14      14      13      14      14      13      14      14
      13      14      14      13      14      14      13      14      14      13
      14      14      13      14      14      13      14      14      13      14
      14      13      14      14      13      14      14      13      14      14
      13      14      14      13      14      14      13      14      14      13
      14      14      13      14      14      13      14      14      13      14
      14      13      14      14      13      14      14      13      14      14
      13      14      14      13      14      14      13      14      14      13
      14      14      13      14      14      13      14      14      13      14
      14      13      14      14      13      14      14      13      14      14
      13      14      14      13      14      14      13      14      14      13
      14      14      13      14      14      13      14      14      13      14
      14      13      14      14      13      14      14      13      14      14
      13      14      14      13      14      14      13      14      14      13
      14      14      13      14      14      13      14      14      13      14
      14      13      14      14      13      14      14      13      14      14
      13      14      14      13      14      14      13      14      14      13
      14      14      13      14      14      13      14      14      13      14
      14      13      14      14      13      14      14      13      14      14
      13      14      14      13      14      14      13      14      14      13
      14      14      13      14      14      13      14      14      13      14
      14      13      14      14      13      14      14      13      14      14
      13      14      14      13      14      14      13      14      14      13
      14      14      13      14      14      13      14      14      13      14
      14      13      14      14      13      14      14      13      14      14
      13      14      14      13      14      14      13      14      14      13
      14      14      13      14      14      13      14      14      13      14
      14      13      14      14      13      14      14      13      14      14
      13      14      14      13      14      14      13      14      14      13
      14      14      13      14      14      13      14      14      13      14
      14      13      14      14      13      14      14      13      14      14
      13      14      14      13      14      14      13      14      14      13
      14      14      13      14      14      13      14      14      13      14
      14      13      14      14      13      14      14      13      14      14
      13      14      14      13      14      14      13      14      14      13
      14      14      13      14      14      13      14      14      13      14
      14      13      14      14      13      14      14      13      14      14
      13      14      14      13      14      14      13      14      14      13
      14      14      13      14      14      13      14      14      13      14
      14      13      14      14      13      14      14      13      14      14
      13      14      14      13      14      14      13      14      14      13
      14      14      13      14      14      13      14      14      13      14
      14      13      14      14      13      14      14      13      14      14
      13      14      14      13      14      14      13      14      14      13
      14      14      13      14      14      13      14      14      13      14
      14      13      14      14      13      14      14      13      14      14
      13      14      14      13      14      14      13      14      14      13
      14      14      13      14      14      13      14      14      13      14
      14      13      14      14      13      14      14      13      14      14
      13      14      14      13      14      14      13      14      14      13
      14      14      13      14      14      13      14      14      13      14
      14      13      14      14      13      14      14      13      14      14
      13      14      14      13      14      14      13      14      14      13
      14      14      13      14      14      13      14      14      13      14
      14      13      14      14      13      14      14      13      14      14
      13      14      14      13      14      14      13      14      14      13
      14      14      13      14      14      13      14      14      13      14
      14      13      14      14      13      14      14      13      14      14
      13      14      14      13      14      14      13      14      14      13
      14      14      13      14      14      13      14      14      13      14
      14      13      14      14      13      14      14      13      14      14
      13      14      14      13      14      14      13      14      14      13
      14      14      13      14      14      13      14      14      13      14
      14      13      14      14      13      14      14      13      14      14
      13      14      14      13      14      14      13      14      14      13
      14      14      13      14      14      13      14      14      13      14
      14      13      14      14      13      14      14      13      14      14
      13      14      14      13      14      14      13      14      14      13
      14      14      13      14      14      13      14      14      13      14
      14      13      14      14      13      14      14      13      14      14
      13      14      14      13      14      14      13      14      14      13
      14      14      13      14      14      13      14      14      13      14
      14      13      14      14      13      14      14      13      14      14
      13      14      14      13      14      14      13      14      14      13
      14      14      13      14      14      13      14      14      13      14
      14      13      14      14      13      14      14      13      14      14
      13      14      14      13      14      14      13      14      14      13
      14      14      13      14      14      13      14      14      13      14
      14      13      14      14      13      14      14      13      14      14
      13      14      14      13      14      14      13      14      14      13
      14      14      13      14      14      13      14      14      13      14
      14      13      14      14      13      14      14      13      14      14
      13      14      14      13      14      14      13      14      14      13
      14      14      13      14      14      13      14      14      13      14
      14      13      14      14      13      14      14      13      14      14
      13      14      14      13      14      14      13      14      14      13
      14      14      13      14      14      13      14      14      13      14
      14      13      14      14      13      14      14      13      14      14
      13      14      14      13      14      14      13      14      14      13
      14      14      13      14      14      13      14      14      13      14
      14      13      14      14      13      14      14      13      14      14
      13      14      14      13      14      14      13      14      14      13
      14      14      13      14      14      13      14      14      13      14
      14      13      14      14      13      14      14      13      14      14
      13      14      14      13      14      14      13      14      14      13
      14      14      13      14      14      13      14      14      13      14
      14      13      14      14      13      14      14      13      14      14
      13      14      14      13      14      14      13      14      14      13
      14      14      13      14      14      13      14      14      13      14
      14      13      14      14      13      14      14      13      14      14
      13      14      14      13      14      14      13      14      14      13
      14      14      13      14      14      13      14      14      13      14
      14      13      14      14      13      14      14      13      14      14
      13      14      14      13      14      14      13      14      14      13
      14      14      13      14      14      13      14      14      13      14
      14      13      14      14      13      14      14      13      14      14
      13      14      14      13      14      14      13      14      14      13
      14      14      13      14      14      13      14      14      13      14
      14      13      14      14      13      14      14      13      14      14
      13      14      14      13      14      14      13      14      14      13
      14      14      13      14      14      13      14      14      13      14
      14      13      14      14      13      14      14      13      14      14
      13      14      14      13      14      14      13      14      14      13
      14      14      13      14      14      13      14      14      13      14
      14      13      14      14      13      14      14      13      14      14
      13      14      14      13      14      14      13      14      14      13
      14      14      13      14      14      13      14      14      13      14
      14      13      14      14      13      14      14      13      14      14
      13      14      14      13      14      14      13      14      14      13
      14      14      13      14      14      13      14      14      13      14
      14      13      14      14      13      14      14      13      14      14
      13      14      14      13      14      14      13      14      14      13
      14      14      13      14      14      13      14      14      13      14
      14      13      14      14      13      14      14      13      14      14
      13      14      14      13      14      14      13      14      14      13
      14      14      13      14      14      13      14      14      13      14
      14      13      14      14      13      14      14      13      14      14
      13      14      14      13      14      14      13      14      14      13
      14      14      13      14      14      13      14      14      13      14
      14      13      14      14      13      14      14      13      14      14
      13      14      14      13      14      14      13      14      14      13
      14      14      13      14      14      13      14      14      13      14
      14      13      14      14      13      14      14      13      14      14
      13      14      14      13      14      14      13      14      14      13
      14      14      13      14      14      13      14      14      13      14
      14      13      14      14      13      14      14      13      14      14
      13      14      14      13      14      14      13      14      14      13
      14      14      13      14      14      13      14      14      13      14
      14      13      14      14      13      14      14      13      14      14
      13      14      14      13      14      14      13      14      14      13
      14      14      13      14      14      13      14      14      13      14
      14      13      14      14      13      14      14      13      14      14
      13      14      14      13      14      14      13      14      14      13
      14      14      13      14      14      13      14      14      13      14
      14      13      14      14      13      14      14      13      14      14
      13      14      14      13      14      14      13      14      14      13
      14      14      13      14      14      13      14      14      13      14
      14      13      14      14      13      14      14      13      14      14
      13      14      14      13      14      14      13      14      14      13
      14      14      13      14      14      13      14      14      13      14
      14      13      14      14      13      14      14      13      14      14
      13      14      14      13      14      14      13      14      14      13
      14      14      13      14      14      13      14      14      13      14
      14      13      14      14      13      14      14      13      14      14
      13      14      14      13      14      14      13      14      14      13
      14      14      13      14      14      13      14      14      13      14
      14      13      14      14      13      14      14      13      14      14
      13      14      14      13      14      14      13      14      14      13
      14      14      13      14      14      13      14      14      13      14
      14      13      14      14      13      14      14      13      14      14
      13      14      14      13      14      14      13      14      14      13
      14      14      13      14      14      13      14      14      13      14
      14      13      14      14      13      14      14      13      14      14
      13      14      14      13      14      14      13      14      14      13
      14      14      13      14      14      13      14      14      13      14
      14      13      14      14      13      14      14      13      14      14
      13      14      14      13      14      14      13      14      14      13
      14      14      13      14      14      13      14      14      13      14
      14      13      14      14      13      14      14      13      14      14
      13      14      14      13      14      14      13      14      14      13
      14      14      13      14      14      13      14      14      13      14
      14      13      14      14      13      14      14      13      14      14
      13      14      14      13      14      14      13      14      14      13
      14      14      13      14      14      13      14      14      13      14
      14      13      14      14      13      14      14      13      14      14
      13      14      14      13      14      14      13      14      14      13
      14      14      13      14      14      13      14      14      13      14
      14      13      14      14      13      14      14      13      14      14
      13      14      14      13      14      14      13      14      14      13
      14      14      13      14      14      13      14      14      13      14
      14      13      14      14      13      14      14      13      14      14
      13      14      14      13      14      14      13      14      14      13
      14      14      13      14      14      13      14      14      13      14
      14      13      14      14      13      14      14      13      14      14
      13      14      14      13      14      14      13      14      14      13
      14      14      13      14      14      13      14      14      13      14
      14      13      14      14      13      14      14      13      14      14
      13      14      14      13      14      14      13      14      14      13
      14      14      13      14      14      13      14      14      13      14
      14      13      14      14      13      14      14      13      14      14
      13      14      14      13      14      14      13      14      14      13
      14      14      13      14      14      13      14      14      13      14
      14      13      14      14      13      14      14      13      14      14
      13      14      14      13      14      14      13      14      14      13
      14      14      13      14      14      13      14      14      13      14
      14      13      14      14      13      14      14      13      14      14
      13      14      14      13      14      14      13      14      14      13
      14      14      13      14      14      13      14      14      13      14
      14      13      14      14      13      14      14      13      14      14
      13      14      14      13      14      14      13      14      14      13
      14      14      13      14      14      13      14      14      13      14
      14      13      14      14      13      14      14      13      14      14
      13      14      14      13      14      14      13      14      14      13
      14      14      13      14      14      13      14      14      13      14
      14      13      14      14      13      14      14      13      14      14
      13      14      14      13      14      14      13      14      14      13
      14      14      13      14      14      13      14      14      13      14
      14      13      14      14      13      14      14      13      14      14
      13      14      14      13      14      14      13      14      14      13
      14      14      13      14      14      13      14      14      13      14
      14      13      14      14      13      14      14      13      14      14
      13      14      14      13      14      14      13      14      14      13
      14      14      13      14      14      13      14      14      13      14
      14      13      14      14      13      14      14      13      14      14
      13      14      14      13      14      14      13      14      14      13
      14      14      13      14      14      13      14      14      13      14
      14      13      14      14      13      14      14      13      14      14
      13      14      14      13      14      14      13      14      14      13
      14      14      13      14      14      13      14      14      13      14
      14      13      14      14      13      14      14      13      14      14
      13      14      14      13      14      14      13      14      14      13
      14      14      13      14      14      13      14      14      13      14
      14      13      14      14      13      14      14      13      14      14
      13      14      14      13      14      14      13      14      14      13
      14      14      13      14      14      13      14      14      13      14
      14      13      14      14      13      14      14      13      14      14
      13      14      14      13      14      14      13      14      14      13
      14      14      13      14      14      13      14      14      13      14
      14      13      14      14      13      14      14      13      14      14
      13      14      14      13      14      14      13      14      14      13
      14      14      13      14      14      13      14      14      13      14
      14      13      14      14      13      14      14      13      14      14
      13      14      14      13      14      14      13      14      14      13
      14      14      13      14      14      13      14      14      13      14
      14      13      14      14      13      14      14      13      14      14
      13      14      14      13      14      14      13      14      14      13
      14      14      13      14      14      13      14      14      13      14
      14      13      14      14      13      14      14      13      14      14
      13      14      14      13      14      14      13      14      14      13
      14      14      13      14      14      13      14      14      13      14
      14      13      14      14      13      14      14      13      14      14
      13      14      14      13      14      14      13      14      14      13
      14      14      13      14      14      13      14      14      13      14
      14      13      14      14      13      14      14      13      14      14
      13      14      14      13      14      14      13      14      14      13
      14      14      13      14      14      13      14      14      13      14
      14      13      14      14      13      14      14      13      14      14
      13      14      14      13      14      14      13      14      14      13
      14      14      13      14      14      13      14      14      13      14
      14      13      14      14      13      14      14      13      14      14
      13      14      14      13      14      14      13      14      14      13
      14      14      13      14      14      13      14      14      13      14
      14      13      14      14      13      14      14      13      14      14
      13      14      14      13      14      14      13      14      14      13
      14      14      13      14      14      13      14      14      13      14
      14      13      14      14      13      14      14      13      14      14
      13      14      14      13      14      14      13      14      14      13
      14      14      13      14      14      13      14      14      13      14
      14      13      14      14      13      14      14      13      14      14
      13      14      14      13      14      14      13      14      14      13
      14      14      13      14      14      13      14      14      13      14
      14      13      14      14      13      14      14      13      14      14
      13      14      14      13      14      14      13      14      14      13
      14      14      13      14      14      13      14      14      13      14
      14      13      14      14      13      14      14      13      14      14
      13      14      14      13      14      14      13      14      14      13
      14      14      13      14      14      13      14      14      13      14
      14      13      14      14      13      14      14      13      14      14
      13      14      14      13      14      14      13      14      14      13
      14      14      13      14      14      13      14      14      13      14
      14      13      14      14      13      14      14      13      14      14
      13      14      14      13      14      14      13      14      14      13
      14      14      13      14      14      13      14      14      13      14
      14      13      14      14      13      14      14      13      14      14
      13      14      14      13      14      14      13      14      14      13
      14      14      13      14      14      13      14      14      13      14
      14      13      14      14      13      14      14      13      14      14
      13      14      14      13      14      14      13      14      14      13
      14      14      13      14      14      13      14      14      13      14
      14      13      14      14      13      14      14      13      14      14
      13      14      14      13      14      14      13      14      14      13
      14      14      13      14      14      13      14      14      13      14
      14      13      14      14      13      14      14      13      14      14
      13      14      14      13      14      14      13      14      14      13
      14      14      13      14      14      13      14      14      13      14
      14      13      14      14      13      14      14      13      14      14
      13      14      14      13      14      14      13      14      14      13
      14      14      13      14      14      13      14      14      13      14
      14      13      14      14      13      14      14      13      14      14
      13      14      14      13      14      14      13      14      14      13
      14      14      13      14      14      13      14      14      13      14
      14      13      14      14      13      14      14      13      14      14
      13      14      14      13      14      14      13      14      14      13
      14      14      13      14      14      13      14      14      13      14
      14      13      14      14      13      14      14      13      14      14
      13      14      14      13      14      14      13      14      14      13
      14      14      13      14      14      13      14      14      13      14
      14      13      14      14      13      14      14      13      14      14
      13      14      14      13      14      14      13      14      14      13
      14      14      13      14      14      13      14      14      13      14
      14      13      14      14      13      14      14      13      14      14
      13      14      14      13      14      14      13      14      14      13
      14      14      13      14      14      13      14      14      13      14
      14      13      14      14      13      14      14      13      14      14
      13      14      14      13      14      14      13      14      14      13
      14      14      13      14      14      13      14      14      13      14
      14      13      14      14      13      14      14      13      14      14
      13      14      14      13      14      14      13      14      14      13
      14      14      13      14      14      13      14      14      13      14
      14      13      14      14      13      14      14      13      14      14
      13      14      14      13      14      14      13      14      14      13
      14      14      13      14      14      13      14      14      13      14
      14      13      14      14      13      14      14      13      14      14
      13      14      14      13      14      14      13      14      14      13
      14      14      13      14      14      13      14      14      13      14
      14      13      14      14      13      14      14      13      14      14
      13      14      14      13      14      14      13      14      14      13
      14      14      13      14      14      13      14      14      13      14
      14      13      14      14      13      14      14      13      14      14
      13      14      14      13      14      14      13      14      14      13
      14      14      13      14      14      13      14      14      13      14
      14      13      14      14      13      14      14      13      14      14
      13      14      14      13      14      14      13      14      14      13
      14      14      13      14      14      13      14      14      13      14
      14      13      14      14      13      14      14      13      14      14
      13      14      14      13      14      14      13      14      14      13
      14      14      13      14      14      13      14      14      13      14
      14      13      14      14      13      14      14      13      14      14
      13      14      14      13      14      14      13      14      14      13
      14      14      13      14      14      13      14      14      13      14
      14      13      14      14      13      14      14      13      14      14
      13      14      14      13      14      14      13      14      14      13
      14      14      13      14      14      13      14      14      13      14
      14      13      14      14      13      14      14      13      14      14
      13      14      14      13      14      14      13      14      14      13
      14      14      13      14      14      13      14      14      13      14
      14      13      14      14      13      14      14      13      14      14
      13      14      14      13      14      14      13      14      14      13
      14      14      13      14      14      13      14      14      13      14
      14      13      14      14      13      14      14      13      14      14
      13      14      14      13      14      14      13      14      14      13
      14      14      13      14      14      13      14      14      13      14
      14      13      14      14      13      14      14      13      14      14
      13      14      14      13      14      14      13      14      14      13
      14      14      13      14      14      13      14      14      13      14
      14      13      14      14      13      14      14      13      14      14
      13      14      14      13      14      14      13      14      14      13
      14      14      13      14      14      13      14      14      13      14
      14      13      14      14      13      14      14      13      14      14
      13      14      14      13      14      14      13      14      14      13
      14      14      13      14      14      13      14      14      13      14
      14      13      14      14      13      14      14      13      14      14
      13      14      14      13      14      14      13      14      14      13
      14      14      13      14      14      13      14      14      13      14
      14      13      14      14      13      14      14      13      14      14
      13      14      14      13      14      14      13      14      14      13
      14      14      13      14      14      13      14      14      13      14
      14      13      14      14      13      14      14      13      14      14
      13      14      14      13      14      14      13      14      14      13
      14      14      13      14      14      13      14      14      13      14
      14      13      14      14      13      14      14      13      14      14
      13      14      14      13      14      14      13      14      14      13
      14      14      13      14      14      13      14      14      13      14
      14      13      14      14      13      14      14      13      14      14
      13      14      14      13      14      14      13      14      14      13
      14      14      13      14      14      13      14      14      13      14
      14      13      14      14      13      14      14      13      14      14
      13      14      14      13      14      14      13      14      14      13
      14      14      13      14      14      13      14      14      13      14
      14      13      14      14      13      14      14      13      14      14
      13      14      14      13      14      14      13      14      14      13
      14      14      13      14      14      13      14      14      13      14
      14      13      14      14      13      14      14      13      14      14
      13      14      14      13      14      14      13      14      14      13
      14      14      13      14      14      13      14      14      13      14
      14      13      14      14      13      14      14      13      14      14
      13      14      14      13      14      14      13      14      14      13
      14      14      13      14      14      13      14      14      13      14
      14      13      14      14      13      14      14      13      14      14
      13      14      14      13      14      14      13      14      14      13
      14      14      13      14      14      13      14      14      13      14
      14      13      14      14      13      14      14      13      14      14
      13      14      14      13      14      14      13      14      14      13
      14      14      13      14      14      13      14      14      13      14
      14      13      14      14      13      14      14      13      14      14
      13      14      14      13      14      14      13      14      14      13
      14      14      13      14      14      13      14      14      13      14
      14      13      14      14      13      14      14      13      14      14
      13      14      14      13      14      14      13      14      14      13
      14      14      13      14      14      13      14      14      13      14
      14      13      14      14      13      14      14      13      14      14
      13      14      14      13      14      14      13      14      14      13
      14      14      13      14      14      13      14      14      13      14
      14      13      14      14      13      14      14      13      14      14
      13      14      14      13      14      14      13      14      14      13
      14      14      13      14      14      13      14      14      13      14
      14      13      14      14      13      14      14      13      14      14
      13      14      14      13      14      14      13      14      14      13
      14      14      13      14      14      13      14      14      13      14
      14      13      14      14      13      14      14      13      14      14
      13      14      14      13      14      14      13      14      14      13
      14      14      13      14      14      13      14      14      13      14
      14      13      14      14      13      14      14      13      14      14
      13      14      14      13      14      14      13      14      14      13
      14      14      13      14      14      13      14      14      13      14
      14      13      14      14      13      14      14      13      14      14
      13      14      14      13      14      14      13      14      14      13
      14      14      13      14      14      13      14      14      13      14
      14      13      14      14      13      14      14      13      14      14
      13      14      14      13      14      14      13      14      14      13
      14      14      13      14      14      13      14      14      13      14
      14      13      14      14      13      14      14      13      14      14
      13      14      14      13      14      14      13      14      14      13
      14      14      13      14      14      13      14      14      13      14
      14      13      14      14      13      14      14      13      14      14
      13      14      14      13      14      14      13      14      14      13
      14      14      13      14      14      13      14      14      13      14
      14      13      14      14      13      14      14      13      14      14
      13      14      14      13      14      14      13      14      14      13
      14      14      13      14      14      13      14      14      13      14
      14      13      14      14      13      14      14      13      14      14
      13      14      14      13      14      14      13      14      14      13
      14      14      13      14      14      13      14      14      13      14
      14      13      14      14      13      14      14      13      14      14
      13      14      14      13      14      14      13      14      14      13
      14      14      13      14      14      13      14      14      13      14
      14      13      14      14      13      14      14      13      14      14
      13      14      14      13      14      14      13      14      14      13
      14      14      13      14      14      13      14      14      13      14
      14      13      14      14      13      14      14      13      14      14
      13      14      14      13      14      14      13      14      14      13
      14      14      13      14      14      13      14      14      13      14
      14      13      14      14      13      14      14      13      14      14
      13      14      14      13      14      14      13      14      14      13
      14      14      13      14      14      13      14      14      13      14
      14      13      14      14      13      14      14      13      14      14
      13      14      14      13      14      14      13      14      14      13
      14      14      13      14      14      13      14      14      13      14
      14      13      14      14      13      14      14      13      14      14
      13      14      14      13      14      14      13      14      14      13
      14      14      13      14      14      13      14      14      13      14
      14      13      14      14      13      14      14      13      14      14
      13      14      14      13      14      14      13      14      14      13
      14      14      13      14      14      13      14      14      13      14
      14      13      14      14      13      14      14      13      14      14
      13      14      14      13      14      14      13      14      14      13
      14      14      13      14      14      13      14      14      13      14
      14      13      14      14      13      14      14      13      14      14
      13      14      14      13      14      14      13      14      14      13
      14      14      13      14      14      13      14      14      13      14
      14      13      14      14      13      14      14      13      14      14
      13      14      14      13      14      14      13      14      14      13
      14      14      13      14      14      13      14      14      13      14
      14      13      14      14      13      14      14      13      14      14
      13      14      14      13      14      14      13      14      14      13
      14      14      13      14      14      13      14      14      13      14
      14      13      14      14      13      14      14      13      14      14
      13      14      14      13      14      14      13      14      14      13
      14      14      13      14      14      13      14      14      13      14
      14      13      14      14      13      14      14      13      14      14
      13      14      14      13      14      14      13      14      14      13
      14      14      13      14      14      13      14      14      13      14
      14      13      14      14      13      14      14      13      14      14
      13      14      14      13      14      14      13      14      14      13
      14      14      13      14      14      13      14      14      13      14
      14      13      14      14      13      14      14      13      14      14
      13      14      14      13      14      14      13      14      14      13
      14      14      13      14      14      13      14      14      13      14
      14      13      14      14      13      14      14      13      14      14
      13      14      14      13      14      14      13      14      14      13
      14      14      13      14      14      13      14      14      13      14
      14      13      14      14      13      14      14      13      14      14
      13      14      14      13      14      14      13      14      14      13
      14      14      13      14      14      13      14      14      13      14
      14      13      14      14      13      14      14      13      14      14
      13      14      14      13      14      14      13      14      14      13
      14      14      13      14      14      13      14      14      13      14
      14      13      14      14      13      14      14      13      14      14
      13      14      14      13      14      14      13      14      14      13
      14      14      13      14      14      13      14      14      13      14
      14      13      14      14      13      14      14      13      14      14
      13      14      14      13      14      14      13      14      14      13
      14      14      13      14      14      13      14      14      13      14
      14      13      14      14      13      14      14      13      14      14
      13      14      14      13      14      14      13      14      14      13
      14      14      13      14      14      13      14      14      13      14
      14      13      14      14      13      14      14      13      14      14
      13      14      14      13      14      14      13      14      14      13
      14      14      13      14      14      13      14      14      13      14
      14      13      14      14      13      14      14      13      14      14
      13      14      14      13      14      14      13      14      14      13
      14      14      13      14      14      13      14      14      13      14
      14      13      14      14      13      14      14      13      14      14
      13      14      14      13      14      14      13      14      14      13
      14      14      13      14      14      13      14      14      13      14
      14      13      14      14      13      14      14      13      14      14
      13      14      14      13      14      14      13      14      14      13
      14      14      13      14      14      13      14      14      13      14
      14      13      14      14      13      14      14      13      14      14
      13      14      14      13      14      14      13      14      14      13
      14      14      13      14      14      13      14      14      13      14
      14      13      14      14      13      14      14      13      14      14
      13      14      14      13      14      14      13      14      14      13
      14      14      13      14      14      13      14      14      13      14
      14      13      14      14      13      14      14      13      14      14
      13      14      14      13      14      14      13      14      14      13
      14      14      13      14      14      13      14      14      13      14
      14      13      14      14      13      14      14      13      14      14
      13      14      14      13      14      14      13      14      14      13
      14      14      13      14      14      13      14      14      13      14
      14      13      14      14      13      14      14      13      14      14
      13      14      14      13      14      14      13      14      14      13
      14      14      13      14      14      13      14      14      13      14
      14      13      14      14      13      14      14      13      14      14
      13      14      14      13      14      14      13      14      14      13
      14      14      13      14      14      13      14      14      13      14
      14      13      14      14      13      14      14      13      14      14
      13      14      14      13      14      14      13      14      14      13
      14      14      13      14      14      13      14      14      13      14
      14      13      14      14      13      14      14      13      14      14
      13      14      14      13      14      14      13      14      14      13
      14      14      13      14      14      13      14      14      13      14
      14      13      14      14      13      14      14      13      14      14
      13      14      14      13      14      14      13      14      14      13
      14      14      13      14      14      13      14      14      13      14
      14      13      14      14      13      14      14      13      14      14
      13      14      14      13      14      14      13      14      14      13
      14      14      13      14      14      13      14      14      13      14
      14      13      14      14      13      14      14      13      14      14
      13      14      14      13      14      14      13      14      14      13
      14      14      13      14      14      13      14      14      13      14
      14      13      14      14      13      14      14      13      14      14
      13      14      14      13      14      14      13      14      14      13
      14      14      13      14      14      13      14      14      13      14
      14      13      14      14      13      14      14      13      14      14
      13      14      14      13      14      14      13      14      14      13
      14      14      13      14      14      13      14      14      13      14
      14      13      14      14      13      14      14      13      14      14
      13      14      14      13      14      14      13      14      14      13
      14      14      13      14      14      13      14      14      13      14
      14      13      14      14      13      14      14      13      14      14
      13      14      14      13      14      14      13      14      14      13
      14      14      13      14      14      13      14      14      13      14
      14      13      14      14      13      14      14      13      14      14
      13      14      14      13      14      14      13      14      14      13
      14      14      13      14      14      13      14      14      13      14
      14      13      14      14      13      14      14      13      14      14
      13      14      14      13      14      14      13      14      14      13
      14      14      13      14      14      13      14      14      13      14
      14      13      14      14      13      14      14      13      14      14
      13      14      14      13      14      14      13      14      14      13
      14      14      13      14      14      13      14      14      13      14
      14      13      14      14      13      14      14      13      14      14
      13      14      14      13      14      14      13      14      14      13
      14      14      13      14      14      13      14      14      13      14
      14      13      14      14      13      14      14      13      14      14
      13      14      14      13      14      14      13      14      14      13
      14      14      13      14      14      13      14      14      13      14
      14      13      14      14      13      14      14      13      14      14
      13      14      14      13      14      14      13      14      14      13
      14      14      13      14      14      13      14      14      13      14
      14      13      14      14      13      14      14      13      14      14
      13      14      14      13      14      14      13      14      14      13
      14      14      13      14      14      13      14      14      13      14
      14      13      14      14      13      14      14      13      14      14
      13      14      14      13      14      14      13      14      14      13
      14      14      13      14      14      13      14      14      13      14
      14      13      14      14      13      14      14      13      14      14
      13      14      14      13      14      14      13      14      14      13
      14      14      13      14      14      13      14      14      13      14
      14      13      14      14      13      14      14      13      14      14
      13      14      14      13      14      14      13      14      14      13
      14      14      13      14      14      13      14      14      13      14
      14      13      14      14      13      14      14      13      14      14
      13      14      14      13      14      14      13      14      14      13
      14      14      13      14      14      13      14      14      13      14
      14      13      14      14      13      14      14      13      14      14
      13      14      14      13      14      14      13      14      14      13
      14      14      13      14      14      13      14      14      13      14
      14      13      14      14      13      14      14      13      14      14
      13      14      14      13      14      14      13      14      14      13
      14      14      13      14      14      13      14      14      13      14
      14      13      14      14      13      14      14      13      14      14
      13      14      14      13      14      14      13      14      14      13
      14      14      13      14      14      13      14      14      13      14
      14      13      14      14      13      14      14      13      14      14
      13      14      14      13      14      14      13      14      14      13
      14      14      13      14      14      13      14      14      13      14
      14      13      14      14      13      14      14      13      14      14
      13      14      14      13      14      14      13      14      14      13
      14      14      13      14      14      13      14      14      13      14
      14      13      14      14      13      14      14      13      14      14
      13      14      14      13      14      14      13      14      14      13
      14      14      13      14      14      13      14      14      13      14
      14      13      14      14      13      14      14      13      14      14
      13      14      14      13      14      14      13      14      14      13
      14      14      13      14      14      13      14      14      13      14
      14      13      14      14      13      14      14      13      14      14
      13      14      14      13      14      14      13      14      14      13
      14      14      13      14      14      13      14      14      13      14
      14      13      14      14      13      14      14      13      14      14
      13      14      14      13      14      14      13      14      14      13
      14      14      13      14      14      13      14      14      13      14
      14      13      14      14      13      14      14      13      14      14
      13      14      14      13      14      14      13      14      14      13
      14      14      13      14      14      13      14      14      13      14
      14      13      14      14      13      14      14      13      14      14
      13      14      14      13      14      14      13      14      14      13
      14      14      13      14      14      13      14      14      13      14
      14      13      14      14      13      14      14      13      14      14
      13      14      14      13      14      14      13      14      14      13
      14      14      13      14      14      13      14      14      13      14
      14      13      14      14      13      14      14      13      14      14
      13      14      14      13      14      14      13      14      14      13
      14      14      13      14      14      13      14      14      13      14
      14      13      14      14      13      14      14      13      14      14
      13      14      14      13      14      14      13      14      14      13
      14      14      13      14      14      13      14      14      13      14
      14      13      14      14      13      14      14      13      14      14
      13      14      14      13      14      14      13      14      14      13
      14      14      13      14      14      13      14      14      13      14
      14      13      14      14      13      14      14      13      14      14
      13      14      14      13      14      14      13      14      14      13
      14      14      13      14      14      13      14      14      13      14
      14      13      14      14      13      14      14      13      14      14
      13      14      14      13      14      14      13      14      14      13
      14      14      13      14      14      13      14      14      13      14
      14      13      14      14      13      14      14      13      14      14
      13      14      14      13      14      14      13      14      14      13
      14      14      13      14      14      13      14      14      13      14
      14      13      14      14      13      14      14      13      14      14
      13      14      14      13      14      14      13      14      14      13
      14      14      13      14      14      13      14      14      13      14
      14      13      14      14      13      14      14      13      14      14
      13      14      14      13      14      14      13      14      14      13
      14      14      13      14      14      13      14      14      13      14
      14      13      14      14      13      14      14      13      14      14
      13      14      14      13      14      14      13      14      14      13
      14      14      13      14      14      13      14      14      13      14
      14      13      14      14      13      14      14      13      14      14
      13      14      14      13      14      14      13      14      14      13
      14      14      13      14      14      13      14      14      13      14
      14      13      14      14      13      14      14      13      14      14
      13      14      14      13      14      14      13      14      14      13
      14      14      13      14      14      13      14      14      13      14
      14      13      14      14      13      14      14      13      14      14
      13      14      14      13      14      14      13      14      14      13
      14      14      13      14      14      13      14      14      13      14
      14      13      14      14      13      14      14      13      14      14
      13      14      14      13      14      14      13      14      14      13
      14      14      13      14      14      13      14      14      13      14
      14      13      14      14      13      14      14      13      14      14
      13      14      14      13      14      14      13      14      14      13
      14      14      13      14      14      13      14      14      13      14
      14      13      14      14      13      14      14      13      14      14
      13      14      14      13      14      14      13      14      14      13
      14      14      13      14      14      13      14      14      13      14
      14      13      14      14      13      14      14      13      14      14
      13      14      14      13      14      14      13      14      14      13
      14      14      13      14      14      13      14      14      13      14
      14      13      14      14      13      14      14      13      14      14
      13      14      14      13      14      14      13      14      14      13
      14      14      13      14      14      13      14      14      13      14
      14      13      14      14      13      14      14      13      14      14
      13      14      14      13      14      14      13      14      14      13
      14      14      13      14      14      13      14      14      13      14
      14      13      14      14      13      14      14      13      14      14
      13      14      14      13      14      14      13      14      14      13
      14      14      13      14      14      13      14      14      13      14
      14      13      14      14      13      14      14      13      14      14
      13      14      14      13      14      14      13      14      14      13
      14      14      13      14      14      13      14      14      13      14
      14      13      14      14      13      14      14      13      14      14
      13      14      14      13      14      14      13      14      14      13
      14      14      13      14      14      13      14      14      13      14
      14      13      14      14      13      14      14      13      14      14
      13      14      14      13      14      14      13      14      14      13
      14      14      13      14      14      13      14      14      13      14
      14      13      14      14      13      14      14      13      14      14
      13      14      14      13      14      14      13      14      14      13
      14      14      13      14      14      13      14      14      13      14
      14      13      14      14      13      14      14      13      14      14
      13      14      14      13      14      14      13      14      14      13
      14      14      13      14      14      13      14      14      13      14
      14      13      14      14      13      14      14      13      14      14
      13      14      14      13      14      14      13      14      14      13
      14      14      13      14      14      13      14      14      13      14
      14      13      14      14      13      14      14      13      14      14
      13      14      14      13      14      14      13      14      14      13
      14      14      13      14      14      13      14      14      13      14
      14      13      14      14      13      14      14      13      14      14
      13      14      14      13      14      14      13      14      14      13
      14      14      13      14      14      13      14      14      13      14
      14      13      14      14      13      14      14      13      14      14
      13      14      14      13      14      14      13      14      14      13
      14      14      13      14      14      13      14      14      13      14
      14      13      14      14      13      14      14      13      14      14
      13      14      14      13      14      14      13      14      14      13
      14      14      13      14      14      13      14      14      13      14
      14      13      14      14      13      14      14      13      14      14
      13      14      14      13      14      14      13      14      14      13
      14      14      13      14      14      13      14      14      13      14
      14      13      14      14      13      14      14      13      14      14
      13      14      14      13      14      14      13      14      14      13
      14      14      13      14      14      13      14      14      13      14
      14      13      14      14      13      14      14      13      14      14
      13      14      14      13      14      14      13      14      14      13
      14      14      13      14      14      13      14      14      13      14
      14      13      14      14      13      14      14      13      14      14
      13      14      14      13      14      14      13      14      14      13
      14      14      13      14      14      13      14      14      13      14
      14      13      14      14      13      14      14      13      14      14
      13      14      14      13      14      14      13      14      14      13
      14      14      13      14      14      13      14      14      13      14
      14      13      14      14      13      14      14      13      14      14
      13      14      14      13      14      14      13      14      14      13
      14      14      13      14      14      13      14      14      13      14
      14      13      14      14      13      14      14      13      14      14
      13      14      14      13      14      14      13      14      14      13
      14      14      13      14      14      13      14      14      13      14
      14      13      14      14      13      14      14      13      14      14
      13      14      14      13      14      14      13      14      14      13
      14      14      13      14      14      13      14      14      13      14
      14      13      14      14      13      14      14      13      14      14
      13      14      14      13      14      14      13      14      14      13
      14      14      13      14      14      13      14      14      13      14
      14      13      14      14      13      14      14      13      14      14
      13      14      14      13      14      14      13      14      14      13
      14      14      13      14      14      13      14      14      13      14
      14      13      14      14      13      14      14      13      14      14
      13      14      14      13      14      14      13      14      14      13
      14      14      13      14      14      13      14      14      13      14
      14      13      14      14      13      14      14      13      14      14
      13      14      14      13      14      14      13      14      14      13
      14      14      13      14      14      13      14      14      13      14
      14      13      14      14      13      14      14      13      14      14
      13      14      14      13      14      14      13      14      14      13
      14      14      13      14      14      13      14      14      13      14
      14      13      14      14      13      14      14      13      14      14
      13      14      14      13      14      14      13      14      14      13
      14      14      13      14      14      13      14      14      13      14
      14      13      14      14      13      14      14      13      14      14
      13      14      14      13      14      14      13      14      14      13
      14      14      13      14      14      13      14      14      13      14
      14      13      14      14      13      14      14      13      14      14
      13      14      14      13      14      14      13      14      14      13
      14      14      13      14      14      13      14      14      13      14
      14      13      14      14      13      14      14      13      14      14
      13      14      14      13      14      14      13      14      14      13
      14      14      13      14      14      13      14      14      13      14
      14      13      14      14      13      14      14      13      14      14
      13      14      14      13      14      14      13      14      14      13
      14      14      13      14      14      13      14      14      13      14
      14      13      14      14      13      14      14      13      14      14
      13      14      14      13      14      14      13      14      14      13
      14      14      13      14      14      13      14      14      13      14
      14      13      14      14      13      14      14      13      14      14
      13      14      14      13      14      14      13      14      14      13
      14      14      13      14      14      13      14      14      13      14
      14      13      14      14      13      14      14      13      14      14
      13      14      14      13      14      14      13      14      14      13
      14      14      13      14      14      13      14      14      13      14
      14      13      14      14      13      14      14      13      14      14
      13      14      14      13      14      14      13      14      14      13
      14      14      13      14      14      13      14      14      13      14
      14      13      14      14      13      14      14      13      14      14
      13      14      14      13      14      14      13      14      14      13
      14      14      13      14      14      13      14      14      13      14
      14      13      14      14      13      14      14      13      14      14
      13      14      14      13      14      14      13      14      14      13
      14      14      13      14      14      13      14      14      13      14
      14      13      14      14      13      14      14      13      14      14
      13      14      14      13      14      14      13      14      14      13
      14      14      13      14      14      13      14      14      13      14
      14      13      14      14      13      14      14      13      14      14
      13      14      14      13      14      14      13      14      14      13
      14      14      13      14      14      13      14      14      13      14
      14      13      14      14      13      14      14      13      14      14
      13      14      14      13      14      14      13      14      14      13
      14      14      13      14      14      13      14      14      13      14
      14      13      14      14      13      14      14      13      14      14
      13      14      14      13      14      14      13      14      14      13
      14      14      13      14      14      13      14      14      13      14
      14      13      14      14      13      14      14      13      14      14
      13      14      14      13      14      14      13      14      14      13
      14      14      13      14      14      13      14      14      13      14
      14      13      14      14      13      14      14      13      14      14
      13      14      14      13      14      14      13      14      14      13
      14      14      13      14      14      13      14      14      13      14
      14      13      14      14      13      14      14      13      14      14
      13      14      14      13      14      14      13      14      14      13
      14      14      13      14      14      13      14      14      13      14
      14      13      14      14      13      14      14      13      14      14
      13      14      14      13      14      14      13      14      14      13
      14      14      13      14      14      13      14      14      13      14
      14      13      14      14      13      14      14      13      14      14
      13      14      14      13      14      14      13      14      14      13
      14      14      13      14      14      13      14      14      13      14
      14      13      14      14      13      14      14      13      14      14
      13      14      14      13      14      14      13      14      14      13
      14      14      13      14      14      13      14      14      13      14
      14      13      14      14      13      14      14      13      14      14
      13      14      14      13      14      14      13      14      14      13
      14      14      13      14      14      13      14      14      13      14
      14      13      14      14      13      14      14      13      14      14
      13      14      14      13      14      14      13      14      14      13
      14      14      13      14      14      13      14      14      13      14
      14      13      14      14      13      14      14      13      14      14
      13      14      14      13      14      14      13      14      14      13
      14      14      13      14      14      13      14      14      13      14
      14      13      14      14      13      14      14      13      14      14
      13      14      14      13      14      14      13      14      14      13
      14      14      13      14      14      13      14      14      13      14
      14      13      14      14      13      14      14      13      14      14
      13      14      14      13      14      14      13      14      14      13
      14      14      13      14      14      13      14      14      13      14
      14      13      14      14      13      14      14      13      14      14
      13      14      14      13      14      14      13      14      14      13
      14      14      13      14      14      13      14      14      13      14
      14      13      14      14      13      14      14      13      14      14
      13      14      14      13      14      14      13      14      14      13
      14      14      13      14      14      13      14      14      13      14
      14      13      14      14      13      14      14      13      14      14
      13      14      14      13      14      14      13      14      14      13
      14      14      13      14      14      13      14      14      13      14
      14      13      14      14      13      14      14      13      14      14
      13      14      14      13      14      14      13      14      14      13
      14      14      13      14      14      13      14      14      13      14
      14      13      14      14      13      14      14      13      14      14
      13      14      14      13      14      14      13      14      14      13
      14      14      13      14      14      13      14      14      13      14
      14      13      14      14      13      14      14      13      14      14
      13      14      14      13      14      14      13      14      14      13
      14      14      13      14      14      13      14      14      13      14
      14      13      14      14      13      14      14      13      14      14
      13      14      14      13      14      14      13      14      14      13
      14      14      13      14      14      13      14      14      13      14
      14      13      14      14      13      14      14      13      14      14
      13      14      14      13      14      14      13      14      14      13
      14      14      13      14      14      13      14      14      13      14
      14      13      14      14      13      14      14      13      14      14
      13      14      14      13      14      14      13      14      14      13
      14      14      13      14      14      13      14      14      13      14
      14      13      14      14      13      14      14      13      14      14
      13      14      14      13      14      14      13      14      14      13
      14      14      13      14      14      13      14      14      13      14
      14      13      14      14      13      14      14      13      14      14
      13      14      14      13      14      14      13      14      14      13
      14      14      13      14      14      13      14      14      13      14
      14      13      14      14      13      14      14      13      14      14
      13      14      14      13      14      14      13      14      14      13
      14      14      13      14      14      13      14      14      13      14
      14      13      14      14      13      14      14      13      14      14
      13      14      14      13      14      14      13      14      14      13
      14      14      13      14      14      13      14      14      13      14
      14      13      14      14      13      14      14      13      14      14
      13      14      14      13      14      14      13      14      14      13
      14      14      13      14      14      13      14      14      13      14
      14      13      14      14      13      14      14      13      14      14
      13      14      14      13      14      14      13      14      14      13
      14      14      13      14      14      13      14      14      13      14
      14      13      14      14      13      14      14      13      14      14
      13      14      14      13      14      14      13      14      14      13
      14      14      13      14      14      13      14      14      13      14
      14      13      14      14      13      14      14      13      14      14
      13      14      14      13      14      14      13      14      14      13
      14      14      13      14      14      13      14      14      13      14
      14      13      14      14      13      14      14      13      14      14
      13      14      14      13      14      14      13      14      14      13
      14      14      13      14      14      13      14      14      13      14
      14      13      14      14      13      14      14      13      14      14
      13      14      14      13      14      14      13      14      14      13
      14      14      13      14      14      13      14      14      13      14
      14      13      14      14      13      14      14      13      14      14
      13      14      14      13      14      14      13      14      14      13
      14      14      13      14      14      13      14      14      13      14
      14      13      14      14      13      14      14      13      14      14
      13      14      14      13      14      14      13      14      14      13
      14      14      13      14      14      13      14      14      13      14
      14      13      14      14      13      14      14      13      14      14
      13      14      14      13      14      14      13      14      14      13
      14      14      13      14      14      13      14      14      13      14
      14      13      14      14      13      14      14      13      14      14
      13      14      14      13      14      14      13      14      14      13
      14      14      13      14      14      13      14      14      13      14
      14      13      14      14      13      14      14      13      14      14
      13      14      14      13      14      14      13      14      14      13
      14      14      13      14      14      13      14      14      13      14
      14      13      14      14      13      14      14      13      14      14
      13      14      14      13      14      14      13      14      14      13
      14      14      13      14      14      13      14      14      13      14
      14      13      14      14      13      14      14      13      14      14
      13      14      14      13      14      14      13      14      14      13
      14      14      13      14      14      13      14      14      13      14
      14      13      14      14      13      14      14      13      14      14
      13      14      14      13      14      14      13      14      14      13
      14      14      13      14      14      13      14      14      13      14
      14      13      14      14      13      14      14      13      14      14
      13      14      14      13      14      14      13      14      14      13
      14      14      13      14      14      13      14      14      13      14
      14      13      14      14      13      14      14      13      14      14
      13      14      14      13      14      14      13      14      14      13
      14      14      13      14      14      13      14      14      13      14
      14      13      14      14      13      14      14      13      14      14
      13      14      14      13      14      14      13      14      14      13
      14      14      13      14      14      13      14      14      13      14
      14      13      14      14      13      14      14      13      14      14
      13      14      14      13      14      14      13      14      14      13
      14      14      13      14      14      13      14      14      13      14
      14      13      14      14      13      14      14      13      14      14
      13      14      14      13      14      14      13      14      14      13
      14      14      13      14      14      13      14      14      13      14
      14      13      14      14      13      14      14      13      14      14
      13      14      14      13      14      14      13      14      14      13
      14      14      13      14      14      13      14      14      13      14
      14      13      14      14      13      14      14      13      14      14
      13      14      14      13      14      14      13      14      14      13
      14      14      13      14      14      13      14      14      13      14
      14      13      14      14      13      14      14      13      14      14
      13      14      14      13      14      14      13      14      14      13
      14      14      13      14      14      13      14      14      13      14
      14      13      14      14      13      14      14      13      14      14
      13      14      14      13      14      14      13      14      14      13
      14      14      13      14      14      13      14      14      13      14
      14      13      14      14      13      14      14      13      14      14
      13      14      14      13      14      14      13      14      14      13
      14      14      13      14      14      13      14      14      13      14
      14      13      14      14      13      14      14      13      14      14
      13      14      14      13      14      14      13      14      14      13
      14      14      13      14      14      13      14      14      13      14
      14      13      14      14      13      14      14      13      14      14
      13      14      14      13      14      14      13      14      14      13
      14      14      13      14      14      13      14      14      13      14
      14      13      14      14      13      14      14      13      14      14
      13      14      14      13      14      14      13      14      14      13
      14      14      13      14      14      13      14      14      13      14
      14      13      14      14      13      14      14      13      14      14
      13      14      14      13      14      14      13      14      14      13
      14      14      13      14      14      13      14      14      13      14
      14      13      14      14      13      14      14      13      14      14
      13      14      14      13      14      14      13      14      14      13
      14      14      13      14      14      13      14      14      13      14
      14      13      14      14      13      14      14      13      14      14
      13      14      14      13      14      14      13      14      14      13
      14      14      13      14      14      13      14      14      13      14
      14      13      14      14      13      14      14      13      14      14
      13      14      14      13      14      14      13      14      14      13
      14      14      13      14      14      13      14      14      13      14
      14      13      14      14      13      14      14      13      14      14
      13      14      14      13      14      14      13      14      14      13
      14      14      13      14      14      13      14      14      13      14
      14      13      14      14      13      14      14      13      14      14
      13      14      14      13      14      14      13      14      14      13
      14      14      13      14      14      13      14      14      13      14
      14      13      14      14      13      14      14      13      14      14
      13      14      14      13      14      14      13      14      14      13
      14      14      13      14      14      13      14      14      13      14
      14      13      14      14      13      14      14      13      14      14
      13      14      14      13      14      14      13      14      14      13
      14      14      13      14      14      13      14      14      13      14
      14      13      14      14      13      14      14      13      14      14
      13      14      14      13      14      14      13      14      14      13
      14      14      13      14      14      13      14      14      13      14
      14      13      14      14      13      14      14      13      14      14
      13      14      14      13      14      14      13      14      14      13
      14      14      13      14      14      13      14      14      13      14
      14      13      14      14      13      14      14      13      14      14
      13      14      14      13      14      14      13      14      14      13
      14      14      13      14      14      13      14      14      13      14
      14      13      14      14      13      14      14      13      14      14
      13      14      14      13      14      14      13      14      14      13
      14      14      13      14      14      13      14      14      13      14
      14      13      14      14      13      14      14      13      14      14
      13      14      14      13      14      14      13      14      14      13
      14      14      13      14      14      13      14      14      13      14
      14      13      14      14      13      14      14      13      14      14
      13      14      14      13      14      14      13      14      14      13
      14      14      13      14      14      13      14      14      13      14
      14      13      14      14      13      14      14      13      14      14
      13      14      14      13      14      14      13      14      14      13
      14      14      13      14      14      13      14      14      13      14
      14      13      14      14      13      14      14      13      14      14
      13      14      14      13      14      14      13      14      14      13
      14      14      13      14      14      13      14      14      13      14
      14      13      14      14      13      14      14      13      14      14
      13      14      14      13      14      14      13      14      14      13
      14      14      13      14      14      13      14      14      13      14
      14      13      14      14      13      14      14      13      14      14
      13      14      14      13      14      14      13      14      14      13
      14      14      13      14      14      13      14      14      13      14
      14      13      14      14      13      14      14      13      14      14
      13      14      14      13      14      14      13      14      14      13
      14      14      13      14      14      13      14      14      13      14
      14      13      14      14      13      14      14      13      14      14
      13      14      14      13      14      14      13      14      14      13
      14      14      13      14      14      13      14      14      13      14
      14      13      14      14      13      14      14      13      14      14
      13      14      14      13      14      14      13      14      14      13
      14      14      13      14      14      13      14      14      13      14
      14      13      14      14      13      14      14      13      14      14
      13      14      14      13      14      14      13      14      14      13
      14      14      13      14      14      13      14      14      13      14
      14      13      14      14      13      14      14      13      14      14
      13      14      14      13      14      14      13      14      14      13
      14      14      13      14      14      13      14      14      13      14
      14      13      14      14      13      14      14      13      14      14
      13      14      14      13      14      14      13      14      14      13
      14      14      13      14      14      13      14      14      13      14
      14      13      14      14      13      14      14      13      14      14
      13      14      14      13      14      14      13      14      14      13
      14      14      13      14      14      13      14      14      13      14
      14      13      14      14      13      14      14      13      14      14
      13      14      14      13      14      14      13      14      14      13
      14      14      13      14      14      13      14      14      13      14
      14      13      14      14      13      14      14      13      14      14
      13      14      14      13      14      14      13      14      14      13
      14      14      13      14      14      13      14      14      13      14
      14      13      14      14      13      14      14      13      14      14
      13      14      14      13      14      14      13      14      14      13
      14      14      13      14      14      13      14      14      13      14
      14      13      14      14      13      14      14      13      14      14
      13      14      14      13      14      14      13      14      14      13
      14      14      13      14      14      13      14      14      13      14
      14      13      14      14      13      14      14      13      14      14
      13      14      14      13      14      14      13      14      14      13
      14      14      13      14      14      13      14      14      13      14
      14      13      14      14      13      14      14      13      14      14
      13      14      14      13      14      14      13      14      14      13
      14      14      13      14      14      13      14      14      13      14
      14      13      14      14      13      14      14      13      14      14
      13      14      14      13      14      14      13      14      14      13
      14      14      13      14      14      13      14      14      13      14
      14      13      14      14      13      14      14      13      14      14
      13      14      14      13      14      14      13      14      14      13
      14      14      13      14      14      13      14      14      13      14
      14      13      14      14      13      14      14      13      14      14
      13      14      14      13      14      14      13      14      14      13
      14      14      13      14      14      13      14      14      13      14
      14      13      14      14      13      14      14      13      14      14
      13      14      14      13      14      14      13      14      14      13
      14      14      13      14      14      13      14      14      13      14
      14      13      14      14      13      14      14      13      14      14
      13      14      14      13      14      14      13      14      14      13
      14      14      13      14      14      13      14      14      13      14
      14      13      14      14      13      14      14      13      14      14
      13      14      14      13      14      14      13      14      14      13
      14      14      13      14      14      13      14      14      13      14
      14      13      14      14      13      14      14      13      14      14
      13      14      14      13      14      14      13      14      14      13
      14      14      13      14      14      13      14      14      13      14
      14      13      14      14      13      14      14      13      14      14
      13      14      14      13      14      14      13      14      14
%FLAG NUMBER_EXCLUDED_ATOMS                                                     
%FORMAT(10I8)                                                                   
      10      11      13       9       9      12       9       7       9       9
       8       7       7       6       5       4       2       1       1       1
       1       1       1       1       1       1       8       4       3       8
      16      18       9      15      13       8      11      12      10       4
       9      11      12      11      11      14      18      15       8      14
       8       5      11       9       5       7       4       4       1       3
       1       2       1       2       3       3       2       3       2       3
       2       1       1       2       2       1       2       2       1       1
       2       1       1       1       8      16      18       9      15      13
       8      11      12      10       4       9      11      12      11      11
      14      18      15       8      14       8       5      11       9       5
       7       4       4       1       3       1       2       1       2       3
       3       2       3       2       3       2       1       1       2       2
       1       2       2       1       1       2       1       1       1       8
      16      18       9      15      13       8      11      12      10       4
       9      11      12      11      11      14      18      15       8      14
       8       5      11       9       5       7       4       4       1       3
       1       2       1       2       3       3       2       3       2       3
       2       1       1       2       2       1       2       2       1       1
       2       1       1       1       8      16      18       9      15      13
       8      11      12      10       4       9      11      12      11      11
      14      18      15       8      14       8       5      11       9       5
       7       4       4       1       3       1       2       1       2       3
       3       2       3       2       3       2       1       1       2       2
       1       2       2       1       1       2       1       1       1       8
      16      18       9      15      13       8      11      12      10       4
       9      11      12      11      11      14      18      15       8      14
       8       5      11       9       5       7       4       4       1       3
       1       2       1       2       3       3       2       3       2       3
       2       1       1       2       2       1       2       2       1       1
       2       1       1       1       8      16      18       9      15      13
       8      11      12      10       4       9      11      12      11      11
      14      18      15       8      14       8       5      11       9       5
       7       4       4       1       3       1       2       1       2       3
       3       2       3       2       3       2       1       1       2       2
       1       2       2       1       1       2       1       1       1       8
      16      18       9      15      13       8      11      12      10       4
       9      11      12      11      11      14      18      15       8      14
       8       5      11       9       5       7       4       4       1       3
       1       2       1       2       3       3       2       3       2       3
       2       1       1       2       2       1       2       2       1       1
       2       1       1       1       8      16      18       9      15      13
       8      11      12      10       4       9      11      12      11      11
      14      18      15       8      14       8       5      11       9       5
       7       4       4       1       3       1       2       1       2       3
       3       2       3       2       3       2       1       1       2       2
       1       2       2       1       1       2       1       1       1       8
      16      18       9      15      13       8      11      12      10       4
       9      11      12      11      11      14      18      15       8      14
       8       5      11       9       5       7       4       4       1       3
       1       2       1       2       3       3       2       3       2       3
       2       1       1       2       2       1       2       2       1       1
       2       1       1       1       8      16      18       9      15      13
       8      11      12       7       4       9      11      12      11      11
      14      18      15       8      14       8       5      11       9       5
       7       4       4       1       3       1       2       1       2       3
       3       2       3       2       3       2       1       1       2       2
       1       2       2       1       1       2       1       1       1       2
       1       1       8       4       3       8      16      18       9      15
      13       8      11      12      10       4       9      11      12      11
      11      14      18      15       8      14       8       5      11       9
       5       7       4       4       1       3       1       2       1       2
       3       3       2       3       2       3       2       1       1       2
       2       1       2       2       1       1       2       1       1       1
       8      16      18       9      15      13       8      11      12      10
       4       9      11      12      11      11      14      18      15       8
      14       8       5      11       9       5       7       4       4       1
       3       1       2       1       2       3       3       2       3       2
       3       2       1       1       2       2       1       2       2       1
       1       2       1       1       1       8      16      18       9      15
      13       8      11      12      10       4       9      11      12      11
      11      14      18      15       8      14       8       5      11       9
       5       7       4       4       1       3       1       2       1       2
       3       3       2       3       2       3       2       1       1       2
       2       1       2       2       1       1       2       1       1       1
       8      16      18       9      15      13       8      11      12      10
       4       9      11      12      11      11      14      18      15       8
      14       8       5      11       9       5       7       4       4       1
       3       1       2       1       2       3       3       2       3       2
       3       2       1       1       2       2       1       2       2       1
       1       2       1       1       1       8      16      18       9      15
      13       8      11      12      10       4       9      11      12      11
      11      14      18      15       8      14       8       5      11       9
       5       7       4       4       1       3       1       2       1       2
       3       3       2       3       2       3       2       1       1       2
       2       1       2       2       1       1       2       1       1       1
       8      16      18       9      15      13       8      11      12      10
       4       9      11      12      11      11      14      18      15       8
      14       8       5      11       9       5       7       4       4       1
       3       1       2       1       2       3       3       2       3       2
       3       2       1       1       2       2       1       2       2       1
       1       2       1       1       1       8      16      18       9      15
      13       8      11      12      10       4       9      11      12      11
      11      14      18      15       8      14       8       5      11       9
       5       7       4       4       1       3       1       2       1       2
       3       3       2       3       2       3       2       1       1       2
       2       1       2       2       1       1       2       1       1       1
       8      16      18       9      15      13       8      11      12      10
       4       9      11      12      11      11      14      18      15       8
      14       8       5      11       9       5       7       4       4       1
       3       1       2       1       2       3       3       2       3       2
       3       2       1       1       2       2       1       2       2       1
       1       2       1       1       1       8      16      18       9      15
      13       8      11      12      10       4       9      11      12      11
      11      14      18      15       8      14       8       5      11       9
       5       7       4       4       1       3       1       2       1       2
       3       3       2       3       2       3       2       1       1       2
       2       1       2       2       1       1       2       1       1       1
       8      16      18       9      15      13       8      11      12       7
       4       9      11      12      11      11      14      18      15       8
      14       8       5      11       9       5       7       4       4       1
       3       1       2       1       2       3       3       2       3       2
       3       2       1       1       2       2       1       2       2       1
       1       2       1       1       1       2       1       1       2       1
       1       2       1       1       2       1       1       2       1       1
       2       1       1       2       1       1       2       1       1       2
       1       1       2       1       1       2       1       1       2       1
       1       2       1       1       2       1       1       2       1       1
       2       1       1       2       1       1       2       1       1       2
       1       1       2       1       1       2       1       1       2       1
       1       2       1       1       2       1       1       2       1       1
       2       1       1       2       1       1       2       1       1       2
       1       1       2       1       1       2       1       1       2       1
       1       2       1       1       2       1       1       2       1       1
       2       1       1       2       1       1       2       1       1       2
       1       1       2       1       1       2       1       1       2       1
       1       2       1       1       2       1       1       2       1       1
       2       1       1       2       1       1       2       1       1       2
       1       1       2       1       1       2       1       1       2       1
       1       2       1       1       2       1       1       2       1       1
       2       1       1       2       1       1       2       1       1       2
       1       1       2       1       1       2       1       1       2       1
       1       2       1       1       2       1       1       2       1       1
       2       1       1       2       1       1       2       1       1       2
       1       1       2       1       1       2       1       1       2       1
       1       2       1       1       2       1       1       2       1       1
       2       1       1       2       1       1       2       1       1       2
       1       1       2       1       1       2       1       1       2       1
       1       2       1       1       2       1       1       2       1       1
       2       1       1       2       1       1       2       1       1       2
       1       1       2       1       1       2       1       1       2       1
       1       2       1       1       2       1       1       2       1       1
       2       1       1       2       1       1       2       1       1       2
       1       1       2       1       1       2       1       1       2       1
       1       2       1       1       2       1       1       2       1       1
       2       1       1       2       1       1       2       1       1       2
       1       1       2       1       1       2       1       1       2       1
       1       2       1       1       2       1       1       2       1       1
       2       1       1       2       1       1       2       1       1       2
       1       1       2       1       1       2       1       1       2       1
       1       2       1       1       2       1       1       2       1       1
       2       1       1       2       1       1       2       1       1       2
       1       1       2       1       1       2       1       1       2       1
       1       2       1       1       2       1       1       2       1       1
       2       1       1       2       1       1       2       1       1       2
       1       1       2       1       1       2       1       1       2       1
       1       2       1       1       2       1       1       2       1       1
       2       1       1       2       1       1       2       1       1       2
       1       1       2       1       1       2       1       1       2       1
       1       2       1       1       2       1       1       2       1       1
       2       1       1       2       1       1       2       1       1       2
       1       1       2       1       1       2       1       1       2       1
       1       2       1       1       2       1       1       2       1       1
       2       1       1       2       1       1       2       1       1       2
       1       1       2       1       1       2       1       1       2       1
       1       2       1       1       2       1       1       2       1       1
       2       1       1       2       1       1       2       1       1       2
       1       1       2       1       1       2       1       1       2       1
       1       2       1       1       2       1       1       2       1       1
       2       1       1       2       1       1       2       1       1       2
       1       1       2       1       1       2       1       1       2       1
       1       2       1       1       2       1       1       2       1       1
       2       1       1       2       1       1       2       1       1       2
       1       1       2       1       1       2       1       1       2       1
       1       2       1       1       2       1       1       2       1       1
       2       1       1       2       1       1       2       1       1       2
       1       1       2       1       1       2       1       1       2       1
       1       2       1       1       2       1       1       2       1       1
       2       1       1       2       1       1       2       1       1       2
       1       1       2       1       1       2       1       1       2       1
       1       2       1       1       2       1       1       2       1       1
       2       1       1       2       1       1       2       1       1       2
       1       1       2       1       1       2       1       1       2       1
       1       2       1       1       2       1       1       2       1       1
       2       1       1       2       1       1       2       1       1       2
       1       1       2       1       1       2       1       1       2       1
       1       2       1       1       2       1       1       2       1       1
       2       1       1       2       1       1       2       1       1       2
       1       1       2       1       1       2       1       1       2       1
       1       2       1       1       2       1       1       2       1       1
       2       1       1       2       1       1       2       1       1       2
       1       1       2       1       1       2       1       1       2       1
       1       2       1       1       2       1       1       2       1       1
       2       1       1       2       1       1       2       1       1       2
       1       1       2       1       1       2       1       1       2       1
       1       2       1       1       2       1       1       2       1       1
       2       1       1       2       1       1       2       1       1       2
       1       1       2       1       1       2       1       1       2       1
       1       2       1       1       2       1       1       2       1       1
       2       1       1       2       1       1       2       1       1       2
       1       1       2       1       1       2       1       1       2       1
       1       2       1       1       2       1       1       2       1       1
       2       1       1       2       1       1       2       1       1       2
       1       1       2       1       1       2       1       1       2       1
       1       2       1       1       2       1       1       2       1       1
       2       1       1       2       1       1       2       1       1       2
       1       1       2       1       1       2       1       1       2       1
       1       2       1       1       2       1       1       2       1       1
       2       1       1       2       1       1       2       1       1       2
       1       1       2       1       1       2       1       1       2       1
       1       2       1       1       2       1       1       2       1       1
       2       1       1       2       1       1       2       1       1       2
       1       1       2       1       1       2       1       1       2       1
       1       2       1       1       2       1       1       2       1       1
       2       1       1       2       1       1       2       1       1       2
       1       1       2       1       1       2       1       1       2       1
       1       2       1       1       2       1       1       2       1       1
       2       1       1       2       1       1       2       1       1       2
       1       1       2       1       1       2       1       1       2       1
       1       2       1       1       2       1       1       2       1       1
       2       1       1       2       1       1       2       1       1       2
       1       1       2       1       1       2       1       1       2       1
       1       2       1       1       2       1       1       2       1       1
       2       1       1       2       1       1       2       1       1       2
       1       1       2       1       1       2       1       1       2       1
       1       2       1       1       2       1       1       2       1       1
       2       1       1       2       1       1       2       1       1       2
       1       1       2       1       1       2       1       1       2       1
       1       2       1       1       2       1       1       2       1       1
       2       1       1       2       1       1       2       1       1       2
       1       1       2       1       1       2       1       1       2       1
       1       2       1       1       2       1       1       2       1       1
       2       1       1       2       1       1       2       1       1       2
       1       1       2       1       1       2       1       1       2       1
       1       2       1       1       2       1       1       2       1       1
       2       1       1       2       1       1       2       1       1       2
       1       1       2       1       1       2       1       1       2       1
       1       2       1       1       2       1       1       2       1       1
       2       1       1       2       1       1       2       1       1       2
       1       1       2       1       1       2       1       1       2       1
       1       2       1       1       2       1       1       2       1       1
       2       1       1       2       1       1       2       1       1       2
       1       1       2       1       1       2       1       1       2       1
       1       2       1       1       2       1       1       2       1       1
       2       1       1       2       1       1       2       1       1       2
       1       1       2       1       1       2       1       1       2       1
       1       2       1       1       2       1       1       2       1       1
       2       1       1       2       1       1       2       1       1       2
       1       1       2       1       1       2       1       1       2       1
       1       2       1       1       2       1       1       2       1       1
       2       1       1       2       1       1       2       1       1       2
       1       1       2       1       1       2       1       1       2       1
       1       2       1       1       2       1       1       2       1       1
       2       1       1       2       1       1       2       1       1       2
       1       1       2       1       1       2       1       1       2       1
       1       2       1       1       2       1       1       2       1       1
       2       1       1       2       1       1       2       1       1       2
       1       1       2       1       1       2       1       1       2       1
       1       2       1       1       2       1       1       2       1       1
       2       1       1       2       1       1       2       1       1       2
       1       1       2       1       1       2       1       1       2       1
       1       2       1       1       2       1       1       2       1       1
       2       1       1       2       1       1       2       1       1       2
       1       1       2       1       1       2       1       1       2       1
       1       2       1       1       2       1       1       2       1       1
       2       1       1       2       1       1       2       1       1       2
       1       1       2       1       1       2       1       1       2       1
       1       2       1       1       2       1       1       2       1       1
       2       1       1       2       1       1       2       1       1       2
       1       1       2       1       1       2       1       1       2       1
       1       2       1       1       2       1       1       2       1       1
       2       1       1       2       1       1       2       1       1       2
       1       1       2       1       1       2       1       1       2       1
       1       2       1       1       2       1       1       2       1       1
       2       1       1       2       1       1       2       1       1       2
       1       1       2       1       1       2       1       1       2       1
       1       2       1       1       2       1       1       2       1       1
       2       1       1       2       1       1       2       1       1       2
       1       1       2       1       1       2       1       1       2       1
       1       2       1       1       2       1       1       2       1       1
       2       1       1       2       1       1       2       1       1       2
       1       1       2       1       1       2       1       1       2       1
       1       2       1       1       2       1       1       2       1       1
       2       1       1       2       1       1       2       1       1       2
       1       1       2       1       1       2       1       1       2       1
       1       2       1       1       2       1       1       2       1       1
       2       1       1       2       1       1       2       1       1       2
       1       1       2       1       1       2       1       1       2       1
       1       2       1       1       2       1       1       2       1       1
       2       1       1       2       1       1       2       1       1       2
       1       1       2       1       1       2       1       1       2       1
       1       2       1       1       2       1       1       2       1       1
       2       1       1       2       1       1       2       1       1       2
       1       1       2       1       1       2       1       1       2       1
       1       2       1       1       2       1       1       2       1       1
       2       1       1       2       1       1       2       1       1       2
       1       1       2       1       1       2       1       1       2       1
       1       2       1       1       2       1       1       2       1       1
       2       1       1       2       1       1       2       1       1       2
       1       1       2       1       1       2       1       1       2       1
       1       2       1       1       2       1       1       2       1       1
       2       1       1       2       1       1       2       1       1       2
       1       1       2       1       1       2       1       1       2       1
       1       2       1       1       2       1       1       2       1       1
       2       1       1       2       1       1       2       1       1       2
       1       1       2       1       1       2       1       1       2       1
       1       2       1       1       2       1       1       2       1       1
       2       1       1       2       1       1       2       1       1       2
       1       1       2       1       1       2       1       1       2       1
       1       2       1       1       2       1       1       2       1       1
       2       1       1       2       1       1       2       1       1       2
       1       1       2       1       1       2       1       1       2       1
       1       2       1       1       2       1       1       2       1       1
       2       1       1       2       1       1       2       1       1       2
       1       1       2       1       1       2       1       1       2       1
       1       2       1       1       2       1       1       2       1       1
       2       1       1       2       1       1       2       1       1       2
       1       1       2       1       1       2       1       1       2       1
       1       2       1       1       2       1       1       2       1       1
       2       1       1       2       1       1       2       1       1       2
       1       1       2       1       1       2       1       1       2       1
       1       2       1       1       2       1       1       2       1       1
       2       1       1       2       1       1       2       1       1       2
       1       1       2       1       1       2       1       1       2       1
       1       2       1       1       2       1       1       2       1       1
       2       1       1       2       1       1       2       1       1       2
       1       1       2       1       1       2       1       1       2       1
       1       2       1       1       2       1       1       2       1       1
       2       1       1       2       1       1       2       1       1       2
       1       1       2       1       1       2       1       1       2       1
       1       2       1       1       2       1       1       2       1       1
       2       1       1       2       1       1       2       1       1       2
       1       1       2       1       1       2       1       1       2       1
       1       2       1       1       2       1       1       2       1       1
       2       1       1       2       1       1       2       1       1       2
       1       1       2       1       1       2       1       1       2       1
       1       2       1       1       2       1       1       2       1       1
       2       1       1       2       1       1       2       1       1       2
       1       1       2       1       1       2       1       1       2       1
       1       2       1       1       2       1       1       2       1       1
       2       1       1       2       1       1       2       1       1       2
       1       1       2       1       1       2       1       1       2       1
       1       2       1       1       2       1       1       2       1       1
       2       1       1       2       1       1       2       1       1       2
       1       1       2       1       1       2       1       1       2       1
       1       2       1       1       2       1       1       2       1       1
       2       1       1       2       1       1       2       1       1       2
       1       1       2       1       1       2       1       1       2       1
       1       2       1       1       2       1       1       2       1       1
       2       1       1       2       1       1       2       1       1       2
       1       1       2       1       1       2       1       1       2       1
       1       2       1       1       2       1       1       2       1       1
       2       1       1       2       1       1       2       1       1       2
       1       1       2       1       1       2       1       1       2       1
       1       2       1       1       2       1       1       2       1       1
       2       1       1       2       1       1       2       1       1       2
       1       1       2       1       1       2       1       1       2       1
       1       2       1       1       2       1       1       2       1       1
       2       1       1       2       1       1       2       1       1       2
       1       1       2       1       1       2       1       1       2       1
       1       2       1       1       2       1       1       2       1       1
       2       1       1       2       1       1       2       1       1       2
       1       1       2       1       1       2       1       1       2       1
       1       2       1       1       2       1       1       2       1       1
       2       1       1       2       1       1       2       1       1       2
       1       1       2       1       1       2       1       1       2       1
       1       2       1       1       2       1       1       2       1       1
       2       1       1       2       1       1       2       1       1       2
       1       1       2       1       1       2       1       1       2       1
       1       2       1       1       2       1       1       2       1       1
       2       1       1       2       1       1       2       1       1       2
       1       1       2       1       1       2       1       1       2       1
       1       2       1       1       2       1       1       2       1       1
       2       1       1       2       1       1       2       1       1       2
       1       1       2       1       1       2       1       1       2       1
       1       2       1       1       2       1       1       2       1       1
       2       1       1       2       1       1       2       1       1       2
       1       1       2       1       1       2       1       1       2       1
       1       2       1       1       2       1       1       2       1       1
       2       1       1       2       1       1       2       1       1       2
       1       1       2       1       1       2       1       1       2       1
       1       2       1       1       2       1       1       2       1       1
       2       1       1       2       1       1       2       1       1       2
       1       1       2       1       1       2       1       1       2       1
       1       2       1       1       2       1       1       2       1       1
       2       1       1       2       1       1       2       1       1       2
       1       1       2       1       1       2       1       1       2       1
       1       2       1       1       2       1       1       2       1       1
       2       1       1       2       1       1       2       1       1       2
       1       1       2       1       1       2       1       1       2       1
       1       2       1       1       2       1       1       2       1       1
       2       1       1       2       1       1       2       1       1       2
       1       1       2       1       1       2       1       1       2       1
       1       2       1       1       2       1       1       2       1       1
       2       1       1       2       1       1       2       1       1       2
       1       1       2       1       1       2       1       1       2       1
       1       2       1       1       2       1       1       2       1       1
       2       1       1       2       1       1       2       1       1       2
       1       1       2       1       1       2       1       1       2       1
       1       2       1       1       2       1       1       2       1       1
       2       1       1       2       1       1       2       1       1       2
       1       1       2       1       1       2       1       1       2       1
       1       2       1       1       2       1       1       2       1       1
       2       1       1       2       1       1       2       1       1       2
       1       1       2       1       1       2       1       1       2       1
       1       2       1       1       2       1       1       2       1       1
       2       1       1       2       1       1       2       1       1       2
       1       1       2       1       1       2       1       1       2       1
       1       2       1       1       2       1       1       2       1       1
       2       1       1       2       1       1       2       1       1       2
       1       1       2       1       1       2       1       1       2       1
       1       2       1       1       2       1       1       2       1       1
       2       1       1       2       1       1       2       1       1       2
       1       1       2       1       1       2       1       1       2       1
       1       2       1       1       2       1       1       2       1       1
       2       1       1       2       1       1       2       1       1       2
       1       1       2       1       1       2       1       1       2       1
       1       2       1       1       2       1       1       2       1       1
       2       1       1       2       1       1       2       1       1       2
       1       1       2       1       1       2       1       1       2       1
       1       2       1       1       2       1       1       2       1       1
       2       1       1       2       1       1       2       1       1       2
       1       1       2       1       1       2       1       1       2       1
       1       2       1       1       2       1       1       2       1       1
       2       1       1       2       1       1       2       1       1       2
       1       1       2       1       1       2       1       1       2       1
       1       2       1       1       2       1       1       2       1       1
       2       1       1       2       1       1       2       1       1       2
       1       1       2       1       1       2       1       1       2       1
       1       2       1       1       2       1       1       2       1       1
       2       1       1       2       1       1       2       1       1       2
       1       1       2       1       1       2       1       1       2       1
       1       2       1       1       2       1       1       2       1       1
       2       1       1       2       1       1       2       1       1       2
       1       1       2       1       1       2       1       1       2       1
       1       2       1       1       2       1       1       2       1       1
       2       1       1       2       1       1       2       1       1       2
       1       1       2       1       1       2       1       1       2       1
       1       2       1       1       2       1       1       2       1       1
       2       1       1       2       1       1       2       1       1       2
       1       1       2       1       1       2       1       1       2       1
       1       2       1       1       2       1       1       2       1       1
       2       1       1       2       1       1       2       1       1       2
       1       1       2       1       1       2       1       1       2       1
       1       2       1       1       2       1       1       2       1       1
       2       1       1       2       1       1       2       1       1       2
       1       1       2       1       1       2       1       1       2       1
       1       2       1       1       2       1       1       2       1       1
       2       1       1       2       1       1       2       1       1       2
       1       1       2       1       1       2       1       1       2       1
       1       2       1       1       2       1       1       2       1       1
       2       1       1       2       1       1       2       1       1       2
       1       1       2       1       1       2       1       1       2       1
       1       2       1       1       2       1       1       2       1       1
       2       1       1       2       1       1       2       1       1       2
       1       1       2       1       1       2       1       1       2       1
       1       2       1       1       2       1       1       2       1       1
       2       1       1       2       1       1       2       1       1       2
       1       1       2       1       1       2       1       1       2       1
       1       2       1       1       2       1       1       2       1       1
       2       1       1       2       1       1       2       1       1       2
       1       1       2       1       1       2       1       1       2       1
       1       2       1       1       2       1       1       2       1       1
       2       1       1       2       1       1       2       1       1       2
       1       1       2       1       1       2       1       1       2       1
       1       2       1       1       2       1       1       2       1       1
       2       1       1       2       1       1       2       1       1       2
       1       1       2       1       1       2       1       1       2       1
       1       2       1       1       2       1       1       2       1       1
       2       1       1       2       1       1       2       1       1       2
       1       1       2       1       1       2       1       1       2       1
       1       2       1       1       2       1       1       2       1       1
       2       1       1       2       1       1       2       1       1       2
       1       1       2       1       1       2       1       1       2       1
       1       2       1       1       2       1       1       2       1       1
       2       1       1       2       1       1       2       1       1       2
       1       1       2       1       1       2       1       1       2       1
       1       2       1       1       2       1       1       2       1       1
       2       1       1       2       1       1       2       1       1       2
       1       1       2       1       1       2       1       1       2       1
       1       2       1       1       2       1       1       2       1       1
       2       1       1       2       1       1       2       1       1       2
       1       1       2       1       1       2       1       1       2       1
       1       2       1       1       2       1       1       2       1       1
       2       1       1       2       1       1       2       1       1       2
       1       1       2       1       1       2       1       1       2       1
       1       2       1       1       2       1       1       2       1       1
       2       1       1       2       1       1       2       1       1       2
       1       1       2       1       1       2       1       1       2       1
       1       2       1       1       2       1       1       2       1       1
       2       1       1       2       1       1       2       1       1       2
       1       1       2       1       1       2       1       1       2       1
       1       2       1       1       2       1       1       2       1       1
       2       1       1       2       1       1       2       1       1       2
       1       1       2       1       1       2       1       1       2       1
       1       2       1       1       2       1       1       2       1       1
       2       1       1       2       1       1       2       1       1       2
       1       1       2       1       1       2       1       1       2       1
       1       2       1       1       2       1       1       2       1       1
       2       1       1       2       1       1       2       1       1       2
       1       1       2       1       1       2       1       1       2       1
       1       2       1       1       2       1       1       2       1       1
       2       1       1       2       1       1       2       1       1       2
       1       1       2       1       1       2       1       1       2       1
       1       2       1       1       2       1       1       2       1       1
       2       1       1       2       1       1       2       1       1       2
       1       1       2       1       1       2       1       1       2       1
       1       2       1       1       2       1       1       2       1       1
       2       1       1       2       1       1       2       1       1       2
       1       1       2       1       1       2       1       1       2       1
       1       2       1       1       2       1       1       2       1       1
       2       1       1       2       1       1       2       1       1       2
       1       1       2       1       1       2       1       1       2       1
       1       2       1       1       2       1       1       2       1       1
       2       1       1       2       1       1       2       1       1       2
       1       1       2       1       1       2       1       1       2       1
       1       2       1       1       2       1       1       2       1       1
       2       1       1       2       1       1       2       1       1       2
       1       1       2       1       1       2       1       1       2       1
       1       2       1       1       2       1       1       2       1       1
       2       1       1       2       1       1       2       1       1       2
       1       1       2       1       1       2       1       1       2       1
       1       2       1       1       2       1       1       2       1       1
       2       1       1       2       1       1       2       1       1       2
       1       1       2       1       1       2       1       1       2       1
       1       2       1       1       2       1       1       2       1       1
       2       1       1       2       1       1       2       1       1       2
       1       1       2       1       1       2       1       1       2       1
       1       2       1       1       2       1       1       2       1       1
       2       1       1       2       1       1       2       1       1       2
       1       1       2       1       1       2       1       1       2       1
       1       2       1       1       2       1       1       2       1       1
       2       1       1       2       1       1       2       1       1       2
       1       1       2       1       1       2       1       1       2       1
       1       2       1       1       2       1       1       2       1       1
       2       1       1       2       1       1       2       1       1       2
       1       1       2       1       1       2       1       1       2       1
       1       2       1       1       2       1       1       2       1       1
       2       1       1       2       1       1       2       1       1       2
       1       1       2       1       1       2       1       1       2       1
       1       2       1       1       2       1       1       2       1       1
       2       1       1       2       1       1       2       1       1       2
       1       1       2       1       1       2       1       1       2       1
       1       2       1       1       2       1       1       2       1       1
       2       1       1       2       1       1       2       1       1       2
       1       1       2       1       1       2       1       1       2       1
       1       2       1       1       2       1       1       2       1       1
       2       1       1       2       1       1       2       1       1       2
       1       1       2       1       1       2       1       1       2       1
       1       2       1       1       2       1       1       2       1       1
       2       1       1       2       1       1       2       1       1       2
       1       1       2       1       1       2       1       1       2       1
       1       2       1       1       2       1       1       2       1       1
       2       1       1       2       1       1       2       1       1       2
       1       1       2       1       1       2       1       1       2       1
       1       2       1       1       2       1       1       2       1       1
       2       1       1       2       1       1       2       1       1       2
       1       1       2       1       1       2       1       1       2       1
       1       2       1       1       2       1       1       2       1       1
       2       1       1       2       1       1       2       1       1       2
       1       1       2       1       1       2       1       1       2       1
       1       2       1       1       2       1       1       2       1       1
       2       1       1       2       1       1       2       1       1       2
       1       1       2       1       1       2       1       1       2       1
       1       2       1       1       2       1       1       2       1       1
       2       1       1       2       1       1       2       1       1       2
       1       1       2       1       1       2       1       1       2       1
       1       2       1       1       2       1       1       2       1       1
       2       1       1       2       1       1       2       1       1       2
       1       1       2       1       1       2       1       1       2       1
       1       2       1       1       2       1       1       2       1       1
       2       1       1       2       1       1       2       1       1       2
       1       1       2       1       1       2       1       1       2       1
       1       2       1       1       2       1       1       2       1       1
       2       1       1       2       1       1       2       1       1       2
       1       1       2       1       1       2       1       1       2       1
       1       2       1       1       2       1       1       2       1       1
       2       1       1       2       1       1       2       1       1       2
       1       1       2       1       1       2       1       1       2       1
       1       2       1       1       2       1       1       2       1       1
       2       1       1       2       1       1       2       1       1       2
       1       1       2       1       1       2       1       1       2       1
       1       2       1       1       2       1       1       2       1       1
       2       1       1       2       1       1       2       1       1       2
       1       1       2       1       1       2       1       1       2       1
       1       2       1       1       2       1       1       2       1       1
       2       1       1       2       1       1       2       1       1       2
       1       1       2       1       1       2       1       1       2       1
       1       2       1       1       2       1       1       2       1       1
       2       1       1       2       1       1       2       1       1       2
       1       1       2       1       1       2       1       1       2       1
       1       2       1       1       2       1       1       2       1       1
       2       1       1       2       1       1       2       1       1       2
       1       1       2       1       1       2       1       1       2       1
       1       2       1       1       2       1       1       2       1       1
       2       1       1       2       1       1       2       1       1       2
       1       1       2       1       1       2       1       1       2       1
       1       2       1       1       2       1       1       2       1       1
       2       1       1       2       1       1       2       1       1       2
       1       1       2       1       1       2       1       1       2       1
       1       2       1       1       2       1       1       2       1       1
       2       1       1       2       1       1       2       1       1       2
       1       1       2       1       1       2       1       1       2       1
       1       2       1       1       2       1       1       2       1       1
       2       1       1       2       1       1       2       1       1       2
       1       1       2       1       1       2       1       1       2       1
       1       2       1       1       2       1       1       2       1       1
       2       1       1       2       1       1       2       1       1       2
       1       1       2       1       1       2       1       1       2       1
       1       2       1       1       2       1       1       2       1       1
       2       1       1       2       1       1       2       1       1       2
       1       1       2       1       1       2       1       1       2       1
       1       2       1       1       2       1       1       2       1       1
       2       1       1       2       1       1       2       1       1       2
       1       1       2       1       1       2       1       1       2       1
       1       2       1       1       2       1       1       2       1       1
       2       1       1       2       1       1       2       1       1       2
       1       1       2       1       1       2       1       1       2       1
       1       2       1       1       2       1       1       2       1       1
       2       1       1       2       1       1       2       1       1       2
       1       1       2       1       1       2       1       1       2       1
       1       2       1       1       2       1       1       2       1       1
       2       1       1       2       1       1       2       1       1       2
       1       1       2       1       1       2       1       1       2       1
       1       2       1       1       2       1       1       2       1       1
       2       1       1       2       1       1       2       1       1       2
       1       1       2       1       1       2       1       1       2       1
       1       2       1       1       2       1       1       2       1       1
       2       1       1       2       1       1       2       1       1       2
       1       1       2       1       1       2       1       1       2       1
       1       2       1       1       2       1       1       2       1       1
       2       1       1       2       1       1       2       1       1       2
       1       1       2       1       1       2       1       1       2       1
       1       2       1       1       2       1       1       2       1       1
       2       1       1       2       1       1       2       1       1       2
       1       1       2       1       1       2       1       1       2       1
       1       2       1       1       2       1       1       2       1       1
       2       1       1       2       1       1       2       1       1       2
       1       1       2       1       1       2       1       1       2       1
       1       2       1       1       2       1       1       2       1       1
       2       1       1       2       1       1       2       1       1       2
       1       1       2       1       1       2       1       1       2       1
       1       2       1       1       2       1       1       2       1       1
       2       1       1       2       1       1       2       1       1       2
       1       1       2       1       1       2       1       1       2       1
       1       2       1       1       2       1       1       2       1       1
       2       1       1       2       1       1       2       1       1       2
       1       1       2       1       1       2       1       1       2       1
       1       2       1       1       2       1       1       2       1       1
       2       1       1       2       1       1       2       1       1       2
       1       1       2       1       1       2       1       1       2       1
       1       2       1       1       2       1       1       2       1       1
       2       1       1       2       1       1       2       1       1       2
       1       1       2       1       1       2       1       1       2       1
       1       2       1       1       2       1       1       2       1       1
       2       1       1       2       1       1       2       1       1       2
       1       1       2       1       1       2       1       1       2       1
       1       2       1       1       2       1       1       2       1       1
       2       1       1       2       1       1       2       1       1       2
       1       1       2       1       1       2       1       1       2       1
       1       2       1       1       2       1       1       2       1       1
       2       1       1       2       1       1       2       1       1       2
       1       1       2       1       1       2       1       1       2       1
       1       2       1       1       2       1       1       2       1       1
       2       1       1       2       1       1       2       1       1       2
       1       1       2       1       1       2       1       1       2       1
       1       2       1       1       2       1       1       2       1       1
       2       1       1       2       1       1       2       1       1       2
       1       1       2       1       1       2       1       1       2       1
       1       2       1       1       2       1       1       2       1       1
       2       1       1       2       1       1       2       1       1       2
       1       1       2       1       1       2       1       1       2       1
       1       2       1       1       2       1       1       2       1       1
       2       1       1       2       1       1       2       1       1       2
       1       1       2       1       1       2       1       1       2       1
       1       2       1       1       2       1       1       2       1       1
       2       1       1       2       1       1       2       1       1       2
       1       1       2       1       1       2       1       1       2       1
       1       2       1       1       2       1       1       2       1       1
       2       1       1       2       1       1       2       1       1       2
       1       1       2       1       1       2       1       1       2       1
       1       2       1       1       2       1       1       2       1       1
       2       1       1       2       1       1       2       1       1       2
       1       1       2       1       1       2       1       1       2       1
       1       2       1       1       2       1       1       2       1       1
       2       1       1       2       1       1       2       1       1       2
       1       1       2       1       1       2       1       1       2       1
       1       2       1       1       2       1       1       2       1       1
       2       1       1       2       1       1       2       1       1       2
       1       1       2       1       1       2       1       1       2       1
       1       2       1       1       2       1       1       2       1       1
       2       1       1       2       1       1       2       1       1       2
       1       1       2       1       1       2       1       1       2       1
       1       2       1       1       2       1       1       2       1       1
       2       1       1       2       1       1       2       1       1       2
       1       1       2       1       1       2       1       1       2       1
       1       2       1       1       2       1       1       2       1       1
       2       1       1       2       1       1       2       1       1       2
       1       1       2       1       1       2       1       1       2       1
       1       2       1       1       2       1       1       2       1       1
       2       1       1       2       1       1       2       1       1       2
       1       1       2       1       1       2       1       1       2       1
       1       2       1       1       2       1       1       2       1       1
       2       1       1       2       1       1       2       1       1       2
       1       1       2       1       1       2       1       1       2       1
       1       2       1       1       2       1       1       2       1       1
       2       1       1       2       1       1       2       1       1       2
       1       1       2       1       1       2       1       1       2       1
       1       2       1       1       2       1       1       2       1       1
       2       1       1       2       1       1       2       1       1       2
       1       1       2       1       1       2       1       1       2       1
       1       2       1       1       2       1       1       2       1       1
       2       1       1       2       1       1       2       1       1       2
       1       1       2       1       1       2       1       1       2       1
       1       2       1       1       2       1       1       2       1       1
       2       1       1       2       1       1       2       1       1       2
       1       1       2       1       1       2       1       1       2       1
       1       2       1       1       2       1       1       2       1       1
       2       1       1       2       1       1       2       1       1       2
       1       1       2       1       1       2       1       1       2       1
       1       2       1       1       2       1       1       2       1       1
       2       1       1       2       1       1       2       1       1       2
       1       1       2       1       1       2       1       1       2       1
       1       2       1       1       2       1       1       2       1       1
       2       1       1       2       1       1       2       1       1       2
       1       1       2       1       1       2       1       1       2       1
       1       2       1       1       2       1       1       2       1       1
       2       1       1       2       1       1       2       1       1       2
       1       1       2       1       1       2       1       1       2       1
       1       2       1       1       2       1       1       2       1       1
       2       1       1       2       1       1       2       1       1       2
       1       1       2       1       1       2       1       1       2       1
       1       2       1       1       2       1       1       2       1       1
       2       1       1       2       1       1       2       1       1       2
       1       1       2       1       1       2       1       1       2       1
       1       2       1       1       2       1       1       2       1       1
       2       1       1       2       1       1       2       1       1       2
       1       1       2       1       1       2       1       1       2       1
       1       2       1       1       2       1       1       2       1       1
       2       1       1       2       1       1       2       1       1       2
       1       1       2       1       1       2       1       1       2       1
       1       2       1       1       2       1       1       2       1       1
       2       1       1       2       1       1       2       1       1       2
       1       1       2       1       1       2       1       1       2       1
       1       2       1       1       2       1       1       2       1       1
       2       1       1       2       1       1       2       1       1       2
       1       1       2       1       1       2       1       1       2       1
       1       2       1       1       2       1       1       2       1       1
       2       1       1       2       1       1       2       1       1       2
       1       1       2       1       1       2       1       1       2       1
       1       2       1       1       2       1       1       2       1       1
       2       1       1       2       1       1       2       1       1       2
       1       1       2       1       1       2       1       1       2       1
       1       2       1       1       2       1       1       2       1       1
       2       1       1       2       1       1       2       1       1       2
       1       1       2       1       1       2       1       1       2       1
       1       2       1       1       2       1       1       2       1       1
       2       1       1       2       1       1       2       1       1       2
       1       1       2       1       1       2       1       1       2       1
       1       2       1       1       2       1       1       2       1       1
       2       1       1       2       1       1       2       1       1       2
       1       1       2       1       1       2       1       1       2       1
       1       2       1       1       2       1       1       2       1       1
       2       1       1       2       1       1       2       1       1       2
       1       1       2       1       1       2       1       1       2       1
       1       2       1       1       2       1       1       2       1       1
       2       1       1       2       1       1       2       1       1       2
       1       1       2       1       1       2       1       1       2       1
       1       2       1       1       2       1       1       2       1       1
       2       1       1       2       1       1       2       1       1       2
       1       1       2       1       1       2       1       1       2       1
       1       2       1       1       2       1       1       2       1       1
       2       1       1       2       1       1       2       1       1       2
       1       1       2       1       1       2       1       1       2       1
       1       2       1       1       2       1       1       2       1       1
       2       1       1       2       1       1       2       1       1       2
       1       1       2       1       1       2       1       1       2       1
       1       2       1       1       2       1       1       2       1       1
       2       1       1       2       1       1       2       1       1       2
       1       1       2       1       1       2       1       1       2       1
       1       2       1       1       2       1       1       2       1       1
       2       1       1       2       1       1       2       1       1       2
       1       1       2       1       1       2       1       1       2       1
       1       2       1       1       2       1       1       2       1       1
       2       1       1       2       1       1       2       1       1       2
       1       1       2       1       1       2       1       1       2       1
       1       2       1       1       2       1       1       2       1       1
       2       1       1       2       1       1       2       1       1       2
       1       1       2       1       1       2       1       1       2       1
       1       2       1       1       2       1       1       2       1       1
       2       1       1       2       1       1       2       1       1       2
       1       1       2       1       1       2       1       1       2       1
       1       2       1       1       2       1       1       2       1       1
       2       1       1       2       1       1       2       1       1       2
       1       1       2       1       1       2       1       1       2       1
       1       2       1       1       2       1       1       2       1       1
       2       1       1       2       1       1       2       1       1       2
       1       1       2       1       1       2       1       1       2       1
       1       2       1       1       2       1       1       2       1       1
       2       1       1       2       1       1       2       1       1       2
       1       1       2       1       1       2       1       1       2       1
       1       2       1       1       2       1       1       2       1       1
       2       1       1       2       1       1       2       1       1       2
       1       1       2       1       1       2       1       1       2       1
       1       2       1       1       2       1       1       2       1       1
       2       1       1       2       1       1       2       1       1       2
       1       1       2       1       1       2       1       1       2       1
       1       2       1       1       2       1       1       2       1       1
       2       1       1       2       1       1       2       1       1       2
       1       1       2       1       1       2       1       1       2       1
       1       2       1       1       2       1       1       2       1       1
       2       1       1       2       1       1       2       1       1       2
       1       1       2       1       1       2       1       1       2       1
       1       2       1       1       2       1       1       2       1       1
       2       1       1       2       1       1       2       1       1       2
       1       1       2       1       1       2       1       1       2       1
       1       2       1       1       2       1       1       2       1       1
       2       1       1       2       1       1       2       1       1       2
       1       1       2       1       1       2       1       1       2       1
       1       2       1       1       2       1       1       2       1       1
       2       1       1       2       1       1       2       1       1       2
       1       1       2       1       1       2       1       1       2       1
       1       2       1       1       2       1       1       2       1       1
       2       1       1       2       1       1       2       1       1       2
       1       1       2       1       1       2       1       1       2       1
       1       2       1       1       2       1       1       2       1       1
       2       1       1       2       1       1       2       1       1       2
       1       1       2       1       1       2       1       1       2       1
       1       2       1       1       2       1       1       2       1       1
       2       1       1       2       1       1       2       1       1       2
       1       1       2       1       1       2       1       1       2       1
       1       2       1       1       2       1       1       2       1       1
       2       1       1       2       1       1       2       1       1       2
       1       1       2       1       1       2       1       1       2       1
       1       2       1       1       2       1       1       2       1       1
       2       1       1       2       1       1       2       1       1       2
       1       1       2       1       1       2       1       1       2       1
       1       2       1       1       2       1       1       2       1       1
       2       1       1       2       1       1       2       1       1       2
       1       1       2       1       1       2       1       1       2       1
       1       2       1       1       2       1       1       2       1       1
       2       1       1       2       1       1       2       1       1       2
       1       1       2       1       1       2       1       1       2       1
       1       2       1       1       2       1       1       2       1       1
       2       1       1       2       1       1       2       1       1       2
       1       1       2       1       1       2       1       1       2       1
       1       2       1       1       2       1       1       2       1       1
       2       1       1       2       1       1       2       1       1       2
       1       1       2       1       1       2       1       1       2       1
       1       2       1       1       2       1       1       2       1       1
       2       1       1       2       1       1       2       1       1       2
       1       1       2       1       1       2       1       1       2       1
       1       2       1       1       2       1       1       2       1       1
       2       1       1       2       1       1       2       1       1       2
       1       1       2       1       1       2       1       1       2       1
       1       2       1       1       2       1       1       2       1       1
       2       1       1       2       1       1       2       1       1       2
       1       1       2       1       1       2       1       1       2       1
       1       2       1       1       2       1       1       2       1       1
       2       1       1       2       1       1       2       1       1       2
       1       1       2       1       1       2       1       1       2       1
       1       2       1       1       2       1       1       2       1       1
       2       1       1       2       1       1       2       1       1       2
       1       1       2       1       1       2       1       1       2       1
       1       2       1       1       2       1       1       2       1       1
       2       1       1       2       1       1       2       1       1       2
       1       1       2       1       1       2       1       1       2       1
       1       2       1       1       2       1       1       2       1       1
       2       1       1       2       1       1       2       1       1       2
       1       1       2       1       1       2       1       1       2       1
       1       2       1       1       2       1       1       2       1       1
       2       1       1       2       1       1       2       1       1       2
       1       1       2       1       1       2       1       1       2       1
       1       2       1       1       2       1       1       2       1       1
       2       1       1       2       1       1       2       1       1       2
       1       1       2       1       1       2       1       1       2       1
       1       2       1       1       2       1       1       2       1       1
       2       1       1       2       1       1       2       1       1       2
       1       1       2       1       1       2       1       1       2       1
       1       2       1       1       2       1       1       2       1       1
       2       1       1       2       1       1       2       1       1       2
       1       1       2       1       1       2       1       1       2       1
       1       2       1       1       2       1       1       2       1       1
       2       1       1       2       1       1       2       1       1       2
       1       1       2       1       1       2       1       1       2       1
       1       2       1       1       2       1       1       2       1       1
       2       1       1       2       1       1       2       1       1       2
       1       1       2       1       1       2       1       1       2       1
       1       2       1       1       2       1       1       2       1       1
       2       1       1       2       1       1       2       1       1       2
       1       1       2       1       1       2       1       1       2       1
       1       2       1       1       2       1       1       2       1       1
       2       1       1       2       1       1       2       1       1       2
       1       1       2       1       1       2       1       1       2       1
       1       2       1       1       2       1       1       2       1       1
       2       1       1       2       1       1       2       1       1       2
       1       1       2       1       1       2       1       1       2       1
       1       2       1       1       2       1       1       2       1       1
       2       1       1       2       1       1       2       1       1       2
       1       1       2       1       1       2       1       1       2       1
       1       2       1       1       2       1       1       2       1       1
       2       1       1       2       1       1       2       1       1       2
       1       1       2       1       1       2       1       1       2       1
       1       2       1       1       2       1       1       2       1       1
       2       1       1       2       1       1       2       1       1       2
       1       1       2       1       1       2       1       1       2       1
       1       2       1       1       2       1       1       2       1       1
       2       1       1       2       1       1       2       1       1       2
       1       1       2       1       1       2       1       1       2       1
       1       2       1       1       2       1       1       2       1       1
       2       1       1       2       1       1       2       1       1       2
       1       1       2       1       1       2       1       1       2       1
       1       2       1       1       2       1       1       2       1       1
       2       1       1       2       1       1       2       1       1       2
       1       1       2       1       1       2       1       1       2       1
       1       2       1       1       2       1       1       2       1       1
       2       1       1       2       1       1       2       1       1       2
       1       1       2       1       1       2       1       1       2       1
       1       2       1       1       2       1       1       2       1       1
       2       1       1       2       1       1       2       1       1       2
       1       1       2       1       1       2       1       1       2       1
       1       2       1       1       2       1       1       2       1       1
       2       1       1       2       1       1       2       1       1       2
       1       1       2       1       1       2       1       1       2       1
       1       2       1       1       2       1       1       2       1       1
       2       1       1       2       1       1       2       1       1       2
       1       1       2       1       1       2       1       1       2       1
       1       2       1       1       2       1       1       2       1       1
       2       1       1       2       1       1       2       1       1       2
       1       1       2       1       1       2       1       1       2       1
       1       2       1       1       2       1       1       2       1       1
       2       1       1       2       1       1       2       1       1       2
       1       1       2       1       1       2       1       1       2       1
       1       2       1       1       2       1       1       2       1       1
       2       1       1       2       1       1       2       1       1       2
       1       1       2       1       1       2       1       1       2       1
       1       2       1       1       2       1       1       2       1       1
       2       1       1       2       1       1       2       1       1       2
       1       1       2       1       1       2       1       1       2       1
       1       2       1       1       2       1       1       2       1       1
       2       1       1       2       1       1       2       1       1       2
       1       1       2       1       1       2       1       1       2       1
       1       2       1       1       2       1       1       2       1       1
       2       1       1       2       1       1       2       1       1       2
       1       1       2       1       1       2       1       1       2       1
       1       2       1       1       2       1       1       2       1       1
       2       1       1       2       1       1       2       1       1       2
       1       1       2       1       1       2       1       1       2       1
       1       2       1       1       2       1       1       2       1       1
       2       1       1       2       1       1       2       1       1       2
       1       1       2       1       1       2       1       1       2       1
       1       2       1       1       2       1       1       2       1       1
       2       1       1       2       1       1       2       1       1       2
       1       1       2       1       1       2       1       1       2       1
       1       2       1       1       2       1       1       2       1       1
       2       1       1       2       1       1       2       1       1       2
       1       1       2       1       1       2       1       1       2       1
       1       2       1       1       2       1       1       2       1       1
       2       1       1       2       1       1       2       1       1       2
       1       1       2       1       1       2       1       1       2       1
       1       2       1       1       2       1       1       2       1       1
       2       1       1       2       1       1       2       1       1       2
       1       1       2       1       1       2       1       1       2       1
       1       2       1       1       2       1       1       2       1       1
       2       1       1       2       1       1       2       1       1       2
       1       1       2       1       1       2       1       1       2       1
       1       2       1       1       2       1       1       2       1       1
       2       1       1       2       1       1       2       1       1       2
       1       1       2       1       1       2       1       1       2       1
       1       2       1       1       2       1       1       2       1       1
       2       1       1       2       1       1       2       1       1       2
       1       1       2       1       1       2       1       1       2       1
       1       2       1       1       2       1       1       2       1       1
       2       1       1       2       1       1       2       1       1       2
       1       1       2       1       1       2       1       1       2       1
       1       2       1       1       2       1       1       2       1       1
       2       1       1       2       1       1       2       1       1       2
       1       1       2       1       1       2       1       1       2       1
       1       2       1       1       2       1       1       2       1       1
       2       1       1       2       1       1       2       1       1       2
       1       1       2       1       1       2       1       1       2       1
       1       2       1       1       2       1       1       2       1       1
       2       1       1       2       1       1       2       1       1       2
       1       1       2       1       1       2       1       1       2       1
       1       2       1       1       2       1       1       2       1       1
       2       1       1       2       1       1       2       1       1       2
       1       1       2       1       1       2       1       1       2       1
       1       2       1       1       2       1       1       2       1       1
       2       1       1       2       1       1       2       1       1       2
       1       1       2       1       1       2       1       1       2       1
       1       2       1       1       2       1       1       2       1       1
       2       1       1       2       1       1       2       1       1       2
       1       1       2       1       1       2       1       1       2       1
       1       2       1       1       2       1       1       2       1       1
       2       1       1       2       1       1       2       1       1       2
       1       1       2       1       1       2       1       1       2       1
       1       2       1       1       2       1       1       2       1       1
       2       1       1       2       1       1       2       1       1       2
       1       1       2       1       1       2       1       1       2       1
       1       2       1       1       2       1       1       2       1       1
       2       1       1       2       1       1       2       1       1       2
       1       1       2       1       1       2       1       1       2       1
       1       2       1       1       2       1       1       2       1       1
       2       1       1       2       1       1       2       1       1       2
       1       1       2       1       1       2       1       1       2       1
       1       2       1       1       2       1       1       2       1       1
       2       1       1       2       1       1       2       1       1       2
       1       1       2       1       1       2       1       1       2       1
       1       2       1       1       2       1       1       2       1       1
       2       1       1       2       1       1       2       1       1       2
       1       1       2       1       1       2       1       1       2       1
       1       2       1       1       2       1       1       2       1       1
       2       1       1       2       1       1       2       1       1       2
       1       1       2       1       1       2       1       1       2       1
       1       2       1       1       2       1       1       2       1       1
       2       1       1       2       1       1       2       1       1       2
       1       1       2       1       1       2       1       1       2       1
       1       2       1       1       2       1       1       2       1       1
       2       1       1       2       1       1       2       1       1       2
       1       1       2       1       1       2       1       1       2       1
       1       2       1       1       2       1       1       2       1       1
       2       1       1       2       1       1       2       1       1       2
       1       1       2       1       1       2       1       1       2       1
       1       2       1       1       2       1       1       2       1       1
       2       1       1       2       1       1       2       1       1       2
       1       1       2       1       1       2       1       1       2       1
       1       2       1       1       2       1       1       2       1       1
       2       1       1       2       1       1       2       1       1       2
       1       1       2       1       1       2       1       1       2       1
       1       2       1       1       2       1       1       2       1       1
       2       1       1       2       1       1       2       1       1       2
       1       1       2       1       1       2       1       1       2       1
       1       2       1       1       2       1       1       2       1       1
       2       1       1       2       1       1       2       1       1       2
       1       1       2       1       1       2       1       1       2       1
       1       2       1       1       2       1       1       2       1       1
       2       1       1       2       1       1       2       1       1       2
       1       1       2       1       1       2       1       1       2       1
       1       2       1       1       2       1       1       2       1       1
       2       1       1       2       1       1       2       1       1       2
       1       1       2       1       1       2       1       1       2       1
       1       2       1       1       2       1       1       2       1       1
       2       1       1       2       1       1       2       1       1       2
       1       1       2       1       1       2       1       1       2       1
       1       2       1       1       2       1       1       2       1       1
       2       1       1       2       1       1       2       1       1       2
       1       1       2       1       1       2       1       1       2       1
       1       2       1       1       2       1       1       2       1       1
       2       1       1       2       1       1       2       1       1       2
       1       1       2       1       1       2       1       1       2       1
       1       2       1       1       2       1       1       2       1       1
       2       1       1       2       1       1       2       1       1       2
       1       1       2       1       1       2       1       1       2       1
       1       2       1       1       2       1       1       2       1       1
       2       1       1       2       1       1       2       1       1       2
       1       1       2       1       1       2       1       1       2       1
       1       2       1       1       2       1       1       2       1       1
       2       1       1       2       1       1       2       1       1       2
       1       1       2       1       1       2       1       1       2       1
       1       2       1       1       2       1       1       2       1       1
       2       1       1       2       1       1       2       1       1       2
       1       1       2       1       1       2       1       1       2       1
       1       2       1       1       2       1       1       2       1       1
       2       1       1       2       1       1       2       1       1       2
       1       1       2       1       1       2       1       1       2       1
       1       2       1       1       2       1       1       2       1       1
       2       1       1       2       1       1       2       1       1       2
       1       1       2       1       1       2       1       1       2       1
       1       2       1       1       2       1       1       2       1       1
       2       1       1       2       1       1       2       1       1       2
       1       1       2       1       1       2       1       1       2       1
       1       2       1       1       2       1       1       2       1       1
       2       1       1       2       1       1       2       1       1       2
       1       1       2       1       1       2       1       1       2       1
       1       2       1       1       2       1       1       2       1       1
       2       1       1       2       1       1       2       1       1       2
       1       1       2       1       1       2       1       1       2       1
       1       2       1       1       2       1       1       2       1       1
       2       1       1       2       1       1       2       1       1       2
       1       1       2       1       1       2       1       1       2       1
       1       2       1       1       2       1       1       2       1       1
       2       1       1       2       1       1       2       1       1       2
       1       1       2       1       1       2       1       1       2       1
       1       2       1       1       2       1       1       2       1       1
       2       1       1       2       1       1       2       1       1       2
       1       1       2       1       1       2       1       1       2       1
       1       2       1       1       2       1       1       2       1       1
       2       1       1       2       1       1       2       1       1       2
       1       1       2       1       1       2       1       1       2       1
       1       2       1       1       2       1       1       2       1       1
       2       1       1       2       1       1       2       1       1       2
       1       1       2       1       1       2       1       1       2       1
       1       2       1       1       2       1       1       2       1       1
       2       1       1       2       1       1       2       1       1       2
       1       1       2       1       1       2       1       1       2       1
       1       2       1       1       2       1       1       2       1       1
       2       1       1       2       1       1       2       1       1       2
       1       1       2       1       1       2       1       1       2       1
       1       2       1       1       2       1       1       2       1       1
       2       1       1       2       1       1       2       1       1       2
       1       1       2       1       1       2       1       1       2       1
       1       2       1       1       2       1       1       2       1       1
       2       1       1       2       1       1       2       1       1       2
       1       1       2       1       1       2       1       1       2       1
       1       2       1       1       2       1       1       2       1       1
       2       1       1       2       1       1       2       1       1       2
       1       1       2       1       1       2       1       1       2       1
       1       2       1       1       2       1       1       2       1       1
       2       1       1       2       1       1       2       1       1       2
       1       1       2       1       1       2       1       1       2       1
       1       2       1       1       2       1       1       2       1       1
       2       1       1       2       1       1       2       1       1       2
       1       1       2       1       1       2       1       1       2       1
       1       2       1       1       2       1       1       2       1       1
       2       1       1       2       1       1       2       1       1       2
       1       1       2       1       1       2       1       1       2       1
       1       2       1       1       2       1       1       2       1       1
       2       1       1       2       1       1       2       1       1       2
       1       1       2       1       1       2       1       1       2       1
       1       2       1       1       2       1       1       2       1       1
       2       1       1       2       1       1       2       1       1       2
       1       1       2       1       1       2       1       1       2       1
       1       2       1       1       2       1       1       2       1       1
       2       1       1       2       1       1       2       1       1       2
       1       1       2       1       1       2       1       1       2       1
       1       2       1       1       2       1       1       2       1       1
       2       1       1       2       1       1       2       1       1       2
       1       1       2       1       1       2       1       1       2       1
       1       2       1       1       2       1       1       2       1       1
       2       1       1       2       1       1       2       1       1       2
       1       1       2       1       1       2       1       1       2       1
       1       2       1       1       2       1       1       2       1       1
       2       1       1       2       1       1       2       1       1       2
       1       1       2       1       1       2       1       1       2       1
       1       2       1       1       2       1       1       2       1       1
       2       1       1       2       1       1       2       1       1       2
       1       1       2       1       1       2       1       1       2       1
       1       2       1       1       2       1       1       2       1       1
       2       1       1       2       1       1       2       1       1       2
       1       1       2       1       1       2       1       1       2       1
       1       2       1       1       2       1       1       2       1       1
       2       1       1       2       1       1       2       1       1       2
       1       1       2       1       1       2       1       1       2       1
       1       2       1       1       2       1       1       2       1       1
       2       1       1       2       1       1       2       1       1       2
       1       1       2       1       1       2       1       1       2       1
       1       2       1       1       2       1       1       2       1       1
       2       1       1       2       1       1       2       1       1       2
       1       1       2       1       1       2       1       1       2       1
       1       2       1       1       2       1       1       2       1       1
       2       1       1       2       1       1       2       1       1       2
       1       1       2       1       1       2       1       1       2       1
       1       2       1       1       2       1       1       2       1       1
       2       1       1       2       1       1       2       1       1       2
       1       1       2       1       1       2       1       1       2       1
       1       2       1       1       2       1       1       2       1       1
       2       1       1       2       1       1       2       1       1       2
       1       1       2       1       1       2       1       1       2       1
       1       2       1       1       2       1       1       2       1       1
       2       1       1       2       1       1       2       1       1       2
       1       1       2       1       1       2       1       1       2       1
       1       2       1       1       2       1       1       2       1       1
       2       1       1       2       1       1       2       1       1       2
       1       1       2       1       1       2       1       1       2       1
       1       2       1       1       2       1       1       2       1       1
       2       1       1       2       1       1       2       1       1       2
       1       1       2       1       1       2       1       1       2       1
       1       2       1       1       2       1       1       2       1       1
       2       1       1       2       1       1       2       1       1       2
       1       1       2       1       1       2       1       1       2       1
       1       2       1       1       2       1       1       2       1       1
       2       1       1       2       1       1       2       1       1       2
       1       1       2       1       1       2       1       1       2       1
       1       2       1       1       2       1       1       2       1       1
       2       1       1       2       1       1       2       1       1       2
       1       1       2       1       1       2       1       1       2       1
       1       2       1       1       2       1       1       2       1       1
       2       1       1       2       1       1       2       1       1       2
       1       1       2       1       1       2       1       1       2       1
       1       2       1       1       2       1       1       2       1       1
       2       1       1       2       1       1       2       1       1       2
       1       1       2       1       1       2       1       1       2       1
       1       2       1       1       2       1       1       2       1       1
       2       1       1       2       1       1       2       1       1       2
       1       1       2       1       1       2       1       1       2       1
       1       2       1       1       2       1       1       2       1       1
       2       1       1       2       1       1       2       1       1       2
       1       1       2       1       1       2       1       1       2       1
       1       2       1       1       2       1       1       2       1       1
       2       1       1       2       1       1       2       1       1       2
       1       1       2       1       1       2       1       1       2       1
       1       2       1       1       2       1       1       2       1       1
       2       1       1       2       1       1       2       1       1       2
       1       1       2       1       1       2       1       1       2       1
       1       2       1       1       2       1       1       2       1       1
       2       1       1       2       1       1       2       1       1       2
       1       1       2       1       1       2       1       1       2       1
       1       2       1       1       2       1       1       2       1       1
       2       1       1       2       1       1       2       1       1       2
       1       1       2       1       1       2       1       1       2       1
       1       2       1       1       2       1       1       2       1       1
       2       1       1       2       1       1       2       1       1       2
       1       1       2       1       1       2       1       1       2       1
       1       2       1       1       2       1       1       2       1       1
       2       1       1       2       1       1       2       1       1       2
       1       1       2       1       1       2       1       1       2       1
       1       2       1       1       2       1       1       2       1       1
       2       1       1       2       1       1       2       1       1       2
       1       1       2       1       1       2       1       1       2       1
       1       2       1       1       2       1       1       2       1       1
       2       1       1       2       1       1       2       1       1       2
       1       1       2       1       1       2       1       1       2       1
       1       2       1       1       2       1       1       2       1       1
       2       1       1       2       1       1       2       1       1       2
       1       1       2       1       1       2       1       1       2       1
       1       2       1       1       2       1       1       2       1       1
       2       1       1       2       1       1       2       1       1       2
       1       1       2       1       1       2       1       1       2       1
       1       2       1       1       2       1       1       2       1       1
       2       1       1       2       1       1       2       1       1       2
       1       1       2       1       1       2       1       1       2       1
       1       2       1       1       2       1       1       2       1       1
       2       1       1       2       1       1       2       1       1       2
       1       1       2       1       1       2       1       1       2       1
       1       2       1       1       2       1       1       2       1       1
       2       1       1       2       1       1       2       1       1       2
       1       1       2       1       1       2       1       1       2       1
       1       2       1       1       2       1       1       2       1       1
       2       1       1       2       1       1       2       1       1       2
       1       1       2       1       1       2       1       1       2       1
       1       2       1       1       2       1       1       2       1       1
       2       1       1       2       1       1       2       1       1       2
       1       1       2       1       1       2       1       1       2       1
       1       2       1       1       2       1       1       2       1       1
       2       1       1       2       1       1       2       1       1       2
       1       1       2       1       1       2       1       1       2       1
       1       2       1       1       2       1       1       2       1       1
       2       1       1       2       1       1       2       1       1       2
       1       1       2       1       1       2       1       1       2       1
       1       2       1       1       2       1       1       2       1       1
       2       1       1       2       1       1       2       1       1       2
       1       1       2       1       1       2       1       1       2       1
       1       2       1       1       2       1       1       2       1       1
       2       1       1       2       1       1       2       1       1       2
       1       1       2       1       1       2       1       1       2       1
       1       2       1       1       2       1       1       2       1       1
       2       1       1       2       1       1       2       1       1       2
       1       1       2       1       1       2       1       1       2       1
       1       2       1       1       2       1       1       2       1       1
       2       1       1       2       1       1       2       1       1       2
       1       1       2       1       1       2       1       1       2       1
       1       2       1       1       2       1       1       2       1       1
       2       1       1       2       1       1       2       1       1       2
       1       1       2       1       1       2       1       1       2       1
       1       2       1       1       2       1       1       2       1       1
       2       1       1       2       1       1       2       1       1       2
       1       1       2       1       1       2       1       1       2       1
       1       2       1       1       2       1       1       2       1       1
       2       1       1       2       1       1       2       1       1       2
       1       1       2       1       1       2       1       1       2       1
       1       2       1       1       2       1       1       2       1       1
       2       1       1       2       1       1       2       1       1       2
       1       1       2       1       1       2       1       1       2       1
       1       2       1       1       2       1       1       2       1       1
       2       1       1       2       1       1       2       1       1       2
       1       1       2       1       1       2       1       1       2       1
       1       2       1       1       2       1       1       2       1       1
       2       1       1       2       1       1       2       1       1       2
       1       1       2       1       1       2       1       1       2       1
       1       2       1       1       2       1       1       2       1       1
       2       1       1       2       1       1       2       1       1       2
       1       1       2       1       1       2       1       1       2       1
       1       2       1       1       2       1       1       2       1       1
       2       1       1       2       1       1       2       1       1       2
       1       1       2       1       1       2       1       1       2       1
       1       2       1       1       2       1       1       2       1       1
       2       1       1       2       1       1       2       1       1       2
       1       1       2       1       1       2       1       1       2       1
       1       2       1       1       2       1       1       2       1       1
       2       1       1       2       1       1       2       1       1       2
       1       1       2       1       1       2       1       1       2       1
       1       2       1       1       2       1       1       2       1       1
       2       1       1       2       1       1       2       1       1       2
       1       1       2       1       1       2       1       1       2       1
       1       2       1       1       2       1       1       2       1       1
       2       1       1       2       1       1       2       1       1       2
       1       1       2       1       1       2       1       1       2       1
       1       2       1       1       2       1       1       2       1       1
       2       1       1       2       1       1       2       1       1       2
       1       1       2       1       1       2       1       1       2       1
       1       2       1       1       2       1       1       2       1       1
       2       1       1       2       1       1       2       1       1       2
       1       1       2       1       1       2       1       1       2       1
       1       2       1       1       2       1       1       2       1       1
       2       1       1       2       1       1       2       1       1       2
       1       1       2       1       1       2       1       1       2       1
       1       2       1       1       2       1       1       2       1       1
       2       1       1       2       1       1       2       1       1       2
       1       1       2       1       1       2       1       1       2       1
       1       2       1       1       2       1       1       2       1       1
       2       1       1       2       1       1       2       1       1       2
       1       1       2       1       1       2       1       1       2       1
       1       2       1       1       2       1       1       2       1       1
       2       1       1       2       1       1       2       1       1       2
       1       1       2       1       1       2       1       1       2       1
       1       2       1       1       2       1       1       2       1       1
       2       1       1       2       1       1       2       1       1       2
       1       1       2       1       1       2       1       1       2       1
       1       2       1       1       2       1       1       2       1       1
       2       1       1       2       1       1       2       1       1       2
       1       1       2       1       1       2       1       1       2       1
       1       2       1       1       2       1       1       2       1       1
       2       1       1       2       1       1       2       1       1       2
       1       1       2       1       1       2       1       1       2       1
       1       2       1       1       2       1       1       2       1       1
       2       1       1       2       1       1       2       1       1       2
       1       1       2       1       1       2       1       1       2       1
       1       2       1       1       2       1       1       2       1       1
       2       1       1       2       1       1       2       1       1       2
       1       1       2       1       1       2       1       1       2       1
       1       2       1       1       2       1       1       2       1       1
       2       1       1       2       1       1       2       1       1       2
       1       1       2       1       1       2       1       1       2       1
       1       2       1       1       2       1       1       2       1       1
       2       1       1       2       1       1       2       1       1       2
       1       1       2       1       1       2       1       1       2       1
       1       2       1       1       2       1       1       2       1       1
       2       1       1       2       1       1       2       1       1       2
       1       1       2       1       1       2       1       1       2       1
       1       2       1       1       2       1       1       2       1       1
       2       1       1       2       1       1       2       1       1       2
       1       1       2       1       1       2       1       1       2       1
       1       2       1       1       2       1       1       2       1       1
       2       1       1       2       1       1       2       1       1       2
       1       1       2       1       1       2       1       1       2       1
       1       2       1       1       2       1       1       2       1       1
       2       1       1       2       1       1       2       1       1       2
       1       1       2       1       1       2       1       1       2       1
       1       2       1       1       2       1       1       2       1       1
       2       1       1       2       1       1       2       1       1       2
       1       1       2       1       1       2       1       1       2       1
       1       2       1       1       2       1       1       2       1       1
       2       1       1       2       1       1       2       1       1       2
       1       1       2       1       1       2       1       1       2       1
       1       2       1       1       2       1       1       2       1       1
       2       1       1       2       1       1       2       1       1       2
       1       1       2       1       1       2       1       1       2       1
       1       2       1       1       2       1       1       2       1       1
       2       1       1       2       1       1       2       1       1       2
       1       1       2       1       1       2       1       1       2       1
       1       2       1       1       2       1       1       2       1       1
       2       1       1       2       1       1       2       1       1       2
       1       1       2       1       1       2       1       1       2       1
       1       2       1       1       2       1       1       2       1       1
       2       1       1       2       1       1       2       1       1       2
       1       1       2       1       1       2       1       1       2       1
       1       2       1       1       2       1       1       2       1       1
       2       1       1       2       1       1       2       1       1       2
       1       1       2       1       1       2       1       1       2       1
       1       2       1       1       2       1       1       2       1       1
       2       1       1       2       1       1       2       1       1       2
       1       1       2       1       1       2       1       1       2       1
       1       2       1       1       2       1       1       2       1       1
       2       1       1       2       1       1       2       1       1       2
       1       1       2       1       1       2       1       1       2       1
       1       2       1       1       2       1       1       2       1       1
       2       1       1       2       1       1       2       1       1       2
       1       1       2       1       1       2       1       1       2       1
       1       2       1       1       2       1       1       2       1       1
       2       1       1       2       1       1       2       1       1       2
       1       1       2       1       1       2       1       1       2       1
       1       2       1       1       2       1       1       2       1       1
       2       1       1       2       1       1       2       1       1       2
       1       1       2       1       1       2       1       1       2       1
       1       2       1       1       2       1       1       2       1       1
       2       1       1       2       1       1       2       1       1       2
       1       1       2       1       1       2       1       1       2       1
       1       2       1       1       2       1       1       2       1       1
       2       1       1       2       1       1       2       1       1       2
       1       1       2       1       1       2       1       1       2       1
       1       2       1       1       2       1       1       2       1       1
       2       1       1       2       1       1       2       1       1       2
       1       1       2       1       1       2       1       1       2       1
       1       2       1       1       2       1       1       2       1       1
       2       1       1       2       1       1       2       1       1       2
       1       1       2       1       1       2       1       1       2       1
       1       2       1       1       2       1       1       2       1       1
       2       1       1       2       1       1       2       1       1       2
       1       1       2       1       1       2       1       1       2       1
       1       2       1       1       2       1       1       2       1       1
       2       1       1       2       1       1       2       1       1       2
       1       1       2       1       1       2       1       1       2       1
       1       2       1       1       2       1       1       2       1       1
       2       1       1       2       1       1       2       1       1       2
       1       1       2       1       1       2       1       1       2       1
       1       2       1       1       2       1       1       2       1       1
       2       1       1       2       1       1       2       1       1       2
       1       1       2       1       1       2       1       1       2       1
       1       2       1       1       2       1       1       2       1       1
       2       1       1       2       1       1       2       1       1       2
       1       1       2       1       1       2       1       1       2       1
       1       2       1       1       2       1       1       2       1       1
       2       1       1       2       1       1       2       1       1       2
       1       1       2       1       1       2       1       1       2       1
       1       2       1       1       2       1       1       2       1       1
       2       1       1       2       1       1       2       1       1       2
       1       1       2       1       1       2       1       1       2       1
       1       2       1       1       2       1       1       2       1       1
       2       1       1       2       1       1       2       1       1       2
       1       1       2       1       1       2       1       1       2       1
       1       2       1       1       2       1       1       2       1       1
       2       1       1       2       1       1       2       1       1       2
       1       1       2       1       1       2       1       1       2       1
       1       2       1       1       2       1       1       2       1       1
       2       1       1       2       1       1       2       1       1       2
       1       1       2       1       1       2       1       1       2       1
       1       2       1       1       2       1       1       2       1       1
       2       1       1       2       1       1       2       1       1       2
       1       1       2       1       1       2       1       1       2       1
       1       2       1       1       2       1       1       2       1       1
       2       1       1       2       1       1       2       1       1       2
       1       1       2       1       1       2       1       1       2       1
       1       2       1       1       2       1       1       2       1       1
       2       1       1       2       1       1       2       1       1       2
       1       1       2       1       1       2       1       1       2       1
       1       2       1       1       2       1       1       2       1       1
       2       1       1       2       1       1       2       1       1       2
       1       1       2       1       1       2       1       1       2       1
       1       2       1       1       2       1       1       2       1       1
       2       1       1       2       1       1       2       1       1       2
       1       1       2       1       1       2       1       1       2       1
       1       2       1       1       2       1       1       2       1       1
       2       1       1       2       1       1       2       1       1       2
       1       1       2       1       1       2       1       1       2       1
       1       2       1       1       2       1       1       2       1       1
       2       1       1       2       1       1       2       1       1       2
       1       1       2       1       1       2       1       1       2       1
       1       2       1       1       2       1       1       2       1       1
       2       1       1       2       1       1       2       1       1       2
       1       1       2       1       1       2       1       1       2       1
       1       2       1       1       2       1       1       2       1       1
       2       1       1       2       1       1       2       1       1       2
       1       1       2       1       1       2       1       1       2       1
       1       2       1       1       2       1       1       2       1       1
       2       1       1       2       1       1       2       1       1       2
       1       1       2       1       1       2       1       1       2       1
       1       2       1       1       2       1       1       2       1       1
       2       1       1       2       1       1       2       1       1       2
       1       1       2       1       1       2       1       1       2       1
       1       2       1       1       2       1       1       2       1       1
       2       1       1       2       1       1       2       1       1       2
       1       1       2       1       1       2       1       1       2       1
       1       2       1       1       2       1       1       2       1       1
       2       1       1       2       1       1       2       1       1       2
       1       1       2       1       1       2       1       1       2       1
       1       2       1       1       2       1       1       2       1       1
       2       1       1       2       1       1       2       1       1       2
       1       1       2       1       1       2       1       1       2       1
       1       2       1       1       2       1       1       2       1       1
       2       1       1       2       1       1       2       1       1       2
       1       1       2       1       1       2       1       1       2       1
       1       2       1       1       2       1       1       2       1       1
       2       1       1       2       1       1       2       1       1       2
       1       1       2       1       1       2       1       1       2       1
       1       2       1       1       2       1       1       2       1       1
       2       1       1       2       1       1       2       1       1       2
       1       1       2       1       1       2       1       1       2       1
       1       2       1       1       2       1       1       2       1       1
       2       1       1       2       1       1       2       1       1       2
       1       1       2       1       1       2       1       1       2       1
       1       2       1       1       2       1       1       2       1       1
       2       1       1       2       1       1       2       1       1       2
       1       1       2       1       1       2       1       1       2       1
       1       2       1       1       2       1       1       2       1       1
       2       1       1       2       1       1       2       1       1       2
       1       1       2       1       1       2       1       1       2       1
       1       2       1       1       2       1       1       2       1       1
       2       1       1       2       1       1       2       1       1       2
       1       1       2       1       1       2       1       1       2       1
       1       2       1       1       2       1       1       2       1       1
       2       1       1       2       1       1       2       1       1       2
       1       1       2       1       1       2       1       1       2       1
       1       2       1       1       2       1       1       2       1       1
       2       1       1       2       1       1       2       1       1       2
       1       1       2       1       1       2       1       1       2       1
       1       2       1       1       2       1       1       2       1       1
       2       1       1       2       1       1       2       1       1       2
       1       1       2       1       1       2       1       1       2       1
       1       2       1       1       2       1       1       2       1       1
       2       1       1       2       1       1       2       1       1       2
       1       1       2       1       1       2       1       1       2       1
       1       2       1       1       2       1       1       2       1       1
       2       1       1       2       1       1       2       1       1       2
       1       1       2       1       1       2       1       1       2       1
       1       2       1       1       2       1       1       2       1       1
       2       1       1       2       1       1       2       1       1       2
       1       1       2       1       1       2       1       1       2       1
       1       2       1       1       2       1       1       2       1       1
       2       1       1       2       1       1       2       1       1       2
       1       1       2       1       1       2       1       1       2       1
       1       2       1       1       2       1       1       2       1       1
       2       1       1       2       1       1       2       1       1       2
       1       1       2       1       1       2       1       1       2       1
       1       2       1       1       2       1       1       2       1       1
       2       1       1       2       1       1       2       1       1       2
       1       1       2       1       1       2       1       1       2       1
       1       2       1       1       2       1       1       2       1       1
       2       1       1       2       1       1       2       1       1       2
       1       1       2       1       1       2       1       1       2       1
       1       2       1       1       2       1       1       2       1       1
       2       1       1       2       1       1       2       1       1       2
       1       1       2       1       1       2       1       1       2       1
       1       2       1       1       2       1       1       2       1       1
       2       1       1       2       1       1       2       1       1       2
       1       1       2       1       1       2       1       1       2       1
       1       2       1       1       2       1       1       2       1       1
       2       1       1       2       1       1       2       1       1       2
       1       1       2       1       1       2       1       1       2       1
       1       2       1       1       2       1       1       2       1       1
       2       1       1       2       1       1       2       1       1       2
       1       1       2       1       1       2       1       1       2       1
       1       2       1       1       2       1       1       2       1       1
       2       1       1       2       1       1       2       1       1       2
       1       1       2       1       1       2       1       1       2       1
       1       2       1       1       2       1       1       2       1       1
       2       1       1       2       1       1       2       1       1       2
       1       1       2       1       1       2       1       1       2       1
       1       2       1       1       2       1       1       2       1       1
       2       1       1       2       1       1       2       1       1       2
       1       1       2       1       1       2       1       1       2       1
       1       2       1       1       2       1       1       2       1       1
       2       1       1       2       1       1       2       1       1       2
       1       1       2       1       1       2       1       1       2       1
       1       2       1       1       2       1       1       2       1       1
       2       1       1       2       1       1       2       1       1       2
       1       1       2       1       1       2       1       1       2       1
       1       2       1       1       2       1       1       2       1       1
       2       1       1       2       1       1       2       1       1       2
       1       1       2       1       1       2       1       1       2       1
       1       2       1       1       2       1       1       2       1       1
       2       1       1       2       1       1       2       1       1       2
       1       1       2       1       1       2       1       1       2       1
       1       2       1       1       2       1       1       2       1       1
       2       1       1       2       1       1       2       1       1       2
       1       1       2       1       1       2       1       1       2       1
       1       2       1       1       2       1       1       2       1       1
       2       1       1       2       1       1       2       1       1       2
       1       1       2       1       1       2       1       1       2       1
       1       2       1       1       2       1       1       2       1       1
       2       1       1       2       1       1       2       1       1       2
       1       1       2       1       1       2       1       1       2       1
       1       2       1       1       2       1       1       2       1       1
       2       1       1       2       1       1       2       1       1       2
       1       1       2       1       1       2       1       1       2       1
       1       2       1       1       2       1       1       2       1       1
       2       1       1       2       1       1       2       1       1       2
       1       1       2       1       1       2       1       1       2       1
       1       2       1       1       2       1       1       2       1       1
       2       1       1       2       1       1       2       1       1       2
       1       1       2       1       1       2       1       1       2       1
       1       2       1       1       2       1       1       2       1       1
       2       1       1       2       1       1       2       1       1       2
       1       1       2       1       1       2       1       1       2       1
       1       2       1       1       2       1       1       2       1       1
       2       1       1       2       1       1       2       1       1       2
       1       1       2       1       1       2       1       1       2       1
       1       2       1       1       2       1       1       2       1       1
       2       1       1       2       1       1       2       1       1       2
       1       1       2       1       1       2       1       1       2       1
       1       2       1       1       2       1       1       2       1       1
       2       1       1       2       1       1       2       1       1       2
       1       1       2       1       1       2       1       1       2       1
       1       2       1       1       2       1       1       2       1       1
       2       1       1       2       1       1       2       1       1       2
       1       1       2       1       1       2       1       1       2       1
       1       2       1       1       2       1       1       2       1       1
       2       1       1       2       1       1       2       1       1       2
       1       1       2       1       1       2       1       1       2       1
       1       2       1       1       2       1       1       2       1       1
       2       1       1       2       1       1       2       1       1       2
       1       1       2       1       1       2       1       1       2       1
       1       2       1       1       2       1       1       2       1       1
       2       1       1       2       1       1       2       1       1       2
       1       1       2       1       1       2       1       1       2       1
       1       2       1       1       2       1       1       2       1       1
       2       1       1       2       1       1       2       1       1       2
       1       1       2       1       1       2       1       1       2       1
       1       2       1       1       2       1       1       2       1       1
       2       1       1       2       1       1       2       1       1       2
       1       1       2       1       1       2       1       1       2       1
       1       2       1       1       2       1       1       2       1       1
       2       1       1       2       1       1       2       1       1       2
       1       1       2       1       1       2       1       1       2       1
       1       2       1       1       2       1       1       2       1       1
       2       1       1       2       1       1       2       1       1       2
       1       1       2       1       1       2       1       1       2       1
       1       2       1       1       2       1       1       2       1       1
       2       1       1       2       1       1       2       1       1       2
       1       1       2       1       1       2       1       1       2       1
       1       2       1       1       2       1       1       2       1       1
       2       1       1       2       1       1       2       1       1       2
       1       1       2       1       1       2       1       1       2       1
       1       2       1       1       2       1       1       2       1       1
       2       1       1       2       1       1       2       1       1       2
       1       1       2       1       1       2       1       1       2       1
       1       2       1       1       2       1       1       2       1       1
       2       1       1       2       1       1       2       1       1       2
       1       1       2       1       1       2       1       1       2       1
       1       2       1       1       2       1       1       2       1       1
       2       1       1       2       1       1       2       1       1       2
       1       1       2       1       1       2       1       1       2       1
       1       2       1       1       2       1       1       2       1       1
       2       1       1       2       1       1       2       1       1       2
       1       1       2       1       1       2       1       1       2       1
       1       2       1       1       2       1       1       2       1       1
       2       1       1       2       1       1       2       1       1       2
       1       1       2       1       1       2       1       1       2       1
       1       2       1       1       2       1       1       2       1       1
       2       1       1       2       1       1       2       1       1       2
       1       1       2       1       1       2       1       1       2       1
       1       2       1       1       2       1       1       2       1       1
       2       1       1       2       1       1       2       1       1       2
       1       1       2       1       1       2       1       1       2       1
       1       2       1       1       2       1       1       2       1       1
       2       1       1       2       1       1       2       1       1       2
       1       1       2       1       1       2       1       1       2       1
       1       2       1       1       2       1       1       2       1       1
       2       1       1       2       1       1       2       1       1       2
       1       1       2       1       1       2       1       1       2       1
       1       2       1       1       2       1       1       2       1       1
       2       1       1       2       1       1       2       1       1       2
       1       1       2       1       1       2       1       1       2       1
       1       2       1       1       2       1       1       2       1       1
       2       1       1       2       1       1       2       1       1       2
       1       1       2       1       1       2       1       1       2       1
       1       2       1       1       2       1       1       2       1       1
       2       1       1       2       1       1       2       1       1       2
       1       1       2       1       1       2       1       1       2       1
       1       2       1       1       2       1       1       2       1       1
       2       1       1       2       1       1       2       1       1       2
       1       1       2       1       1       2       1       1       2       1
       1       2       1       1       2       1       1       2       1       1
       2       1       1       2       1       1       2       1       1       2
       1       1       2       1       1       2       1       1       2       1
       1       2       1       1       2       1       1       2       1       1
       2       1       1       2       1       1       2       1       1       2
       1       1       2       1       1       2       1       1       2       1
       1       2       1       1       2       1       1       2       1       1
       2       1       1       2       1       1       2       1       1       2
       1       1       2       1       1       2       1       1       2       1
       1       2       1       1       2       1       1       2       1       1
       2       1       1       2       1       1       2       1       1       2
       1       1       2       1       1       2       1       1       2       1
       1       2       1       1       2       1       1       2       1       1
       2       1       1       2       1       1       2       1       1       2
       1       1       2       1       1       2       1       1       2       1
       1       2       1       1       2       1       1       2       1       1
       2       1       1       2       1       1       2       1       1       2
       1       1       2       1       1       2       1       1       2       1
       1       2       1       1       2       1       1       2       1       1
       2       1       1       2       1       1       2       1       1       2
       1       1       2       1       1       2       1       1       2       1
       1       2       1       1       2       1       1       2       1       1
       2       1       1       2       1       1       2       1       1       2
       1       1       2       1       1       2       1       1       2       1
       1       2       1       1       2       1       1       2       1       1
       2       1       1       2       1       1       2       1       1       2
       1       1       2       1       1       2       1       1       2       1
       1       2       1       1       2       1       1       2       1       1
       2       1       1       2       1       1       2       1       1       2
       1       1       2       1       1       2       1       1       2       1
       1       2       1       1       2       1       1       2       1       1
       2       1       1       2       1       1       2       1       1       2
       1       1       2       1       1       2       1       1       2       1
       1       2       1       1       2       1       1       2       1       1
       2       1       1       2       1       1       2       1       1       2
       1       1       2       1       1       2       1       1       2       1
       1       2       1       1       2       1       1       2       1       1
       2       1       1       2       1       1       2       1       1       2
       1       1       2       1       1       2       1       1       2       1
       1       2       1       1       2       1       1       2       1       1
       2       1       1       2       1       1       2       1       1       2
       1       1       2       1       1       2       1       1       2       1
       1       2       1       1       2       1       1       2       1       1
       2       1       1       2       1       1       2       1       1       2
       1       1       2       1       1       2       1       1       2       1
       1       2       1       1       2       1       1       2       1       1
       2       1       1       2       1       1       2       1       1       2
       1       1       2       1       1       2       1       1       2       1
       1       2       1       1       2       1       1       2       1       1
       2       1       1       2       1       1       2       1       1       2
       1       1       2       1       1       2       1       1       2       1
       1       2       1       1       2       1       1       2       1       1
       2       1       1       2       1       1       2       1       1       2
       1       1       2       1       1       2       1       1       2       1
       1       2       1       1       2       1       1       2       1       1
       2       1       1       2       1       1       2       1       1       2
       1       1       2       1       1       2       1       1       2       1
       1       2       1       1       2       1       1       2       1       1
       2       1       1       2       1       1       2       1       1       2
       1       1       2       1       1       2       1       1       2       1
       1       2       1       1       2       1       1       2       1       1
       2       1       1       2       1       1       2       1       1       2
       1       1       2       1       1       2       1       1       2       1
       1       2       1       1       2       1       1       2       1       1
       2       1       1       2       1       1       2       1       1       2
       1       1       2       1       1       2       1       1       2       1
       1       2       1       1       2       1       1       2       1       1
       2       1       1       2       1       1       2       1       1       2
       1       1       2       1       1       2       1       1       2       1
       1       2       1       1       2       1       1       2       1       1
       2       1       1       2       1       1       2       1       1       2
       1       1       2       1       1       2       1       1       2       1
       1       2       1       1       2       1       1       2       1       1
       2       1       1       2       1       1       2       1       1       2
       1       1       2       1       1       2       1       1       2       1
       1       2       1       1       2       1       1       2       1       1
       2       1       1       2       1       1       2       1       1       2
       1       1       2       1       1       2       1       1       2       1
       1       2       1       1       2       1       1       2       1       1
       2       1       1       2       1       1       2       1       1       2
       1       1       2       1       1       2       1       1       2       1
       1       2       1       1       2       1       1       2       1       1
       2       1       1       2       1       1       2       1       1       2
       1       1       2       1       1       2       1       1       2       1
       1       2       1       1       2       1       1       2       1       1
       2       1       1       2       1       1       2       1       1       2
       1       1       2       1       1       2       1       1       2       1
       1       2       1       1       2       1       1       2       1       1
       2       1       1       2       1       1       2       1       1       2
       1       1       2       1       1       2       1       1       2       1
       1       2       1       1       2       1       1       2       1       1
       2       1       1       2       1       1       2       1       1       2
       1       1       2       1       1       2       1       1       2       1
       1       2       1       1       2       1       1       2       1       1
       2       1       1       2       1       1       2       1       1       2
       1       1       2       1       1       2       1       1       2       1
       1       2       1       1       2       1       1       2       1       1
       2       1       1       2       1       1       2       1       1       2
       1       1       2       1       1       2       1       1       2       1
       1       2       1       1       2       1       1       2       1       1
       2       1       1       2       1       1       2       1       1       2
       1       1       2       1       1       2       1       1       2       1
       1       2       1       1       2       1       1       2       1       1
       2       1       1       2       1       1       2       1       1       2
       1       1       2       1       1       2       1       1       2       1
       1       2       1       1       2       1       1       2       1       1
       2       1       1       2       1       1       2       1       1       2
       1       1       2       1       1       2       1       1       2       1
       1       2       1       1       2       1       1       2       1       1
       2       1       1       2       1       1       2       1       1       2
       1       1       2       1       1       2       1       1       2       1
       1       2       1       1       2       1       1       2       1       1
       2       1       1       2       1       1       2       1       1       2
       1       1       2       1       1       2       1       1       2       1
       1       2       1       1       2       1       1       2       1       1
       2       1       1       2       1       1       2       1       1       2
       1       1       2       1       1       2       1       1       2       1
       1       2       1       1       2       1       1       2       1       1
       2       1       1       2       1       1       2       1       1       2
       1       1       2       1       1       2       1       1       2       1
       1       2       1       1       2       1       1       2       1       1
       2       1       1       2       1       1       2       1       1       2
       1       1       2       1       1       2       1       1       2       1
       1       2       1       1       2       1       1       2       1       1
       2       1       1       2       1       1       2       1       1       2
       1       1       2       1       1       2       1       1       2       1
       1       2       1       1       2       1       1       2       1       1
       2       1       1       2       1       1       2       1       1       2
       1       1       2       1       1       2       1       1       2       1
       1       2       1       1       2       1       1       2       1       1
       2       1       1       2       1       1       2       1       1       2
       1       1       2       1       1       2       1       1       2       1
       1       2       1       1       2       1       1       2       1       1
       2       1       1       2       1       1       2       1       1       2
       1       1       2       1       1       2       1       1       2       1
       1       2       1       1       2       1       1       2       1       1
       2       1       1       2       1       1       2       1       1       2
       1       1       2       1       1       2       1       1       2       1
       1       2       1       1       2       1       1       2       1       1
       2       1       1       2       1       1       2       1       1       2
       1       1       2       1       1       2       1       1       2       1
       1       2       1       1       2       1       1       2       1       1
       2       1       1       2       1       1       2       1       1       2
       1       1       2       1       1       2       1       1       2       1
       1       2       1       1       2       1       1       2       1       1
       2       1       1       2       1       1       2       1       1       2
       1       1       2       1       1       2       1       1       2       1
       1       2       1       1       2       1       1       2       1       1
       2       1       1       2       1       1       2       1       1       2
       1       1       2       1       1       2       1       1       2       1
       1       2       1       1       2       1       1       2       1       1
       2       1       1       2       1       1       2       1       1       2
       1       1       2       1       1       2       1       1       2       1
       1       2       1       1       2       1       1       2       1       1
       2       1       1       2       1       1       2       1       1       2
       1       1       2       1       1       2       1       1       2       1
       1       2       1       1       2       1       1       2       1       1
       2       1       1       2       1       1       2       1       1       2
       1       1       2       1       1       2       1       1       2       1
       1       2       1       1       2       1       1       2       1       1
       2       1       1       2       1       1       2       1       1       2
       1       1       2       1       1       2       1       1       2       1
       1       2       1       1       2       1       1       2       1       1
       2       1       1       2       1       1       2       1       1       2
       1       1       2       1       1       2       1       1       2       1
       1       2       1       1       2       1       1       2       1       1
       2       1       1       2       1       1       2       1       1       2
       1       1       2       1       1       2       1       1       2       1
       1       2       1       1       2       1       1       2       1       1
       2       1       1       2       1       1       2       1       1       2
       1       1       2       1       1       2       1       1       2       1
       1       2       1       1       2       1       1       2       1       1
       2       1       1       2       1       1       2       1       1       2
       1       1       2       1       1       2       1       1       2       1
       1       2       1       1       2       1       1       2       1       1
       2       1       1       2       1       1       2       1       1       2
       1       1       2       1       1       2       1       1       2       1
       1       2       1       1       2       1       1       2       1       1
       2       1       1       2       1       1       2       1       1       2
       1       1       2       1       1       2       1       1       2       1
       1       2       1       1       2       1       1       2       1       1
       2       1       1       2       1       1       2       1       1       2
       1       1       2       1       1       2       1       1       2       1
       1       2       1       1       2       1       1       2       1       1
       2       1       1       2       1       1       2       1       1       2
       1       1       2       1       1       2       1       1       2       1
       1       2       1       1       2       1       1       2       1       1
       2       1       1       2       1       1       2       1       1       2
       1       1       2       1       1       2       1       1       2       1
       1       2       1       1       2       1       1       2       1       1
       2       1       1       2       1       1       2       1       1       2
       1       1       2       1       1       2       1       1       2       1
       1       2       1       1       2       1       1       2       1       1
       2       1       1       2       1       1       2       1       1       2
       1       1       2       1       1       2       1       1       2       1
       1       2       1       1       2       1       1       2       1       1
       2       1       1       2       1       1       2       1       1       2
       1       1       2       1       1       2       1       1       2       1
       1       2       1       1       2       1       1       2       1       1
       2       1       1       2       1       1       2       1       1       2
       1       1       2       1       1       2       1       1       2       1
       1       2       1       1       2       1       1       2       1       1
       2       1       1       2       1       1       2       1       1       2
       1       1       2       1       1       2       1       1       2       1
       1       2       1       1       2       1       1       2       1       1
       2       1       1       2       1       1       2       1       1       2
       1       1       2       1       1       2       1       1       2       1
       1       2       1       1       2       1       1       2       1       1
       2       1       1       2       1       1       2       1       1       2
       1       1       2       1       1       2       1       1       2       1
       1       2       1       1       2       1       1       2       1       1
       2       1       1       2       1       1       2       1       1       2
       1       1       2       1       1       2       1       1       2       1
       1       2       1       1       2       1       1       2       1       1
       2       1       1       2       1       1       2       1       1       2
       1       1       2       1       1       2       1       1       2       1
       1       2       1       1       2       1       1       2       1       1
       2       1       1       2       1       1       2       1       1       2
       1       1       2       1       1       2       1       1       2       1
       1       2       1       1       2       1       1       2       1       1
       2       1       1       2       1       1       2       1       1       2
       1       1       2       1       1       2       1       1       2       1
       1       2       1       1       2       1       1       2       1       1
       2       1       1       2       1       1       2       1       1       2
       1       1       2       1       1       2       1       1       2       1
       1       2       1       1       2       1       1       2       1       1
       2       1       1       2       1       1       2       1       1       2
       1       1       2       1       1       2       1       1       2       1
       1       2       1       1       2       1       1       2       1       1
       2       1       1       2       1       1       2       1       1       2
       1       1       2       1       1       2       1       1       2       1
       1       2       1       1       2       1       1       2       1       1
       2       1       1       2       1       1       2       1       1       2
       1       1       2       1       1       2       1       1       2       1
       1       2       1       1       2       1       1       2       1       1
       2       1       1       2       1       1       2       1       1       2
       1       1       2       1       1       2       1       1       2       1
       1       2       1       1       2       1       1       2       1       1
       2       1       1       2       1       1       2       1       1       2
       1       1       2       1       1       2       1       1       2       1
       1       2       1       1       2       1       1       2       1       1
       2       1       1       2       1       1       2       1       1       2
       1       1       2       1       1       2       1       1       2       1
       1       2       1       1       2       1       1       2       1       1
       2       1       1       2       1       1       2       1       1       2
       1       1       2       1       1       2       1       1       2       1
       1       2       1       1       2       1       1       2       1       1
       2       1       1       2       1       1       2       1       1       2
       1       1       2       1       1       2       1       1       2       1
       1       2       1       1       2       1       1       2       1       1
       2       1       1       2       1       1       2       1       1       2
       1       1       2       1       1       2       1       1       2       1
       1       2       1       1       2       1       1       2       1       1
       2       1       1       2       1       1       2       1       1       2
       1       1       2       1       1       2       1       1       2       1
       1       2       1       1       2       1       1       2       1       1
       2       1       1       2       1       1       2       1       1       2
       1       1       2       1       1       2       1       1       2       1
       1       2       1       1       2       1       1       2       1       1
       2       1       1       2       1       1       2       1       1       2
       1       1       2       1       1       2       1       1       2       1
       1       2       1       1       2       1       1       2       1       1
       2       1       1       2       1       1       2       1       1       2
       1       1       2       1       1       2       1       1       2       1
       1       2       1       1       2       1       1       2       1       1
       2       1       1       2       1       1       2       1       1       2
       1       1       2       1       1       2       1       1       2       1
       1       2       1       1       2       1       1       2       1       1
       2       1       1       2       1       1       2       1       1       2
       1       1       2       1       1       2       1       1       2       1
       1       2       1       1       2       1       1       2       1       1
       2       1       1       2       1       1       2       1       1       2
       1       1       2       1       1       2       1       1       2       1
       1       2       1       1       2       1       1       2       1       1
       2       1       1       2       1       1       2       1       1       2
       1       1       2       1       1       2       1       1       2       1
       1       2       1       1       2       1       1       2       1       1
       2       1       1       2       1       1       2       1       1       2
       1       1       2       1       1       2       1       1       2       1
       1       2       1       1       2       1       1       2       1       1
       2       1       1       2       1       1       2       1       1       2
       1       1       2       1       1       2       1       1       2       1
       1       2       1       1       2       1       1       2       1       1
       2       1       1       2       1       1       2       1       1       2
       1       1       2       1       1       2       1       1       2       1
       1       2       1       1       2       1       1       2       1       1
       2       1       1       2       1       1       2       1       1       2
       1       1       2       1       1       2       1       1       2       1
       1       2       1       1       2       1       1       2       1       1
       2       1       1       2       1       1       2       1       1       2
       1       1       2       1       1       2       1       1       2       1
       1       2       1       1       2       1       1       2       1       1
       2       1       1       2       1       1       2       1       1       2
       1       1       2       1       1       2       1       1       2       1
       1       2       1       1       2       1       1       2       1       1
       2       1       1       2       1       1       2       1       1       2
       1       1       2       1       1       2       1       1       2       1
       1       2       1       1       2       1       1       2       1       1
       2       1       1       2       1       1       2       1       1       2
       1       1       2       1       1       2       1       1       2       1
       1       2       1       1       2       1       1       2       1       1
       2       1       1       2       1       1       2       1       1       2
       1       1       2       1       1       2       1       1       2       1
       1       2       1       1       2       1       1       2       1       1
       2       1       1       2       1       1       2       1       1       2
       1       1       2       1       1       2       1       1       2       1
       1       2       1       1       2       1       1       2       1       1
       2       1       1       2       1       1       2       1       1       2
       1       1       2       1       1       2       1       1       2       1
       1       2       1       1       2       1       1       2       1       1
       2       1       1       2       1       1       2       1       1       2
       1       1       2       1       1       2       1       1       2       1
       1       2       1       1       2       1       1       2       1       1
       2       1       1       2       1       1       2       1       1       2
       1       1       2       1       1       2       1       1       2       1
       1       2       1       1       2       1       1       2       1       1
       2       1       1       2       1       1       2       1       1       2
       1       1       2       1       1       2       1       1       2       1
       1       2       1       1       2       1       1       2       1       1
       2       1       1       2       1       1       2       1       1       2
       1       1       2       1       1       2       1       1       2       1
       1       2       1       1       2       1       1       2       1       1
       2       1       1       2       1       1       2       1       1       2
       1       1       2       1       1       2       1       1       2       1
       1       2       1       1       2       1       1       2       1       1
       2       1       1       2       1       1       2       1       1       2
       1       1       2       1       1       2       1       1       2       1
       1       2       1       1       2       1       1       2       1       1
       2       1       1       2       1       1       2       1       1       2
       1       1       2       1       1       2       1       1       2       1
       1       2       1       1       2       1       1       2       1       1
       2       1       1       2       1       1       2       1       1       2
       1       1       2       1       1       2       1       1       2       1
       1       2       1       1       2       1       1       2       1       1
       2       1       1       2       1       1       2       1       1       2
       1       1       2       1       1       2       1       1       2       1
       1       2       1       1       2       1       1       2       1       1
       2       1       1       2       1       1       2       1       1       2
       1       1       2       1       1       2       1       1       2       1
       1       2       1       1       2       1       1       2       1       1
       2       1       1       2       1       1       2       1       1       2
       1       1       2       1       1       2       1       1       2       1
       1       2       1       1       2       1       1       2       1       1
       2       1       1       2       1       1       2       1       1       2
       1       1       2       1       1       2       1       1       2       1
       1       2       1       1       2       1       1       2       1       1
       2       1       1       2       1       1       2       1       1       2
       1       1       2       1       1       2       1       1       2       1
       1       2       1       1       2       1       1       2       1       1
       2       1       1       2       1       1       2       1       1       2
       1       1       2       1       1       2       1       1       2       1
       1       2       1       1       2       1       1       2       1       1
       2       1       1       2       1       1       2       1       1       2
       1       1       2       1       1       2       1       1       2       1
       1       2       1       1       2       1       1       2       1       1
       2       1       1       2       1       1       2       1       1       2
       1       1       2       1       1       2       1       1       2       1
       1       2       1       1       2       1       1       2       1       1
       2       1       1       2       1       1       2       1       1       2
       1       1       2       1       1       2       1       1       2       1
       1       2       1       1       2       1       1       2       1       1
       2       1       1       2       1       1       2       1       1       2
       1       1       2       1       1       2       1       1       2       1
       1       2       1       1       2       1       1       2       1       1
       2       1       1       2       1       1       2       1       1       2
       1       1       2       1       1       2       1       1       2       1
       1       2       1       1       2       1       1       2       1       1
       2       1       1       2       1       1       2       1       1       2
       1       1       2       1       1       2       1       1       2       1
       1       2       1       1       2       1       1       2       1       1
       2       1       1       2       1       1       2       1       1       2
       1       1       2       1       1       2       1       1       2       1
       1       2       1       1       2       1       1       2       1       1
       2       1       1       2       1       1       2       1       1       2
       1       1       2       1       1       2       1       1       2       1
       1       2       1       1       2       1       1       2       1       1
       2       1       1       2       1       1       2       1       1       2
       1       1       2       1       1       2       1       1       2       1
       1       2       1       1       2       1       1       2       1       1
       2       1       1       2       1       1       2       1       1       2
       1       1       2       1       1       2       1       1       2       1
       1       2       1       1       2       1       1       2       1       1
       2       1       1       2       1       1       2       1       1       2
       1       1       2       1       1       2       1       1       2       1
       1       2       1       1       2       1       1       2       1       1
       2       1       1       2       1       1       2       1       1       2
       1       1       2       1       1       2       1       1       2       1
       1       2       1       1       2       1       1       2       1       1
       2       1       1       2       1       1       2       1       1       2
       1       1       2       1       1       2       1       1       2       1
       1       2       1       1       2       1       1       2       1       1
       2       1       1       2       1       1       2       1       1       2
       1       1       2       1       1       2       1       1       2       1
       1       2       1       1       2       1       1       2       1       1
       2       1       1       2       1       1       2       1       1       2
       1       1       2       1       1       2       1       1       2       1
       1       2       1       1       2       1       1       2       1       1
       2       1       1       2       1       1       2       1       1       2
       1       1       2       1       1       2       1       1       2       1
       1       2       1       1       2       1       1       2       1       1
       2       1       1       2       1       1       2       1       1       2
       1       1       2       1       1       2       1       1       2       1
       1       2       1       1       2       1       1       2       1       1
       2       1       1       2       1       1       2       1       1       2
       1       1       2       1       1       2       1       1       2       1
       1       2       1       1       2       1       1       2       1       1
       2       1       1       2       1       1       2       1       1       2
       1       1       2       1       1       2       1       1       2       1
       1       2       1       1       2       1       1       2       1       1
       2       1       1       2       1       1       2       1       1       2
       1       1       2       1       1       2       1       1       2       1
       1       2       1       1       2       1       1       2       1       1
       2       1       1       2       1       1       2       1       1       2
       1       1       2       1       1       2       1       1       2       1
       1       2       1       1       2       1       1       2       1       1
       2       1       1       2       1       1       2       1       1       2
       1       1       2       1       1       2       1       1       2       1
       1       2       1       1       2       1       1       2       1       1
       2       1       1       2       1       1       2       1       1       2
       1       1       2       1       1       2       1       1       2       1
       1       2       1       1       2       1       1       2       1       1
       2       1       1       2       1       1       2       1       1       2
       1       1       2       1       1       2       1       1       2       1
       1       2       1       1       2       1       1       2       1       1
       2       1       1       2       1       1       2       1       1       2
       1       1       2       1       1       2       1       1       2       1
       1       2       1       1       2       1       1       2       1       1
       2       1       1       2       1       1       2       1       1       2
       1       1       2       1       1       2       1       1       2       1
       1       2       1       1       2       1       1       2       1       1
       2       1       1       2       1       1       2       1       1       2
       1       1       2       1       1       2       1       1       2       1
       1       2       1       1       2       1       1       2       1       1
       2       1       1       2       1       1       2       1       1       2
       1       1       2       1       1       2       1       1       2       1
       1       2       1       1       2       1       1       2       1       1
       2       1       1       2       1       1       2       1       1       2
       1       1       2       1       1       2       1       1       2       1
       1       2       1       1       2       1       1       2       1       1
       2       1       1       2       1       1       2       1       1       2
       1       1       2       1       1       2       1       1       2       1
       1       2       1       1       2       1       1       2       1       1
       2       1       1       2       1       1       2       1       1       2
       1       1       2       1       1       2       1       1       2       1
       1       2       1       1       2       1       1       2       1       1
       2       1       1       2       1       1       2       1       1       2
       1       1       2       1       1       2       1       1       2       1
       1       2       1       1       2       1       1       2       1       1
       2       1       1       2       1       1       2       1       1       2
       1       1       2       1       1       2       1       1       2       1
       1       2       1       1       2       1       1       2       1       1
       2       1       1       2       1       1       2       1       1       2
       1       1       2       1       1       2       1       1       2       1
       1       2       1       1       2       1       1       2       1       1
       2       1       1       2       1       1       2       1       1       2
       1       1       2       1       1       2       1       1       2       1
       1       2       1       1       2       1       1       2       1       1
       2       1       1       2       1       1       2       1       1       2
       1       1       2       1       1       2       1       1       2       1
       1       2       1       1       2       1       1       2       1       1
       2       1       1       2       1       1       2       1       1       2
       1       1       2       1       1       2       1       1       2       1
       1       2       1       1       2       1       1       2       1       1
       2       1       1       2       1       1       2       1       1       2
       1       1       2       1       1       2       1       1       2       1
       1       2       1       1       2       1       1       2       1       1
       2       1       1       2       1       1       2       1       1       2
       1       1       2       1       1       2       1       1       2       1
       1       2       1       1       2       1       1       2       1       1
       2       1       1       2       1       1       2       1       1       2
       1       1       2       1       1       2       1       1       2       1
       1       2       1       1       2       1       1       2       1       1
       2       1       1       2       1       1       2       1       1       2
       1       1       2       1       1       2       1       1       2       1
       1       2       1       1       2       1       1       2       1       1
       2       1       1       2       1       1       2       1       1       2
       1       1       2       1       1       2       1       1       2       1
       1       2       1       1       2       1       1       2       1       1
       2       1       1       2       1       1       2       1       1       2
       1       1       2       1       1       2       1       1       2       1
       1       2       1       1       2       1       1       2       1       1
       2       1       1       2       1       1       2       1       1       2
       1       1       2       1       1       2       1       1       2       1
       1       2       1       1       2       1       1       2       1       1
       2       1       1       2       1       1       2       1       1       2
       1       1       2       1       1       2       1       1       2       1
       1       2       1       1       2       1       1       2       1       1
       2       1       1       2       1       1       2       1       1       2
       1       1       2       1       1       2       1       1       2       1
       1       2       1       1       2       1       1       2       1       1
       2       1       1       2       1       1       2       1       1       2
       1       1       2       1       1       2       1       1       2       1
       1       2       1       1       2       1       1       2       1       1
       2       1       1       2       1       1       2       1       1       2
       1       1       2       1       1       2       1       1       2       1
       1       2       1       1       2       1       1       2       1       1
       2       1       1       2       1       1       2       1       1       2
       1       1       2       1       1       2       1       1       2       1
       1       2       1       1       2       1       1       2       1       1
       2       1       1       2       1       1       2       1       1       2
       1       1       2       1       1       2       1       1       2       1
       1       2       1       1       2       1       1       2       1       1
       2       1       1       2       1       1       2       1       1       2
       1       1       2       1       1       2       1       1       2       1
       1       2       1       1       2       1       1       2       1       1
       2       1       1       2       1       1       2       1       1       2
       1       1       2       1       1       2       1       1       2       1
       1       2       1       1       2       1       1       2       1       1
       2       1       1       2       1       1       2       1       1       2
       1       1       2       1       1       2       1       1       2       1
       1       2       1       1       2       1       1       2       1       1
       2       1       1       2       1       1       2       1       1       2
       1       1       2       1       1       2       1       1       2       1
       1       2       1       1       2       1       1       2       1       1
       2       1       1       2       1       1       2       1       1       2
       1       1       2       1       1       2       1       1       2       1
       1       2       1       1       2       1       1       2       1       1
       2       1       1       2       1       1       2       1       1       2
       1       1       2       1       1       2       1       1       2       1
       1       2       1       1       2       1       1       2       1       1
       2       1       1       2       1       1       2       1       1       2
       1       1       2       1       1       2       1       1       2       1
       1       2       1       1       2       1       1       2       1       1
       2       1       1       2       1       1       2       1       1       2
       1       1       2       1       1       2       1       1       2       1
       1       2       1       1       2       1       1       2       1       1
       2       1       1       2       1       1       2       1       1       2
       1       1       2       1       1       2       1       1       2       1
       1       2       1       1       2       1       1       2       1       1
       2       1       1       2       1       1       2       1       1       2
       1       1       2       1       1       2       1       1       2       1
       1       2       1       1       2       1       1       2       1       1
       2       1       1       2       1       1       2       1       1       2
       1       1       2       1       1       2       1       1       2       1
       1       2       1       1       2       1       1       2       1       1
       2       1       1       2       1       1       2       1       1       2
       1       1       2       1       1       2       1       1       2       1
       1       2       1       1       2       1       1       2       1       1
       2       1       1       2       1       1       2       1       1       2
       1       1       2       1       1       2       1       1       2       1
       1       2       1       1       2       1       1       2       1       1
       2       1       1       2       1       1       2       1       1       2
       1       1       2       1       1       2       1       1       2       1
       1       2       1       1       2       1       1       2       1       1
       2       1       1       2       1       1       2       1       1       2
       1       1       2       1       1       2       1       1       2       1
       1       2       1       1       2       1       1       2       1       1
       2       1       1       2       1       1       2       1       1       2
       1       1       2       1       1       2       1       1       2       1
       1       2       1       1       2       1       1       2       1       1
       2       1       1       2       1       1       2       1       1       2
       1       1       2       1       1       2       1       1       2       1
       1       2       1       1       2       1       1       2       1       1
       2       1       1       2       1       1       2       1       1       2
       1       1       2       1       1       2       1       1       2       1
       1       2       1       1       2       1       1       2       1       1
       2       1       1       2       1       1       2       1       1       2
       1       1       2       1       1       2       1       1       2       1
       1       2       1       1       2       1       1       2       1       1
       2       1       1       2       1       1       2       1       1       2
       1       1       2       1       1       2       1       1       2       1
       1       2       1       1       2       1       1       2       1       1
       2       1       1       2       1       1       2       1       1       2
       1       1       2       1       1       2       1       1       2       1
       1       2       1       1       2       1       1       2       1       1
       2       1       1       2       1       1       2       1       1       2
       1       1       2       1       1       2       1       1       2       1
       1       2       1       1       2       1       1       2       1       1
       2       1       1       2       1       1       2       1       1       2
       1       1       2       1       1       2       1       1       2       1
       1       2       1       1       2       1       1       2       1       1
       2       1       1       2       1       1       2       1       1       2
       1       1       2       1       1       2       1       1       2       1
       1       2       1       1       2       1       1       2       1       1
       2       1       1       2       1       1       2       1       1       2
       1       1       2       1       1       2       1       1       2       1
       1       2       1       1       2       1       1       2       1       1
       2       1       1       2       1       1       2       1       1       2
       1       1       2       1       1       2       1       1       2       1
       1       2       1       1       2       1       1       2       1       1
       2       1       1       2       1       1       2       1       1       2
       1       1       2       1       1       2       1       1       2       1
       1       2       1       1       2       1       1       2       1       1
       2       1       1       2       1       1       2       1       1       2
       1       1       2       1       1       2       1       1       2       1
       1       2       1       1       2       1       1       2       1       1
       2       1       1       2       1       1       2       1       1       2
       1       1       2       1       1       2       1       1       2       1
       1       2       1       1       2       1       1       2       1       1
       2       1       1       2       1       1       2       1       1       2
       1       1       2       1       1       2       1       1       2       1
       1       2       1       1       2       1       1       2       1       1
       2       1       1       2       1       1       2       1       1       2
       1       1       2       1       1       2       1       1       2       1
       1       2       1       1       2       1       1       2       1       1
       2       1       1       2       1       1       2       1       1       2
       1       1       2       1       1       2       1       1       2       1
       1       2       1       1       2       1       1       2       1       1
       2       1       1       2       1       1       2       1       1       2
       1       1       2       1       1       2       1       1       2       1
       1       2       1       1       2       1       1       2       1       1
       2       1       1       2       1       1       2       1       1       2
       1       1       2       1       1       2       1       1       2       1
       1       2       1       1       2       1       1       2       1       1
       2       1       1       2       1       1       2       1       1       2
       1       1       2       1       1       2       1       1       2       1
       1       2       1       1       2       1       1       2       1       1
       2       1       1       2       1       1       2       1       1       2
       1       1       2       1       1       2       1       1       2       1
       1       2       1       1       2       1       1       2       1       1
       2       1       1       2       1       1       2       1       1       2
       1       1       2       1       1       2       1       1       2       1
       1       2       1       1       2       1       1       2       1       1
       2       1       1       2       1       1       2       1       1       2
       1       1       2       1       1       2       1       1       2       1
       1       2       1       1       2       1       1       2       1       1
       2       1       1       2       1       1       2       1       1       2
       1       1       2       1       1       2       1       1       2       1
       1       2       1       1       2       1       1       2       1       1
       2       1       1       2       1       1       2       1       1       2
       1       1       2       1       1       2       1       1       2       1
       1       2       1       1       2       1       1       2       1       1
       2       1       1       2       1       1       2       1       1       2
       1       1       2       1       1       2       1       1       2       1
       1       2       1       1       2       1       1       2       1       1
       2       1       1       2       1       1       2       1       1       2
       1       1       2       1       1       2       1       1       2       1
       1       2       1       1       2       1       1       2       1       1
       2       1       1       2       1       1       2       1       1       2
       1       1       2       1       1       2       1       1       2       1
       1       2       1       1       2       1       1       2       1       1
       2       1       1       2       1       1       2       1       1       2
       1       1       2       1       1       2       1       1       2       1
       1       2       1       1       2       1       1       2       1       1
       2       1       1       2       1       1       2       1       1       2
       1       1       2       1       1       2       1       1       2       1
       1       2       1       1       2       1       1       2       1       1
       2       1       1       2       1       1       2       1       1       2
       1       1       2       1       1       2       1       1       2       1
       1       2       1       1       2       1       1       2       1       1
       2       1       1       2       1       1       2       1       1       2
       1       1       2       1       1       2       1       1       2       1
       1       2       1       1       2       1       1       2       1       1
       2       1       1       2       1       1       2       1       1       2
       1       1       2       1       1       2       1       1       2       1
       1       2       1       1       2       1       1       2       1       1
       2       1       1       2       1       1       2       1       1       2
       1       1       2       1       1       2       1       1       2       1
       1       2       1       1       2       1       1       2       1       1
       2       1       1       2       1       1       2       1       1       2
       1       1       2       1       1       2       1       1       2       1
       1       2       1       1       2       1       1       2       1       1
       2       1       1       2       1       1       2       1       1       2
       1       1       2       1       1       2       1       1       2       1
       1       2       1       1       2       1       1       2       1       1
       2       1       1       2       1       1       2       1       1       2
       1       1       2       1       1       2       1       1       2       1
       1       2       1       1       2       1       1       2       1       1
       2       1       1       2       1       1       2       1       1       2
       1       1       2       1       1       2       1       1       2       1
       1       2       1       1       2       1       1       2       1       1
       2       1       1       2       1       1       2       1       1       2
       1       1       2       1       1       2       1       1       2       1
       1       2       1       1       2       1       1       2       1       1
       2       1       1       2       1       1       2       1       1       2
       1       1       2       1       1       2       1       1       2       1
       1       2       1       1       2       1       1       2       1       1
       2       1       1       2       1       1       2       1       1       2
       1       1       2       1       1       2       1       1       2       1
       1       2       1       1       2       1       1       2       1       1
       2       1       1       2       1       1       2       1       1       2
       1       1       2       1       1       2       1       1       2       1
       1       2       1       1       2       1       1       2       1       1
       2       1       1       2       1       1       2       1       1       2
       1       1       2       1       1       2       1       1       2       1
       1       2       1       1       2       1       1       2       1       1
       2       1       1       2       1       1       2       1       1       2
       1       1       2       1       1       2       1       1       2       1
       1       2       1       1       2       1       1       2       1       1
       2       1       1       2       1       1       2       1       1       2
       1       1       2       1       1       2       1       1       2       1
       1       2       1       1       2       1       1       2       1       1
       2       1       1       2       1       1       2       1       1       2
       1       1       2       1       1       2       1       1       2       1
       1       2       1       1       2       1       1       2       1       1
       2       1       1       2       1       1       2       1       1       2
       1       1       2       1       1       2       1       1       2       1
       1       2       1       1       2       1       1       2       1       1
       2       1       1       2       1       1       2       1       1       2
       1       1       2       1       1       2       1       1       2       1
       1       2       1       1       2       1       1       2       1       1
       2       1       1       2       1       1       2       1       1       2
       1       1       2       1       1       2       1       1       2       1
       1       2       1       1       2       1       1       2       1       1
       2       1       1       2       1       1       2       1       1       2
       1       1       2       1       1       2       1       1       2       1
       1       2       1       1       2       1       1       2       1       1
       2       1       1       2       1       1       2       1       1       2
       1       1       2       1       1       2       1       1       2       1
       1       2       1       1       2       1       1       2       1       1
       2       1       1       2       1       1       2       1       1       2
       1       1       2       1       1       2       1       1       2       1
       1       2       1       1       2       1       1       2       1       1
       2       1       1       2       1       1       2       1       1       2
       1       1       2       1       1       2       1       1       2       1
       1       2       1       1       2       1       1       2       1       1
       2       1       1       2       1       1       2       1       1       2
       1       1       2       1       1       2       1       1       2       1
       1       2       1       1       2       1       1       2       1       1
       2       1       1       2       1       1       2       1       1       2
       1       1       2       1       1       2       1       1       2       1
       1       2       1       1       2       1       1       2       1       1
       2       1       1       2       1       1       2       1       1       2
       1       1       2       1       1       2       1       1       2       1
       1       2       1       1       2       1       1       2       1       1
       2       1       1       2       1       1       2       1       1       2
       1       1       2       1       1       2       1       1       2       1
       1       2       1       1       2       1       1       2       1       1
       2       1       1       2       1       1       2       1       1       2
       1       1       2       1       1       2       1       1       2       1
       1       2       1       1       2       1       1       2       1       1
       2       1       1       2       1       1       2       1       1       2
       1       1       2       1       1       2       1       1       2       1
       1       2       1       1       2       1       1       2       1       1
       2       1       1       2       1       1       2       1       1       2
       1       1       2       1       1       2       1       1       2       1
       1       2       1       1       2       1       1       2       1       1
       2       1       1       2       1       1       2       1       1       2
       1       1       2       1       1       2       1       1       2       1
       1       2       1       1       2       1       1       2       1       1
       2       1       1       2       1       1       2       1       1       2
       1       1       2       1       1       2       1       1       2       1
       1       2       1       1       2       1       1       2       1       1
       2       1       1       2       1       1       2       1       1       2
       1       1       2       1       1       2       1       1       2       1
       1       2       1       1       2       1       1       2       1       1
       2       1       1       2       1       1       2       1       1       2
       1       1       2       1       1       2       1       1       2       1
       1       2       1       1       2       1       1       2       1       1
       2       1       1       2       1       1       2       1       1       2
       1       1       2       1       1       2       1       1       2       1
       1       2       1       1       2       1       1       2       1       1
       2       1       1       2       1       1       2       1       1       2
       1       1       2       1       1       2       1       1       2       1
       1       2       1       1       2       1       1       2       1       1
       2       1       1       2       1       1       2       1       1       2
       1       1       2       1       1       2       1       1       2       1
       1       2       1       1       2       1       1       2       1       1
       2       1       1       2       1       1       2       1       1       2
       1       1       2       1       1       2       1       1       2       1
       1       2       1       1       2       1       1       2       1       1
       2       1       1       2       1       1       2       1       1       2
       1       1       2       1       1       2       1       1       2       1
       1       2       1       1       2       1       1       2       1       1
       2       1       1       2       1       1       2       1       1       2
       1       1       2       1       1       2       1       1       2       1
       1       2       1       1       2       1       1       2       1       1
       2       1       1       2       1       1       2       1       1       2
       1       1       2       1       1       2       1       1       2       1
       1       2       1       1       2       1       1       2       1       1
       2       1       1       2       1       1       2       1       1       2
       1       1       2       1       1       2       1       1       2       1
       1       2       1       1       2       1       1       2       1       1
       2       1       1       2       1       1       2       1       1       2
       1       1       2       1       1       2       1       1       2       1
       1       2       1       1       2       1       1       2       1       1
       2       1       1       2       1       1       2       1       1       2
       1       1       2       1       1       2       1       1       2       1
       1       2       1       1       2       1       1       2       1       1
       2       1       1       2       1       1       2       1       1       2
       1       1       2       1       1       2       1       1       2       1
       1       2       1       1       2       1       1       2       1       1
       2       1       1       2       1       1       2       1       1       2
       1       1       2       1       1       2       1       1       2       1
       1       2       1       1       2       1       1       2       1       1
       2       1       1       2       1       1       2       1       1       2
       1       1       2       1       1       2       1       1       2       1
       1       2       1       1       2       1       1       2       1       1
       2       1       1       2       1       1       2       1       1       2
       1       1       2       1       1       2       1       1       2       1
       1       2       1       1       2       1       1       2       1       1
       2       1       1       2       1       1       2       1       1       2
       1       1       2       1       1       2       1       1       2       1
       1       2       1       1       2       1       1       2       1       1
       2       1       1       2       1       1       2       1       1       2
       1       1       2       1       1       2       1       1       2       1
       1       2       1       1       2       1       1       2       1       1
       2       1       1       2       1       1       2       1       1       2
       1       1       2       1       1       2       1       1       2       1
       1       2       1       1       2       1       1       2       1       1
       2       1       1       2       1       1       2       1       1       2
       1       1       2       1       1       2       1       1       2       1
       1       2       1       1       2       1       1       2       1       1
       2       1       1       2       1       1       2       1       1       2
       1       1       2       1       1       2       1       1       2       1
       1       2       1       1       2       1       1       2       1       1
       2       1       1       2       1       1       2       1       1       2
       1       1       2       1       1       2       1       1       2       1
       1       2       1       1       2       1       1       2       1       1
       2       1       1       2       1       1       2       1       1       2
       1       1       2       1       1       2       1       1       2       1
       1       2       1       1       2       1       1       2       1       1
       2       1       1       2       1       1       2       1       1       2
       1       1       2       1       1       2       1       1       2       1
       1       2       1       1       2       1       1       2       1       1
       2       1       1       2       1       1       2       1       1       2
       1       1       2       1       1       2       1       1       2       1
       1       2       1       1       2       1       1       2       1       1
       2       1       1       2       1       1       2       1       1       2
       1       1       2       1       1       2       1       1       2       1
       1       2       1       1       2       1       1       2       1       1
       2       1       1       2       1       1       2       1       1       2
       1       1       2       1       1       2       1       1       2       1
       1       2       1       1       2       1       1       2       1       1
       2       1       1       2       1       1       2       1       1       2
       1       1       2       1       1       2       1       1       2       1
       1       2       1       1       2       1       1       2       1       1
       2       1       1       2       1       1       2       1       1       2
       1       1       2       1       1       2       1       1       2       1
       1       2       1       1       2       1       1       2       1       1
       2       1       1       2       1       1       2       1       1       2
       1       1       2       1       1       2       1       1       2       1
       1       2       1       1       2       1       1       2       1       1
       2       1       1       2       1       1       2       1       1       2
       1       1       2       1       1       2       1       1       2       1
       1       2       1       1       2       1       1       2       1       1
       2       1       1       2       1       1       2       1       1       2
       1       1       2       1       1       2       1       1       2       1
       1       2       1       1       2       1       1       2       1       1
       2       1       1       2       1       1       2       1       1       2
       1       1       2       1       1       2       1       1       2       1
       1       2       1       1       2       1       1       2       1       1
       2       1       1       2       1       1       2       1       1       2
       1       1       2       1       1       2       1       1       2       1
       1       2       1       1       2       1       1       2       1       1
       2       1       1       2       1       1       2       1       1       2
       1       1       2       1       1       2       1       1       2       1
       1       2       1       1       2       1       1       2       1       1
       2       1       1       2       1       1       2       1       1       2
       1       1       2       1       1       2       1       1       2       1
       1       2       1       1       2       1       1       2       1       1
       2       1       1       2       1       1       2       1       1       2
       1       1       2       1       1       2       1       1       2       1
       1       2       1       1       2       1       1       2       1       1
       2       1       1       2       1       1       2       1       1       2
       1       1       2       1       1       2       1       1       2       1
       1       2       1       1       2       1       1       2       1       1
       2       1       1       2       1       1       2       1       1       2
       1       1       2       1       1       2       1       1       2       1
       1       2       1       1       2       1       1       2       1       1
       2       1       1       2       1       1       2       1       1       2
       1       1       2       1       1       2       1       1       2       1
       1       2       1       1       2       1       1       2       1       1
       2       1       1       2       1       1       2       1       1       2
       1       1       2       1       1       2       1       1       2       1
       1       2       1       1       2       1       1       2       1       1
       2       1       1       2       1       1       2       1       1       2
       1       1       2       1       1       2       1       1       2       1
       1       2       1       1       2       1       1       2       1       1
       2       1       1       2       1       1       2       1       1       2
       1       1       2       1       1       2       1       1       2       1
       1       2       1       1       2       1       1       2       1       1
       2       1       1       2       1       1       2       1       1       2
       1       1       2       1       1       2       1       1       2       1
       1       2       1       1       2       1       1       2       1       1
       2       1       1       2       1       1       2       1       1       2
       1       1       2       1       1       2       1       1       2       1
       1       2       1       1       2       1       1       2       1       1
       2       1       1       2       1       1       2       1       1       2
       1       1       2       1       1       2       1       1       2       1
       1       2       1       1       2       1       1       2       1       1
       2       1       1       2       1       1       2       1       1       2
       1       1       2       1       1       2       1       1       2       1
       1       2       1       1       2       1       1       2       1       1
       2       1       1       2       1       1       2       1       1       2
       1       1       2       1       1       2       1       1       2       1
       1       2       1       1       2       1       1       2       1       1
       2       1       1       2       1       1       2       1       1       2
       1       1       2       1       1       2       1       1       2       1
       1       2       1       1       2       1       1       2       1       1
       2       1       1       2       1       1       2       1       1       2
       1       1       2       1       1       2       1       1       2       1
       1       2       1       1       2       1       1       2       1       1
       2       1       1       2       1       1       2       1       1       2
       1       1       2       1       1       2       1       1       2       1
       1       2       1       1       2       1       1       2       1       1
       2       1       1       2       1       1       2       1       1       2
       1       1       2       1       1       2       1       1       2       1
       1       2       1       1       2       1       1       2       1       1
       2       1       1       2       1       1       2       1       1       2
       1       1       2       1       1       2       1       1       2       1
       1       2       1       1       2       1       1       2       1       1
       2       1       1       2       1       1       2       1       1       2
       1       1       2       1       1       2       1       1       2       1
       1       2       1       1       2       1       1       2       1       1
       2       1       1       2       1       1       2       1       1       2
       1       1       2       1       1       2       1       1       2       1
       1       2       1       1       2       1       1       2       1       1
       2       1       1       2       1       1       2       1       1       2
       1       1       2       1       1       2       1       1       2       1
       1       2       1       1       2       1       1       2       1       1
       2       1       1       2       1       1       2       1       1       2
       1       1       2       1       1       2       1       1       2       1
       1       2       1       1       2       1       1       2       1       1
       2       1       1       2       1       1       2       1       1       2
       1       1       2       1       1       2       1       1       2       1
       1       2       1       1       2       1       1       2       1       1
       2       1       1       2       1       1       2       1       1       2
       1       1       2       1       1       2       1       1       2       1
       1       2       1       1       2       1       1       2       1       1
       2       1       1       2       1       1       2       1       1       2
       1       1       2       1       1       2       1       1       2       1
       1       2       1       1       2       1       1       2       1       1
       2       1       1       2       1       1       2       1       1       2
       1       1       2       1       1       2       1       1       2       1
       1       2       1       1       2       1       1       2       1       1
       2       1       1       2       1       1       2       1       1       2
       1       1       2       1       1       2       1       1       2       1
       1       2       1       1       2       1       1       2       1       1
       2       1       1       2       1       1       2       1       1       2
       1       1       2       1       1       2       1       1       2       1
       1       2       1       1       2       1       1       2       1       1
       2       1       1       2       1       1       2       1       1       2
       1       1       2       1       1       2       1       1       2       1
       1       2       1       1       2       1       1       2       1       1
       2       1       1       2       1       1       2       1       1       2
       1       1       2       1       1       2       1       1       2       1
       1       2       1       1       2       1       1       2       1       1
       2       1       1       2       1       1       2       1       1       2
       1       1       2       1       1       2       1       1       2       1
       1       2       1       1       2       1       1       2       1       1
       2       1       1       2       1       1       2       1       1       2
       1       1       2       1       1       2       1       1       2       1
       1       2       1       1       2       1       1       2       1       1
       2       1       1       2       1       1       2       1       1       2
       1       1       2       1       1       2       1       1       2       1
       1       2       1       1       2       1       1       2       1       1
       2       1       1       2       1       1       2       1       1       2
       1       1       2       1       1       2       1       1       2       1
       1       2       1       1       2       1       1       2       1       1
       2       1       1       2       1       1       2       1       1       2
       1       1       2       1       1       2       1       1       2       1
       1       2       1       1       2       1       1       2       1       1
       2       1       1       2       1       1       2       1       1       2
       1       1       2       1       1       2       1       1       2       1
       1       2       1       1       2       1       1       2       1       1
       2       1       1       2       1       1       2       1       1       2
       1       1       2       1       1       2       1       1       2       1
       1       2       1       1       2       1       1       2       1       1
       2       1       1       2       1       1       2       1       1       2
       1       1       2       1       1       2       1       1       2       1
       1       2       1       1       2       1       1       2       1       1
       2       1       1       2       1       1       2       1       1       2
       1       1       2       1       1       2       1       1       2       1
       1       2       1       1       2       1       1       2       1       1
       2       1       1       2       1       1       2       1       1       2
       1       1       2       1       1       2       1       1       2       1
       1       2       1       1       2       1       1       2       1       1
       2       1       1       2       1       1       2       1       1       2
       1       1       2       1       1       2       1       1       2       1
       1       2       1       1       2       1       1       2       1       1
       2       1       1       2       1       1       2       1       1       2
       1       1       2       1       1       2       1       1       2       1
       1       2       1       1       2       1       1       2       1       1
       2       1       1       2       1       1       2       1       1       2
       1       1       2       1       1       2       1       1       2       1
       1       2       1       1       2       1       1       2       1       1
       2       1       1       2       1       1       2       1       1       2
       1       1       2       1       1       2       1       1       2       1
       1       2       1       1       2       1       1       2       1       1
       2       1       1       2       1       1       2       1       1       2
       1       1       2       1       1       2       1       1       2       1
       1       2       1       1       2       1       1       2       1       1
       2       1       1       2       1       1       2       1       1       2
       1       1       2       1       1       2       1       1       2       1
       1       2       1       1       2       1       1       2       1       1
       2       1       1       2       1       1       2       1       1       2
       1       1       2       1       1       2       1       1       2       1
       1       2       1       1       2       1       1       2       1       1
       2       1       1       2       1       1       2       1       1       2
       1       1       2       1       1       2       1       1       2       1
       1       2       1       1       2       1       1       2       1       1
       2       1       1       2       1       1       2       1       1       2
       1       1       2       1       1       2       1       1       2       1
       1       2       1       1       2       1       1       2       1       1
       2       1       1       2       1       1       2       1       1       2
       1       1       2       1       1       2       1       1       2       1
       1       2       1       1       2       1       1       2       1       1
       2       1       1       2       1       1       2       1       1       2
       1       1       2       1       1       2       1       1       2       1
       1       2       1       1       2       1       1       2       1       1
       2       1       1       2       1       1       2       1       1       2
       1       1       2       1       1       2       1       1       2       1
       1       2       1       1       2       1       1       2       1       1
       2       1       1       2       1       1       2       1       1       2
       1       1       2       1       1       2       1       1       2       1
       1       2       1       1       2       1       1       2       1       1
       2       1       1       2       1       1       2       1       1       2
       1       1       2       1       1       2       1       1       2       1
       1       2       1       1       2       1       1       2       1       1
       2       1       1       2       1       1       2       1       1       2
       1       1       2       1       1       2       1       1       2       1
       1       2       1       1       2       1       1       2       1       1
       2       1       1       2       1       1       2       1       1       2
       1       1       2       1       1       2       1       1       2       1
       1       2       1       1       2       1       1       2       1       1
       2       1       1       2       1       1       2       1       1       2
       1       1       2       1       1       2       1       1       2       1
       1       2       1       1       2       1       1       2       1       1
       2       1       1       2       1       1       2       1       1       2
       1       1       2       1       1       2       1       1       2       1
       1       2       1       1       2       1       1       2       1       1
       2       1       1       2       1       1       2       1       1       2
       1       1       2       1       1       2       1       1       2       1
       1       2       1       1       2       1       1       2       1       1
       2       1       1       2       1       1       2       1       1       2
       1       1       2       1       1       2       1       1       2       1
       1       2       1       1       2       1       1       2       1       1
       2       1       1       2       1       1       2       1       1       2
       1       1       2       1       1       2       1       1       2       1
       1       2       1       1       2       1       1       2       1       1
       2       1       1       2       1       1       2       1       1       2
       1       1       2       1       1       2       1       1       2       1
       1       2       1       1       2       1       1       2       1       1
       2       1       1       2       1       1       2       1       1       2
       1       1       2       1       1       2       1       1       2       1
       1       2       1       1       2       1       1       2       1       1
       2       1       1       2       1       1       2       1       1       2
       1       1       2       1       1       2       1       1       2       1
       1       2       1       1       2       1       1       2       1       1
       2       1       1       2       1       1       2       1       1       2
       1       1       2       1       1       2       1       1       2       1
       1       2       1       1       2       1       1       2       1       1
       2       1       1       2       1       1       2       1       1       2
       1       1       2       1       1       2       1       1       2       1
       1       2       1       1       2       1       1       2       1       1
       2       1       1       2       1       1       2       1       1       2
       1       1       2       1       1       2       1       1       2       1
       1       2       1       1       2       1       1       2       1       1
       2       1       1       2       1       1       2       1       1       2
       1       1       2       1       1       2       1       1       2       1
       1       2       1       1       2       1       1       2       1       1
       2       1       1       2       1       1       2       1       1       2
       1       1       2       1       1       2       1       1       2       1
       1       2       1       1       2       1       1       2       1       1
       2       1       1       2       1       1       2       1       1       2
       1       1       2       1       1       2       1       1       2       1
       1       2       1       1       2       1       1       2       1       1
       2       1       1       2       1       1       2       1       1       2
       1       1       2       1       1       2       1       1       2       1
       1       2       1       1       2       1       1       2       1       1
       2       1       1       2       1       1       2       1       1       2
       1       1       2       1       1       2       1       1       2       1
       1       2       1       1       2       1       1       2       1       1
       2       1       1       2       1       1       2       1       1       2
       1       1       2       1       1       2       1       1       2       1
       1       2       1       1       2       1       1       2       1       1
       2       1       1       2       1       1       2       1       1       2
       1       1       2       1       1       2       1       1       2       1
       1       2       1       1       2       1       1       2       1       1
       2       1       1       2       1       1       2       1       1       2
       1       1       2       1       1       2       1       1       2       1
       1       2       1       1       2       1       1       2       1       1
       2       1       1       2       1       1       2       1       1       2
       1       1       2       1       1       2       1       1       2       1
       1       2       1       1       2       1       1       2       1       1
       2       1       1       2       1       1       2       1       1       2
       1       1       2       1       1       2       1       1       2       1
       1       2       1       1       2       1       1       2       1       1
       2       1       1       2       1       1       2       1       1       2
       1       1       2       1       1       2       1       1       2       1
       1       2       1       1       2       1       1       2       1       1
       2       1       1       2       1       1       2       1       1       2
       1       1       2       1       1       2       1       1       2       1
       1       2       1       1       2       1       1       2       1       1
       2       1       1       2       1       1       2       1       1       2
       1       1       2       1       1       2       1       1       2       1
       1       2       1       1       2       1       1       2       1       1
       2       1       1       2       1       1       2       1       1       2
       1       1       2       1       1       2       1       1       2       1
       1       2       1       1       2       1       1       2       1       1
       2       1       1       2       1       1       2       1       1       2
       1       1       2       1       1       2       1       1       2       1
       1       2       1       1       2       1       1       2       1       1
       2       1       1       2       1       1       2       1       1       2
       1       1       2       1       1       2       1       1       2       1
       1       2       1       1       2       1       1       2       1       1
       2       1       1       2       1       1       2       1       1       2
       1       1       2       1       1       2       1       1       2       1
       1       2       1       1       2       1       1       2       1       1
       2       1       1       2       1       1       2       1       1       2
       1       1       2       1       1       2       1       1       2       1
       1       2       1       1       2       1       1       2       1       1
       2       1       1       2       1       1       2       1       1       2
       1       1       2       1       1       2       1       1       2       1
       1       2       1       1       2       1       1       2       1       1
       2       1       1       2       1       1       2       1       1       2
       1       1       2       1       1       2       1       1       2       1
       1       2       1       1       2       1       1       2       1       1
       2       1       1       2       1       1       2       1       1       2
       1       1       2       1       1       2       1       1       2       1
       1       2       1       1       2       1       1       2       1       1
       2       1       1       2       1       1       2       1       1       2
       1       1       2       1       1       2       1       1       2       1
       1       2       1       1       2       1       1       2       1       1
       2       1       1       2       1       1       2       1       1       2
       1       1       2       1       1       2       1       1       2       1
       1       2       1       1       2       1       1       2       1       1
       2       1       1       2       1       1       2       1       1       2
       1       1       2       1       1       2       1       1       2       1
       1       2       1       1       2       1       1       2       1       1
       2       1       1       2       1       1       2       1       1       2
       1       1       2       1       1       2       1       1       2       1
       1       2       1       1       2       1       1       2       1       1
       2       1       1       2       1       1       2       1       1       2
       1       1       2       1       1       2       1       1       2       1
       1       2       1       1       2       1       1       2       1       1
       2       1       1       2       1       1       2       1       1       2
       1       1       2       1       1       2       1       1       2       1
       1       2       1       1       2       1       1       2       1       1
       2       1       1       2       1       1       2       1       1       2
       1       1       2       1       1       2       1       1       2       1
       1       2       1       1       2       1       1       2       1       1
       2       1       1       2       1       1       2       1       1       2
       1       1       2       1       1       2       1       1       2       1
       1       2       1       1       2       1       1       2       1       1
       2       1       1       2       1       1       2       1       1       2
       1       1       2       1       1       2       1       1       2       1
       1       2       1       1       2       1       1       2       1       1
       2       1       1       2       1       1       2       1       1       2
       1       1       2       1       1       2       1       1       2       1
       1       2       1       1       2       1       1       2       1       1
       2       1       1       2       1       1       2       1       1       2
       1       1       2       1       1       2       1       1       2       1
       1       2       1       1       2       1       1       2       1       1
       2       1       1       2       1       1       2       1       1       2
       1       1       2       1       1       2       1       1       2       1
       1       2       1       1       2       1       1       2       1       1
       2       1       1       2       1       1       2       1       1       2
       1       1       2       1       1       2       1       1       2       1
       1       2       1       1       2       1       1       2       1       1
       2       1       1       2       1       1       2       1       1       2
       1       1       2       1       1       2       1       1       2       1
       1       2       1       1       2       1       1       2       1       1
       2       1       1       2       1       1       2       1       1       2
       1       1       2       1       1       2       1       1       2       1
       1       2       1       1       2       1       1       2       1       1
       2       1       1       2       1       1       2       1       1       2
       1       1       2       1       1       2       1       1       2       1
       1       2       1       1       2       1       1       2       1       1
       2       1       1       2       1       1       2       1       1       2
       1       1       2       1       1       2       1       1       2       1
       1       2       1       1       2       1       1       2       1       1
       2       1       1       2       1       1       2       1       1       2
       1       1       2       1       1       2       1       1       2       1
       1       2       1       1       2       1       1       2       1       1
       2       1       1       2       1       1       2       1       1       2
       1       1       2       1       1       2       1       1       2       1
       1       2       1       1       2       1       1       2       1       1
       2       1       1       2       1       1       2       1       1       2
       1       1       2       1       1       2       1       1       2       1
       1       2       1       1       2       1       1       2       1       1
       2       1       1       2       1       1       2       1       1       2
       1       1       2       1       1       2       1       1       2       1
       1       2       1       1       2       1       1       2       1       1
       2       1       1       2       1       1       2       1       1       2
       1       1       2       1       1       2       1       1       2       1
       1       2       1       1       2       1       1       2       1       1
       2       1       1       2       1       1       2       1       1       2
       1       1       2       1       1       2       1       1       2       1
       1       2       1       1       2       1       1       2       1       1
       2       1       1       2       1       1       2       1       1       2
       1       1       2       1       1       2       1       1       2       1
       1       2       1       1       2       1       1       2       1       1
       2       1       1       2       1       1       2       1       1       2
       1       1       2       1       1       2       1       1       2       1
       1       2       1       1       2       1       1       2       1       1
       2       1       1       2       1       1       2       1       1       2
       1       1       2       1       1       2       1       1       2       1
       1       2       1       1       2       1       1       2       1       1
       2       1       1       2       1       1       2       1       1       2
       1       1       2       1       1       2       1       1       2       1
       1       2       1       1       2       1       1       2       1       1
       2       1       1       2       1       1       2       1       1       2
       1       1       2       1       1       2       1       1       2       1
       1       2       1       1       2       1       1       2       1       1
       2       1       1       2       1       1       2       1       1       2
       1       1       2       1       1       2       1       1       2       1
       1       2       1       1       2       1       1       2       1       1
       2       1       1       2       1       1       2       1       1       2
       1       1       2       1       1       2       1       1       2       1
       1       2       1       1       2       1       1       2       1       1
       2       1       1       2       1       1       2       1       1       2
       1       1       2       1       1       2       1       1       2       1
       1       2       1       1       2       1       1       2       1       1
       2       1       1       2       1       1       2       1       1       2
       1       1       2       1       1       2       1       1       2       1
       1       2       1       1       2       1       1       2       1       1
       2       1       1       2       1       1       2       1       1       2
       1       1       2       1       1       2       1       1       2       1
       1       2       1       1       2       1       1       2       1       1
       2       1       1       2       1       1       2       1       1       2
       1       1       2       1       1       2       1       1       2       1
       1       2       1       1       2       1       1       2       1       1
       2       1       1       2       1       1       2       1       1       2
       1       1       2       1       1       2       1       1       2       1
       1       2       1       1       2       1       1       2       1       1
       2       1       1       2       1       1       2       1       1       2
       1       1       2       1       1       2       1       1       2       1
       1       2       1       1       2       1       1       2       1       1
       2       1       1       2       1       1       2       1       1       2
       1       1       2       1       1       2       1       1       2       1
       1       2       1       1       2       1       1       2       1       1
       2       1       1       2       1       1       2       1       1       2
       1       1       2       1       1       2       1       1       2       1
       1       2       1       1       2       1       1       2       1       1
       2       1       1       2       1       1       2       1       1       2
       1       1       2       1       1       2       1       1       2       1
       1       2       1       1       2       1       1       2       1       1
       2       1       1       2       1       1       2       1       1       2
       1       1       2       1       1       2       1       1       2       1
       1       2       1       1       2       1       1       2       1       1
       2       1       1       2       1       1       2       1       1       2
       1       1       2       1       1       2       1       1       2       1
       1       2       1       1       2       1       1       2       1       1
       2       1       1       2       1       1       2       1       1       2
       1       1       2       1       1       2       1       1       2       1
       1       2       1       1       2       1       1       2       1       1
       2       1       1       2       1       1       2       1       1       2
       1       1       2       1       1       2       1       1       2       1
       1       2       1       1       2       1       1       2       1       1
       2       1       1       2       1       1       2       1       1       2
       1       1       2       1       1       2       1       1       2       1
       1       2       1       1       2       1       1       2       1       1
       2       1       1       2       1       1       2       1       1       2
       1       1       2       1       1       2       1       1       2       1
       1       2       1       1       2       1       1       2       1       1
       2       1       1       2       1       1       2       1       1       2
       1       1       2       1       1       2       1       1       2       1
       1       2       1       1       2       1       1       2       1       1
       2       1       1       2       1       1       2       1       1       2
       1       1       2       1       1       2       1       1       2       1
       1       2       1       1       2       1       1       2       1       1
       2       1       1       2       1       1       2       1       1       2
       1       1       2       1       1       2       1       1       2       1
       1       2       1       1       2       1       1       2       1       1
       2       1       1       2       1       1       2       1       1       2
       1       1       2       1       1       2       1       1       2       1
       1       2       1       1       2       1       1       2       1       1
       2       1       1       2       1       1       2       1       1       2
       1       1       2       1       1       2       1       1       2       1
       1       2       1       1       2       1       1       2       1       1
       2       1       1       2       1       1       2       1       1       2
       1       1       2       1       1       2       1       1       2       1
       1       2       1       1       2       1       1       2       1       1
       2       1       1       2       1       1       2       1       1       2
       1       1       2       1       1       2       1       1       2       1
       1       2       1       1       2       1       1       2       1       1
       2       1       1       2       1       1       2       1       1       2
       1       1       2       1       1       2       1       1       2       1
       1       2       1       1       2       1       1       2       1       1
       2       1       1       2       1       1       2       1       1       2
       1       1       2       1       1       2       1       1       2       1
       1       2       1       1       2       1       1       2       1       1
       2       1       1       2       1       1       2       1       1       2
       1       1       2       1       1       2       1       1       2       1
       1       2       1       1       2       1       1       2       1       1
       2       1       1       2       1       1       2       1       1       2
       1       1       2       1       1       2       1       1       2       1
       1       2       1       1       2       1       1       2       1       1
       2       1       1       2       1       1       2       1       1       2
       1       1       2       1       1       2       1       1       2       1
       1       2       1       1       2       1       1       2       1       1
       2       1       1       2       1       1       2       1       1       2
       1       1       2       1       1       2       1       1       2       1
       1       2       1       1       2       1       1       2       1       1
       2       1       1       2       1       1       2       1       1       2
       1       1       2       1       1       2       1       1       2       1
       1       2       1       1       2       1       1       2       1       1
       2       1       1       2       1       1       2       1       1       2
       1       1       2       1       1       2       1       1       2       1
       1       2       1       1       2       1       1       2       1       1
       2       1       1       2       1       1       2       1       1       2
       1       1       2       1       1       2       1       1       2       1
       1       2       1       1       2       1       1       2       1       1
       2       1       1       2       1       1       2       1       1       2
       1       1       2       1       1       2       1       1       2       1
       1       2       1       1       2       1       1       2       1       1
       2       1       1       2       1       1       2       1       1       2
       1       1       2       1       1       2       1       1       2       1
       1       2       1       1       2       1       1       2       1       1
       2       1       1       2       1       1       2       1       1       2
       1       1       2       1       1       2       1       1       2       1
       1       2       1       1       2       1       1       2       1       1
       2       1       1       2       1       1       2       1       1       2
       1       1       2       1       1       2       1       1       2       1
       1       2       1       1       2       1       1       2       1       1
       2       1       1       2       1       1       2       1       1       2
       1       1       2       1       1       2       1       1       2       1
       1       2       1       1       2       1       1       2       1       1
       2       1       1       2       1       1       2       1       1       2
       1       1       2       1       1       2       1       1       2       1
       1       2       1       1       2       1       1       2       1       1
       2       1       1       2       1       1       2       1       1       2
       1       1       2       1       1       2       1       1       2       1
       1       2       1       1       2       1       1       2       1       1
       2       1       1       2       1       1       2       1       1       2
       1       1       2       1       1       2       1       1       2       1
       1       2       1       1       2       1       1       2       1       1
       2       1       1       2       1       1       2       1       1       2
       1       1       2       1       1       2       1       1       2       1
       1       2       1       1       2       1       1       2       1       1
       2       1       1       2       1       1       2       1       1       2
       1       1       2       1       1       2       1       1       2       1
       1       2       1       1       2       1       1       2       1       1
       2       1       1       2       1       1       2       1       1       2
       1       1       2       1       1       2       1       1       2       1
       1       2       1       1       2       1       1       2       1       1
       2       1       1       2       1       1       2       1       1       2
       1       1       2       1       1       2       1       1       2       1
       1       2       1       1       2       1       1       2       1       1
       2       1       1       2       1       1       2       1       1       2
       1       1       2       1       1       2       1       1       2       1
       1       2       1       1       2       1       1       2       1       1
       2       1       1       2       1       1       2       1       1       2
       1       1       2       1       1       2       1       1       2       1
       1       2       1       1       2       1       1       2       1       1
       2       1       1       2       1       1       2       1       1       2
       1       1       2       1       1       2       1       1       2       1
       1       2       1       1       2       1       1       2       1       1
       2       1       1       2       1       1       2       1       1       2
       1       1       2       1       1       2       1       1       2       1
       1       2       1       1       2       1       1       2       1       1
       2       1       1       2       1       1       2       1       1       2
       1       1       2       1       1       2       1       1       2       1
       1       2       1       1       2       1       1       2       1       1
       2       1       1       2       1       1       2       1       1       2
       1       1       2       1       1       2       1       1       2       1
       1       2       1       1       2       1       1       2       1       1
       2       1       1       2       1       1       2       1       1       2
       1       1       2       1       1       2       1       1       2       1
       1       2       1       1       2       1       1       2       1       1
       2       1       1       2       1       1       2       1       1       2
       1       1       2       1       1       2       1       1       2       1
       1       2       1       1       2       1       1       2       1       1
       2       1       1       2       1       1       2       1       1       2
       1       1       2       1       1       2       1       1       2       1
       1       2       1       1       2       1       1       2       1       1
       2       1       1       2       1       1       2       1       1       2
       1       1       2       1       1       2       1       1       2       1
       1       2       1       1       2       1       1       2       1       1
       2       1       1       2       1       1       2       1       1       2
       1       1       2       1       1       2       1       1       2       1
       1       2       1       1       2       1       1       2       1       1
       2       1       1       2       1       1       2       1       1       2
       1       1       2       1       1       2       1       1       2       1
       1       2       1       1       2       1       1       2       1       1
       2       1       1       2       1       1       2       1       1       2
       1       1       2       1       1       2       1       1       2       1
       1       2       1       1       2       1       1       2       1       1
       2       1       1       2       1       1       2       1       1       2
       1       1       2       1       1       2       1       1       2       1
       1       2       1       1       2       1       1       2       1       1
       2       1       1       2       1       1       2       1       1       2
       1       1       2       1       1       2       1       1       2       1
       1       2       1       1       2       1       1       2       1       1
       2       1       1       2       1       1       2       1       1       2
       1       1       2       1       1       2       1       1       2       1
       1       2       1       1       2       1       1       2       1       1
       2       1       1       2       1       1       2       1       1       2
       1       1       2       1       1       2       1       1       2       1
       1       2       1       1       2       1       1       2       1       1
       2       1       1       2       1       1       2       1       1       2
       1       1       2       1       1       2       1       1       2       1
       1       2       1       1       2       1       1       2       1       1
       2       1       1       2       1       1       2       1       1       2
       1       1       2       1       1       2       1       1       2       1
       1       2       1       1       2       1       1       2       1       1
       2       1       1       2       1       1       2       1       1       2
       1       1       2       1       1       2       1       1       2       1
       1       2       1       1       2       1       1       2       1       1
       2       1       1       2       1       1       2       1       1       2
       1       1       2       1       1       2       1       1       2       1
       1       2       1       1       2       1       1       2       1       1
       2       1       1       2       1       1       2       1       1       2
       1       1       2       1       1       2       1       1       2       1
       1       2       1       1       2       1       1       2       1       1
       2       1       1       2       1       1       2       1       1       2
       1       1       2       1       1       2       1       1       2       1
       1       2       1       1       2       1       1       2       1       1
       2       1       1       2       1       1       2       1       1       2
       1       1       2       1       1       2       1       1       2       1
       1       2       1       1       2       1       1       2       1       1
       2       1       1       2       1       1       2       1       1       2
       1       1       2       1       1       2       1       1       2       1
       1       2       1       1       2       1       1       2       1       1
       2       1       1       2       1       1       2       1       1       2
       1       1       2       1       1       2       1       1       2       1
       1       2       1       1       2       1       1       2       1       1
       2       1       1       2       1       1       2       1       1       2
       1       1       2       1       1       2       1       1       2       1
       1       2       1       1       2       1       1       2       1       1
       2       1       1       2       1       1       2       1       1       2
       1       1       2       1       1       2       1       1       2       1
       1       2       1       1       2       1       1       2       1       1
       2       1       1       2       1       1       2       1       1       2
       1       1       2       1       1       2       1       1       2       1
       1       2       1       1       2       1       1       2       1       1
       2       1       1       2       1       1       2       1       1       2
       1       1       2       1       1       2       1       1       2       1
       1       2       1       1       2       1       1       2       1       1
       2       1       1       2       1       1       2       1       1       2
       1       1       2       1       1       2       1       1       2       1
       1       2       1       1       2       1       1       2       1       1
       2       1       1       2       1       1       2       1       1       2
       1       1       2       1       1       2       1       1       2       1
       1       2       1       1       2       1       1       2       1       1
       2       1       1       2       1       1       2       1       1       2
       1       1       2       1       1       2       1       1       2       1
       1       2       1       1       2       1       1       2       1       1
       2       1       1       2       1       1       2       1       1       2
       1       1       2       1       1       2       1       1       2       1
       1       2       1       1       2       1       1       2       1       1
       2       1       1       2       1       1       2       1       1       2
       1       1       2       1       1       2       1       1       2       1
       1       2       1       1       2       1       1       2       1       1
       2       1       1       2       1       1       2       1       1       2
       1       1       2       1       1       2       1       1       2       1
       1       2       1       1       2       1       1       2       1       1
       2       1       1       2       1       1       2       1       1       2
       1       1       2       1       1       2       1       1       2       1
       1       2       1       1       2       1       1       2       1       1
       2       1       1       2       1       1       2       1       1       2
       1       1       2       1       1       2       1       1       2       1
       1       2       1       1       2       1       1       2       1       1
       2       1       1       2       1       1       2       1       1       2
       1       1       2       1       1       2       1       1       2       1
       1       2       1       1       2       1       1       2       1       1
       2       1       1       2       1       1       2       1       1       2
       1       1       2       1       1       2       1       1       2       1
       1       2       1       1       2       1       1       2       1       1
       2       1       1       2       1       1       2       1       1       2
       1       1       2       1       1       2       1       1       2       1
       1       2       1       1       2       1       1       2       1       1
       2       1       1       2       1       1       2       1       1       2
       1       1       2       1       1       2       1       1       2       1
       1       2       1       1       2       1       1       2       1       1
       2       1       1       2       1       1       2       1       1       2
       1       1       2       1       1       2       1       1       2       1
       1       2       1       1       2       1       1       2       1       1
       2       1       1       2       1       1       2       1       1       2
       1       1       2       1       1       2       1       1       2       1
       1       2       1       1       2       1       1       2       1       1
       2       1       1       2       1       1       2       1       1       2
       1       1       2       1       1       2       1       1       2       1
       1       2       1       1       2       1       1       2       1       1
       2       1       1       2       1       1       2       1       1       2
       1       1       2       1       1       2       1       1       2       1
       1       2       1       1       2       1       1       2       1       1
       2       1       1       2       1       1       2       1       1       2
       1       1       2       1       1       2       1       1       2       1
       1       2       1       1       2       1       1       2       1       1
       2       1       1       2       1       1       2       1       1       2
       1       1       2       1       1       2       1       1       2       1
       1       2       1       1       2       1       1       2       1       1
       2       1       1       2       1       1       2       1       1       2
       1       1       2       1       1       2       1       1       2       1
       1       2       1       1       2       1       1       2       1       1
       2       1       1       2       1       1       2       1       1       2
       1       1       2       1       1       2       1       1       2       1
       1       2       1       1       2       1       1       2       1       1
       2       1       1       2       1       1       2       1       1       2
       1       1       2       1       1       2       1       1       2       1
       1       2       1       1       2       1       1       2       1       1
       2       1       1       2       1       1       2       1       1       2
       1       1       2       1       1       2       1       1       2       1
       1       2       1       1       2       1       1       2       1       1
       2       1       1       2       1       1       2       1       1       2
       1       1       2       1       1       2       1       1       2       1
       1       2       1       1       2       1       1       2       1       1
       2       1       1       2       1       1       2       1       1       2
       1       1       2       1       1       2       1       1       2       1
       1       2       1       1       2       1       1       2       1       1
       2       1       1       2       1       1       2       1       1       2
       1       1       2       1       1       2       1       1       2       1
       1       2       1       1       2       1       1       2       1       1
       2       1       1       2       1       1       2       1       1       2
       1       1       2       1       1       2       1       1       2       1
       1       2       1       1       2       1       1       2       1       1
       2       1       1       2       1       1       2       1       1       2
       1       1       2       1       1       2       1       1       2       1
       1       2       1       1       2       1       1       2       1       1
       2       1       1       2       1       1       2       1       1       2
       1       1       2       1       1       2       1       1       2       1
       1       2       1       1       2       1       1       2       1       1
       2       1       1       2       1       1       2       1       1       2
       1       1       2       1       1       2       1       1       2       1
       1       2       1       1       2       1       1       2       1       1
       2       1       1       2       1       1       2       1       1       2
       1       1       2       1       1       2       1       1       2       1
       1       2       1       1       2       1       1       2       1       1
       2       1       1       2       1       1       2       1       1       2
       1       1       2       1       1       2       1       1       2       1
       1       2       1       1       2       1       1       2       1       1
       2       1       1       2       1       1       2       1       1       2
       1       1       2       1       1       2       1       1       2       1
       1       2       1       1       2       1       1       2       1       1
       2       1       1       2       1       1       2       1       1       2
       1       1       2       1       1       2       1       1       2       1
       1       2       1       1       2       1       1       2       1       1
       2       1       1       2       1       1       2       1       1       2
       1       1       2       1       1       2       1       1       2       1
       1       2       1       1       2       1       1       2       1       1
       2       1       1       2       1       1       2       1       1       2
       1       1       2       1       1       2       1       1       2       1
       1       2       1       1       2       1       1       2       1       1
       2       1       1       2       1       1       2       1       1       2
       1       1       2       1       1       2       1       1       2       1
       1       2       1       1       2       1       1       2       1       1
       2       1       1       2       1       1       2       1       1       2
       1       1       2       1       1       2       1       1       2       1
       1       2       1       1       2       1       1       2       1       1
       2       1       1       2       1       1       2       1       1       2
       1       1       2       1       1       2       1       1       2       1
       1       2       1       1       2       1       1       2       1       1
       2       1       1       2       1       1       2       1       1       2
       1       1       2       1       1       2       1       1       2       1
       1       2       1       1       2       1       1       2       1       1
       2       1       1       2       1       1       2       1       1       2
       1       1       2       1       1       2       1       1       2       1
       1       2       1       1       2       1       1       2       1       1
       2       1       1       2       1       1       2       1       1       2
       1       1       2       1       1       2       1       1       2       1
       1       2       1       1       2       1       1       2       1       1
       2       1       1       2       1       1       2       1       1       2
       1       1       2       1       1       2       1       1       2       1
       1       2       1       1       2       1       1       2       1       1
       2       1       1       2       1       1       2       1       1       2
       1       1       2       1       1       2       1       1       2       1
       1       2       1       1       2       1       1       2       1       1
       2       1       1       2       1       1       2       1       1       2
       1       1       2       1       1       2       1       1       2       1
       1       2       1       1       2       1       1       2       1       1
       2       1       1       2       1       1       2       1       1       2
       1       1       2       1       1       2       1       1       2       1
       1       2       1       1       2       1       1       2       1       1
       2       1       1       2       1       1       2       1       1       2
       1       1       2       1       1       2       1       1       2       1
       1       2       1       1       2       1       1       2       1       1
       2       1       1       2       1       1       2       1       1       2
       1       1       2       1       1       2       1       1       2       1
       1       2       1       1       2       1       1       2       1       1
       2       1       1       2       1       1       2       1       1       2
       1       1       2       1       1       2       1       1       2       1
       1       2       1       1       2       1       1       2       1       1
       2       1       1       2       1       1       2       1       1       2
       1       1       2       1       1       2       1       1       2       1
       1       2       1       1       2       1       1       2       1       1
       2       1       1       2       1       1       2       1       1       2
       1       1       2       1       1       2       1       1       2       1
       1       2       1       1       2       1       1       2       1       1
       2       1       1       2       1       1       2       1       1       2
       1       1       2       1       1       2       1       1       2       1
       1       2       1       1       2       1       1       2       1       1
       2       1       1       2       1       1       2       1       1       2
       1       1       2       1       1       2       1       1       2       1
       1       2       1       1       2       1       1       2       1       1
       2       1       1       2       1       1       2       1       1       2
       1       1       2       1       1       2       1       1       2       1
       1       2       1       1       2       1       1       2       1       1
       2       1       1       2       1       1       2       1       1       2
       1       1       2       1       1       2       1       1       2       1
       1       2       1       1       2       1       1       2       1       1
       2       1       1       2       1       1       2       1       1       2
       1       1       2       1       1       2       1       1       2       1
       1       2       1       1       2       1       1       2       1       1
       2       1       1       2       1       1       2       1       1       2
       1       1       2       1       1       2       1       1       2       1
       1       2       1       1       2       1       1       2       1       1
       2       1       1       2       1       1       2       1       1       2
       1       1       2       1       1       2       1       1       2       1
       1       2       1       1       2       1       1       2       1       1
       2       1       1       2       1       1       2       1       1       2
       1       1       2       1       1       2       1       1       2       1
       1       2       1       1       2       1       1       2       1       1
       2       1       1       2       1       1       2       1       1       2
       1       1       2       1       1       2       1       1       2       1
       1       2       1       1       2       1       1       2       1       1
       2       1       1       2       1       1       2       1       1       2
       1       1       2       1       1       2       1       1       2       1
       1       2       1       1       2       1       1       2       1       1
       2       1       1       2       1       1       2       1       1       2
       1       1       2       1       1       2       1       1       2       1
       1       2       1       1       2       1       1       2       1       1
       2       1       1       2       1       1       2       1       1       2
       1       1       2       1       1       2       1       1       2       1
       1       2       1       1       2       1       1       2       1       1
       2       1       1       2       1       1       2       1       1       2
       1       1       2       1       1       2       1       1       2       1
       1       2       1       1       2       1       1       2       1       1
       2       1       1       2       1       1       2       1       1       2
       1       1       2       1       1       2       1       1       2       1
       1       2       1       1       2       1       1       2       1       1
       2       1       1       2       1       1       2       1       1       2
       1       1       2       1       1       2       1       1       2       1
       1       2       1       1       2       1       1       2       1       1
       2       1       1       2       1       1       2       1       1       2
       1       1       2       1       1       2       1       1       2       1
       1       2       1       1       2       1       1       2       1       1
       2       1       1       2       1       1       2       1       1       2
       1       1       2       1       1       2       1       1       2       1
       1       2       1       1       2       1       1       2       1       1
       2       1       1       2       1       1       2       1       1       2
       1       1       2       1       1       2       1       1       2       1
       1       2       1       1       2       1       1       2       1       1
       2       1       1       2       1       1       2       1       1       2
       1       1       2       1       1       2       1       1       2       1
       1       2       1       1       2       1       1       2       1       1
       2       1       1       2       1       1       2       1       1       2
       1       1       2       1       1       2       1       1       2       1
       1       2       1       1       2       1       1       2       1       1
       2       1       1       2       1       1       2       1       1
%FLAG NONBONDED_PARM_INDEX                                                      
%FORMAT(10I8)                                                                   
       1       2       4       7      11      16      22      29      37      46
      56      67      79      92       2       3       5       8      12      17
      23      30      38      47      57      68      80      93       4       5
       6       9      13      18      24      31      39      48      58      69
      81      94       7       8       9      10      14      19      25      32
      40      49      59      70      82      95      11      12      13      14
      15      20      26      33      41      50      60      71      83      96
      16      17      18      19      20      21      27      34      42      51
      61      72      84      97      22      23      24      25      26      27
      28      35      43      52      62      73      85      98      29      30
      31      32      33      34      35      36      44      53      63      74
      86      99      37      38      39      40      41      42      43      44
      45      54      64      75      87     100      46      47      48      49
      50      51      52      53      54      55      65      76      88     101
      56      57      58      59      60      61      62      63      64      65
      66      77      89     102      67      68      69      70      71      72
      73      74      75      76      77      78      90     103      79      80
      81      82      83      84      85      86      87      88      89      90
      91     104      92      93      94      95      96      97      98      99
     100     101     102     103     104     105
%FLAG RESIDUE_LABEL                                                             
%FORMAT(20a4)                                                                   
PYR CPH MNF MON MON MON MON MON MON MON MON MNL CPT CPH MNF MON MON MON MON MON 
MON MON MON MNL CPT WAT WAT WAT WAT WAT WAT WAT WAT WAT WAT WAT WAT WAT WAT WAT 
WAT WAT WAT WAT WAT WAT WAT WAT WAT WAT WAT WAT WAT WAT WAT WAT WAT WAT WAT WAT 
WAT WAT WAT WAT WAT WAT WAT WAT WAT WAT WAT WAT WAT WAT WAT WAT WAT WAT WAT WAT 
WAT WAT WAT WAT WAT WAT WAT WAT WAT WAT WAT WAT WAT WAT WAT WAT WAT WAT WAT WAT 
WAT WAT WAT WAT WAT WAT WAT WAT WAT WAT WAT WAT WAT WAT WAT WAT WAT WAT WAT WAT 
WAT WAT WAT WAT WAT WAT WAT WAT WAT WAT WAT WAT WAT WAT WAT WAT WAT WAT WAT WAT 
WAT WAT WAT WAT WAT WAT WAT WAT WAT WAT WAT WAT WAT WAT WAT WAT WAT WAT WAT WAT 
WAT WAT WAT WAT WAT WAT WAT WAT WAT WAT WAT WAT WAT WAT WAT WAT WAT WAT WAT WAT 
WAT WAT WAT WAT WAT WAT WAT WAT WAT WAT WAT WAT WAT WAT WAT WAT WAT WAT WAT WAT 
WAT WAT WAT WAT WAT WAT WAT WAT WAT WAT WAT WAT WAT WAT WAT WAT WAT WAT WAT WAT 
WAT WAT WAT WAT WAT WAT WAT WAT WAT WAT WAT WAT WAT WAT WAT WAT WAT WAT WAT WAT 
WAT WAT WAT WAT WAT WAT WAT WAT WAT WAT WAT WAT WAT WAT WAT WAT WAT WAT WAT WAT 
WAT WAT WAT WAT WAT WAT WAT WAT WAT WAT WAT WAT WAT WAT WAT WAT WAT WAT WAT WAT 
WAT WAT WAT WAT WAT WAT WAT WAT WAT WAT WAT WAT WAT WAT WAT WAT WAT WAT WAT WAT 
WAT WAT WAT WAT WAT WAT WAT WAT WAT WAT WAT WAT WAT WAT WAT WAT WAT WAT WAT WAT 
WAT WAT WAT WAT WAT WAT WAT WAT WAT WAT WAT WAT WAT WAT WAT WAT WAT WAT WAT WAT 
WAT WAT WAT WAT WAT WAT WAT WAT WAT WAT WAT WAT WAT WAT WAT WAT WAT WAT WAT WAT 
WAT WAT WAT WAT WAT WAT WAT WAT WAT WAT WAT WAT WAT WAT WAT WAT WAT WAT WAT WAT 
WAT WAT WAT WAT WAT WAT WAT WAT WAT WAT WAT WAT WAT WAT WAT WAT WAT WAT WAT WAT 
WAT WAT WAT WAT WAT WAT WAT WAT WAT WAT WAT WAT WAT WAT WAT WAT WAT WAT WAT WAT 
WAT WAT WAT WAT WAT WAT WAT WAT WAT WAT WAT WAT WAT WAT WAT WAT WAT WAT WAT WAT 
WAT WAT WAT WAT WAT WAT WAT WAT WAT WAT WAT WAT WAT WAT WAT WAT WAT WAT WAT WAT 
WAT WAT WAT WAT WAT WAT WAT WAT WAT WAT WAT WAT WAT WAT WAT WAT WAT WAT WAT WAT 
WAT WAT WAT WAT WAT WAT WAT WAT WAT WAT WAT WAT WAT WAT WAT WAT WAT WAT WAT WAT 
WAT WAT WAT WAT WAT WAT WAT WAT WAT WAT WAT WAT WAT WAT WAT WAT WAT WAT WAT WAT 
WAT WAT WAT WAT WAT WAT WAT WAT WAT WAT WAT WAT WAT WAT WAT WAT WAT WAT WAT WAT 
WAT WAT WAT WAT WAT WAT WAT WAT WAT WAT WAT WAT WAT WAT WAT WAT WAT WAT WAT WAT 
WAT WAT WAT WAT WAT WAT WAT WAT WAT WAT WAT WAT WAT WAT WAT WAT WAT WAT WAT WAT 
WAT WAT WAT WAT WAT WAT WAT WAT WAT WAT WAT WAT WAT WAT WAT WAT WAT WAT WAT WAT 
WAT WAT WAT WAT WAT WAT WAT WAT WAT WAT WAT WAT WAT WAT WAT WAT WAT WAT WAT WAT 
WAT WAT WAT WAT WAT WAT WAT WAT WAT WAT WAT WAT WAT WAT WAT WAT WAT WAT WAT WAT 
WAT WAT WAT WAT WAT WAT WAT WAT WAT WAT WAT WAT WAT WAT WAT WAT WAT WAT WAT WAT 
WAT WAT WAT WAT WAT WAT WAT WAT WAT WAT WAT WAT WAT WAT WAT WAT WAT WAT WAT WAT 
WAT WAT WAT WAT WAT WAT WAT WAT WAT WAT WAT WAT WAT WAT WAT WAT WAT WAT WAT WAT 
WAT WAT WAT WAT WAT WAT WAT WAT WAT WAT WAT WAT WAT WAT WAT WAT WAT WAT WAT WAT 
WAT WAT WAT WAT WAT WAT WAT WAT WAT WAT WAT WAT WAT WAT WAT WAT WAT WAT WAT WAT 
WAT WAT WAT WAT WAT WAT WAT WAT WAT WAT WAT WAT WAT WAT WAT WAT WAT WAT WAT WAT 
WAT WAT WAT WAT WAT WAT WAT WAT WAT WAT WAT WAT WAT WAT WAT WAT WAT WAT WAT WAT 
WAT WAT WAT WAT WAT WAT WAT WAT WAT WAT WAT WAT WAT WAT WAT WAT WAT WAT WAT WAT 
WAT WAT WAT WAT WAT WAT WAT WAT WAT WAT WAT WAT WAT WAT WAT WAT WAT WAT WAT WAT 
WAT WAT WAT WAT WAT WAT WAT WAT WAT WAT WAT WAT WAT WAT WAT WAT WAT WAT WAT WAT 
WAT WAT WAT WAT WAT WAT WAT WAT WAT WAT WAT WAT WAT WAT WAT WAT WAT WAT WAT WAT 
WAT WAT WAT WAT WAT WAT WAT WAT WAT WAT WAT WAT WAT WAT WAT WAT WAT WAT WAT WAT 
WAT WAT WAT WAT WAT WAT WAT WAT WAT WAT WAT WAT WAT WAT WAT WAT WAT WAT WAT WAT 
WAT WAT WAT WAT WAT WAT WAT WAT WAT WAT WAT WAT WAT WAT WAT WAT WAT WAT WAT WAT 
WAT WAT WAT WAT WAT WAT WAT WAT WAT WAT WAT WAT WAT WAT WAT WAT WAT WAT WAT WAT 
WAT WAT WAT WAT WAT WAT WAT WAT WAT WAT WAT WAT WAT WAT WAT WAT WAT WAT WAT WAT 
WAT WAT WAT WAT WAT WAT WAT WAT WAT WAT WAT WAT WAT WAT WAT WAT WAT WAT WAT WAT 
WAT WAT WAT WAT WAT WAT WAT WAT WAT WAT WAT WAT WAT WAT WAT WAT WAT WAT WAT WAT 
WAT WAT WAT WAT WAT WAT WAT WAT WAT WAT WAT WAT WAT WAT WAT WAT WAT WAT WAT WAT 
WAT WAT WAT WAT WAT WAT WAT WAT WAT WAT WAT WAT WAT WAT WAT WAT WAT WAT WAT WAT 
WAT WAT WAT WAT WAT WAT WAT WAT WAT WAT WAT WAT WAT WAT WAT WAT WAT WAT WAT WAT 
WAT WAT WAT WAT WAT WAT WAT WAT WAT WAT WAT WAT WAT WAT WAT WAT WAT WAT WAT WAT 
WAT WAT WAT WAT WAT WAT WAT WAT WAT WAT WAT WAT WAT WAT WAT WAT WAT WAT WAT WAT 
WAT WAT WAT WAT WAT WAT WAT WAT WAT WAT WAT WAT WAT WAT WAT WAT WAT WAT WAT WAT 
WAT WAT WAT WAT WAT WAT WAT WAT WAT WAT WAT WAT WAT WAT WAT WAT WAT WAT WAT WAT 
WAT WAT WAT WAT WAT WAT WAT WAT WAT WAT WAT WAT WAT WAT WAT WAT WAT WAT WAT WAT 
WAT WAT WAT WAT WAT WAT WAT WAT WAT WAT WAT WAT WAT WAT WAT WAT WAT WAT WAT WAT 
WAT WAT WAT WAT WAT WAT WAT WAT WAT WAT WAT WAT WAT WAT WAT WAT WAT WAT WAT WAT 
WAT WAT WAT WAT WAT WAT WAT WAT WAT WAT WAT WAT WAT WAT WAT WAT WAT WAT WAT WAT 
WAT WAT WAT WAT WAT WAT WAT WAT WAT WAT WAT WAT WAT WAT WAT WAT WAT WAT WAT WAT 
WAT WAT WAT WAT WAT WAT WAT WAT WAT WAT WAT WAT WAT WAT WAT WAT WAT WAT WAT WAT 
WAT WAT WAT WAT WAT WAT WAT WAT WAT WAT WAT WAT WAT WAT WAT WAT WAT WAT WAT WAT 
WAT WAT WAT WAT WAT WAT WAT WAT WAT WAT WAT WAT WAT WAT WAT WAT WAT WAT WAT WAT 
WAT WAT WAT WAT WAT WAT WAT WAT WAT WAT WAT WAT WAT WAT WAT WAT WAT WAT WAT WAT 
WAT WAT WAT WAT WAT WAT WAT WAT WAT WAT WAT WAT WAT WAT WAT WAT WAT WAT WAT WAT 
WAT WAT WAT WAT WAT WAT WAT WAT WAT WAT WAT WAT WAT WAT WAT WAT WAT WAT WAT WAT 
WAT WAT WAT WAT WAT WAT WAT WAT WAT WAT WAT WAT WAT WAT WAT WAT WAT WAT WAT WAT 
WAT WAT WAT WAT WAT WAT WAT WAT WAT WAT WAT WAT WAT WAT WAT WAT WAT WAT WAT WAT 
WAT WAT WAT WAT WAT WAT WAT WAT WAT WAT WAT WAT WAT WAT WAT WAT WAT WAT WAT WAT 
WAT WAT WAT WAT WAT WAT WAT WAT WAT WAT WAT WAT WAT WAT WAT WAT WAT WAT WAT WAT 
WAT WAT WAT WAT WAT WAT WAT WAT WAT WAT WAT WAT WAT WAT WAT WAT WAT WAT WAT WAT 
WAT WAT WAT WAT WAT WAT WAT WAT WAT WAT WAT WAT WAT WAT WAT WAT WAT WAT WAT WAT 
WAT WAT WAT WAT WAT WAT WAT WAT WAT WAT WAT WAT WAT WAT WAT WAT WAT WAT WAT WAT 
WAT WAT WAT WAT WAT WAT WAT WAT WAT WAT WAT WAT WAT WAT WAT WAT WAT WAT WAT WAT 
WAT WAT WAT WAT WAT WAT WAT WAT WAT WAT WAT WAT WAT WAT WAT WAT WAT WAT WAT WAT 
WAT WAT WAT WAT WAT WAT WAT WAT WAT WAT WAT WAT WAT WAT WAT WAT WAT WAT WAT WAT 
WAT WAT WAT WAT WAT WAT WAT WAT WAT WAT WAT WAT WAT WAT WAT WAT WAT WAT WAT WAT 
WAT WAT WAT WAT WAT WAT WAT WAT WAT WAT WAT WAT WAT WAT WAT WAT WAT WAT WAT WAT 
WAT WAT WAT WAT WAT WAT WAT WAT WAT WAT WAT WAT WAT WAT WAT WAT WAT WAT WAT WAT 
WAT WAT WAT WAT WAT WAT WAT WAT WAT WAT WAT WAT WAT WAT WAT WAT WAT WAT WAT WAT 
WAT WAT WAT WAT WAT WAT WAT WAT WAT WAT WAT WAT WAT WAT WAT WAT WAT WAT WAT WAT 
WAT WAT WAT WAT WAT WAT WAT WAT WAT WAT WAT WAT WAT WAT WAT WAT WAT WAT WAT WAT 
WAT WAT WAT WAT WAT WAT WAT WAT WAT WAT WAT WAT WAT WAT WAT WAT WAT WAT WAT WAT 
WAT WAT WAT WAT WAT WAT WAT WAT WAT WAT WAT WAT WAT WAT WAT WAT WAT WAT WAT WAT 
WAT WAT WAT WAT WAT WAT WAT WAT WAT WAT WAT WAT WAT WAT WAT WAT WAT WAT WAT WAT 
WAT WAT WAT WAT WAT WAT WAT WAT WAT WAT WAT WAT WAT WAT WAT WAT WAT WAT WAT WAT 
WAT WAT WAT WAT WAT WAT WAT WAT WAT WAT WAT WAT WAT WAT WAT WAT WAT WAT WAT WAT 
WAT WAT WAT WAT WAT WAT WAT WAT WAT WAT WAT WAT WAT WAT WAT WAT WAT WAT WAT WAT 
WAT WAT WAT WAT WAT WAT WAT WAT WAT WAT WAT WAT WAT WAT WAT WAT WAT WAT WAT WAT 
WAT WAT WAT WAT WAT WAT WAT WAT WAT WAT WAT WAT WAT WAT WAT WAT WAT WAT WAT WAT 
WAT WAT WAT WAT WAT WAT WAT WAT WAT WAT WAT WAT WAT WAT WAT WAT WAT WAT WAT WAT 
WAT WAT WAT WAT WAT WAT WAT WAT WAT WAT WAT WAT WAT WAT WAT WAT WAT WAT WAT WAT 
WAT WAT WAT WAT WAT WAT WAT WAT WAT WAT WAT WAT WAT WAT WAT WAT WAT WAT WAT WAT 
WAT WAT WAT WAT WAT WAT WAT WAT WAT WAT WAT WAT WAT WAT WAT WAT WAT WAT WAT WAT 
WAT WAT WAT WAT WAT WAT WAT WAT WAT WAT WAT WAT WAT WAT WAT WAT WAT WAT WAT WAT 
WAT WAT WAT WAT WAT WAT WAT WAT WAT WAT WAT WAT WAT WAT WAT WAT WAT WAT WAT WAT 
WAT WAT WAT WAT WAT WAT WAT WAT WAT WAT WAT WAT WAT WAT WAT WAT WAT WAT WAT WAT 
WAT WAT WAT WAT WAT WAT WAT WAT WAT WAT WAT WAT WAT WAT WAT WAT WAT WAT WAT WAT 
WAT WAT WAT WAT WAT WAT WAT WAT WAT WAT WAT WAT WAT WAT WAT WAT WAT WAT WAT WAT 
WAT WAT WAT WAT WAT WAT WAT WAT WAT WAT WAT WAT WAT WAT WAT WAT WAT WAT WAT WAT 
WAT WAT WAT WAT WAT WAT WAT WAT WAT WAT WAT WAT WAT WAT WAT WAT WAT WAT WAT WAT 
WAT WAT WAT WAT WAT WAT WAT WAT WAT WAT WAT WAT WAT WAT WAT WAT WAT WAT WAT WAT 
WAT WAT WAT WAT WAT WAT WAT WAT WAT WAT WAT WAT WAT WAT WAT WAT WAT WAT WAT WAT 
WAT WAT WAT WAT WAT WAT WAT WAT WAT WAT WAT WAT WAT WAT WAT WAT WAT WAT WAT WAT 
WAT WAT WAT WAT WAT WAT WAT WAT WAT WAT WAT WAT WAT WAT WAT WAT WAT WAT WAT WAT 
WAT WAT WAT WAT WAT WAT WAT WAT WAT WAT WAT WAT WAT WAT WAT WAT WAT WAT WAT WAT 
WAT WAT WAT WAT WAT WAT WAT WAT WAT WAT WAT WAT WAT WAT WAT WAT WAT WAT WAT WAT 
WAT WAT WAT WAT WAT WAT WAT WAT WAT WAT WAT WAT WAT WAT WAT WAT WAT WAT WAT WAT 
WAT WAT WAT WAT WAT WAT WAT WAT WAT WAT WAT WAT WAT WAT WAT WAT WAT WAT WAT WAT 
WAT WAT WAT WAT WAT WAT WAT WAT WAT WAT WAT WAT WAT WAT WAT WAT WAT WAT WAT WAT 
WAT WAT WAT WAT WAT WAT WAT WAT WAT WAT WAT WAT WAT WAT WAT WAT WAT WAT WAT WAT 
WAT WAT WAT WAT WAT WAT WAT WAT WAT WAT WAT WAT WAT WAT WAT WAT WAT WAT WAT WAT 
WAT WAT WAT WAT WAT WAT WAT WAT WAT WAT WAT WAT WAT WAT WAT WAT WAT WAT WAT WAT 
WAT WAT WAT WAT WAT WAT WAT WAT WAT WAT WAT WAT WAT WAT WAT WAT WAT WAT WAT WAT 
WAT WAT WAT WAT WAT WAT WAT WAT WAT WAT WAT WAT WAT WAT WAT WAT WAT WAT WAT WAT 
WAT WAT WAT WAT WAT WAT WAT WAT WAT WAT WAT WAT WAT WAT WAT WAT WAT WAT WAT WAT 
WAT WAT WAT WAT WAT WAT WAT WAT WAT WAT WAT WAT WAT WAT WAT WAT WAT WAT WAT WAT 
WAT WAT WAT WAT WAT WAT WAT WAT WAT WAT WAT WAT WAT WAT WAT WAT WAT WAT WAT WAT 
WAT WAT WAT WAT WAT WAT WAT WAT WAT WAT WAT WAT WAT WAT WAT WAT WAT WAT WAT WAT 
WAT WAT WAT WAT WAT WAT WAT WAT WAT WAT WAT WAT WAT WAT WAT WAT WAT WAT WAT WAT 
WAT WAT WAT WAT WAT WAT WAT WAT WAT WAT WAT WAT WAT WAT WAT WAT WAT WAT WAT WAT 
WAT WAT WAT WAT WAT WAT WAT WAT WAT WAT WAT WAT WAT WAT WAT WAT WAT WAT WAT WAT 
WAT WAT WAT WAT WAT WAT WAT WAT WAT WAT WAT WAT WAT WAT WAT WAT WAT WAT WAT WAT 
WAT WAT WAT WAT WAT WAT WAT WAT WAT WAT WAT WAT WAT WAT WAT WAT WAT WAT WAT WAT 
WAT WAT WAT WAT WAT WAT WAT WAT WAT WAT WAT WAT WAT WAT WAT WAT WAT WAT WAT WAT 
WAT WAT WAT WAT WAT WAT WAT WAT WAT WAT WAT WAT WAT WAT WAT WAT WAT WAT WAT WAT 
WAT WAT WAT WAT WAT WAT WAT WAT WAT WAT WAT WAT WAT WAT WAT WAT WAT WAT WAT WAT 
WAT WAT WAT WAT WAT WAT WAT WAT WAT WAT WAT WAT WAT WAT WAT WAT WAT WAT WAT WAT 
WAT WAT WAT WAT WAT WAT WAT WAT WAT WAT WAT WAT WAT WAT WAT WAT WAT WAT WAT WAT 
WAT WAT WAT WAT WAT WAT WAT WAT WAT WAT WAT WAT WAT WAT WAT WAT WAT WAT WAT WAT 
WAT WAT WAT WAT WAT WAT WAT WAT WAT WAT WAT WAT WAT WAT WAT WAT WAT WAT WAT WAT 
WAT WAT WAT WAT WAT WAT WAT WAT WAT WAT WAT WAT WAT WAT WAT WAT WAT WAT WAT WAT 
WAT WAT WAT WAT WAT WAT WAT WAT WAT WAT WAT WAT WAT WAT WAT WAT WAT WAT WAT WAT 
WAT WAT WAT WAT WAT WAT WAT WAT WAT WAT WAT WAT WAT WAT WAT WAT WAT WAT WAT WAT 
WAT WAT WAT WAT WAT WAT WAT WAT WAT WAT WAT WAT WAT WAT WAT WAT WAT WAT WAT WAT 
WAT WAT WAT WAT WAT WAT WAT WAT WAT WAT WAT WAT WAT WAT WAT WAT WAT WAT WAT WAT 
WAT WAT WAT WAT WAT WAT WAT WAT WAT WAT WAT WAT WAT WAT WAT WAT WAT WAT WAT WAT 
WAT WAT WAT WAT WAT WAT WAT WAT WAT WAT WAT WAT WAT WAT WAT WAT WAT WAT WAT WAT 
WAT WAT WAT WAT WAT WAT WAT WAT WAT WAT WAT WAT WAT WAT WAT WAT WAT WAT WAT WAT 
WAT WAT WAT WAT WAT WAT WAT WAT WAT WAT WAT WAT WAT WAT WAT WAT WAT WAT WAT WAT 
WAT WAT WAT WAT WAT WAT WAT WAT WAT WAT WAT WAT WAT WAT WAT WAT WAT WAT WAT WAT 
WAT WAT WAT WAT WAT WAT WAT WAT WAT WAT WAT WAT WAT WAT WAT WAT WAT WAT WAT WAT 
WAT WAT WAT WAT WAT WAT WAT WAT WAT WAT WAT WAT WAT WAT WAT WAT WAT WAT WAT WAT 
WAT WAT WAT WAT WAT WAT WAT WAT WAT WAT WAT WAT WAT WAT WAT WAT WAT WAT WAT WAT 
WAT WAT WAT WAT WAT WAT WAT WAT WAT WAT WAT WAT WAT WAT WAT WAT WAT WAT WAT WAT 
WAT WAT WAT WAT WAT WAT WAT WAT WAT WAT WAT WAT WAT WAT WAT WAT WAT WAT WAT WAT 
WAT WAT WAT WAT WAT WAT WAT WAT WAT WAT WAT WAT WAT WAT WAT WAT WAT WAT WAT WAT 
WAT WAT WAT WAT WAT WAT WAT WAT WAT WAT WAT WAT WAT WAT WAT WAT WAT WAT WAT WAT 
WAT WAT WAT WAT WAT WAT WAT WAT WAT WAT WAT WAT WAT WAT WAT WAT WAT WAT WAT WAT 
WAT WAT WAT WAT WAT WAT WAT WAT WAT WAT WAT WAT WAT WAT WAT WAT WAT WAT WAT WAT 
WAT WAT WAT WAT WAT WAT WAT WAT WAT WAT WAT WAT WAT WAT WAT WAT WAT WAT WAT WAT 
WAT WAT WAT WAT WAT WAT WAT WAT WAT WAT WAT WAT WAT WAT WAT WAT WAT WAT WAT WAT 
WAT WAT WAT WAT WAT WAT WAT WAT WAT WAT WAT WAT WAT WAT WAT WAT WAT WAT WAT WAT 
WAT WAT WAT WAT WAT WAT WAT WAT WAT WAT WAT WAT WAT WAT WAT WAT WAT WAT WAT WAT 
WAT WAT WAT WAT WAT WAT WAT WAT WAT WAT WAT WAT WAT WAT WAT WAT WAT WAT WAT WAT 
WAT WAT WAT WAT WAT WAT WAT WAT WAT WAT WAT WAT WAT WAT WAT WAT WAT WAT WAT WAT 
WAT WAT WAT WAT WAT WAT WAT WAT WAT WAT WAT WAT WAT WAT WAT WAT WAT WAT WAT WAT 
WAT WAT WAT WAT WAT WAT WAT WAT WAT WAT WAT WAT WAT WAT WAT WAT WAT WAT WAT WAT 
WAT WAT WAT WAT WAT WAT WAT WAT WAT WAT WAT WAT WAT WAT WAT WAT WAT WAT WAT WAT 
WAT WAT WAT WAT WAT WAT WAT WAT WAT WAT WAT WAT WAT WAT WAT WAT WAT WAT WAT WAT 
WAT WAT WAT WAT WAT WAT WAT WAT WAT WAT WAT WAT WAT WAT WAT WAT WAT WAT WAT WAT 
WAT WAT WAT WAT WAT WAT WAT WAT WAT WAT WAT WAT WAT WAT WAT WAT WAT WAT WAT WAT 
WAT WAT WAT WAT WAT WAT WAT WAT WAT WAT WAT WAT WAT WAT WAT WAT WAT WAT WAT WAT 
WAT WAT WAT WAT WAT WAT WAT WAT WAT WAT WAT WAT WAT WAT WAT WAT WAT WAT WAT WAT 
WAT WAT WAT WAT WAT WAT WAT WAT WAT WAT WAT WAT WAT WAT WAT WAT WAT WAT WAT WAT 
WAT WAT WAT WAT WAT WAT WAT WAT WAT WAT WAT WAT WAT WAT WAT WAT WAT WAT WAT WAT 
WAT WAT WAT WAT WAT WAT WAT WAT WAT WAT WAT WAT WAT WAT WAT WAT WAT WAT WAT WAT 
WAT WAT WAT WAT WAT WAT WAT WAT WAT WAT WAT WAT WAT WAT WAT WAT WAT WAT WAT WAT 
WAT WAT WAT WAT WAT WAT WAT WAT WAT WAT WAT WAT WAT WAT WAT WAT WAT WAT WAT WAT 
WAT WAT WAT WAT WAT WAT WAT WAT WAT WAT WAT WAT WAT WAT WAT WAT WAT WAT WAT WAT 
WAT WAT WAT WAT WAT WAT WAT WAT WAT WAT WAT WAT WAT WAT WAT WAT WAT WAT WAT WAT 
WAT WAT WAT WAT WAT WAT WAT WAT WAT WAT WAT WAT WAT WAT WAT WAT WAT WAT WAT WAT 
WAT WAT WAT WAT WAT WAT WAT WAT WAT WAT WAT WAT WAT WAT WAT WAT WAT WAT WAT WAT 
WAT WAT WAT WAT WAT WAT WAT WAT WAT WAT WAT WAT WAT WAT WAT WAT WAT WAT WAT WAT 
WAT WAT WAT WAT WAT WAT WAT WAT WAT WAT WAT WAT WAT WAT WAT WAT WAT WAT WAT WAT 
WAT WAT WAT WAT WAT WAT WAT WAT WAT WAT WAT WAT WAT WAT WAT WAT WAT WAT WAT WAT 
WAT WAT WAT WAT WAT WAT WAT WAT WAT WAT WAT WAT WAT WAT WAT WAT WAT WAT WAT WAT 
WAT WAT WAT WAT WAT WAT WAT WAT WAT WAT WAT WAT WAT WAT WAT WAT WAT WAT WAT WAT 
WAT WAT WAT WAT WAT WAT WAT WAT WAT WAT WAT WAT WAT WAT WAT WAT WAT WAT WAT WAT 
WAT WAT WAT WAT WAT WAT WAT WAT WAT WAT WAT WAT WAT WAT WAT WAT WAT WAT WAT WAT 
WAT WAT WAT WAT WAT WAT WAT WAT WAT WAT WAT WAT WAT WAT WAT WAT WAT WAT WAT WAT 
WAT WAT WAT WAT WAT WAT WAT WAT WAT WAT WAT WAT WAT WAT WAT WAT WAT WAT WAT WAT 
WAT WAT WAT WAT WAT WAT WAT WAT WAT WAT WAT WAT WAT WAT WAT WAT WAT WAT WAT WAT 
WAT WAT WAT WAT WAT WAT WAT WAT WAT WAT WAT WAT WAT WAT WAT WAT WAT WAT WAT WAT 
WAT WAT WAT WAT WAT WAT WAT WAT WAT WAT WAT WAT WAT WAT WAT WAT WAT WAT WAT WAT 
WAT WAT WAT WAT WAT WAT WAT WAT WAT WAT WAT WAT WAT WAT WAT WAT WAT WAT WAT WAT 
WAT WAT WAT WAT WAT WAT WAT WAT WAT WAT WAT WAT WAT WAT WAT WAT WAT WAT WAT WAT 
WAT WAT WAT WAT WAT WAT WAT WAT WAT WAT WAT WAT WAT WAT WAT WAT WAT WAT WAT WAT 
WAT WAT WAT WAT WAT WAT WAT WAT WAT WAT WAT WAT WAT WAT WAT WAT WAT WAT WAT WAT 
WAT WAT WAT WAT WAT WAT WAT WAT WAT WAT WAT WAT WAT WAT WAT WAT WAT WAT WAT WAT 
WAT WAT WAT WAT WAT WAT WAT WAT WAT WAT WAT WAT WAT WAT WAT WAT WAT WAT WAT WAT 
WAT WAT WAT WAT WAT WAT WAT WAT WAT WAT WAT WAT WAT WAT WAT WAT WAT WAT WAT WAT 
WAT WAT WAT WAT WAT WAT WAT WAT WAT WAT WAT WAT WAT WAT WAT WAT WAT WAT WAT WAT 
WAT WAT WAT WAT WAT WAT WAT WAT WAT WAT WAT WAT WAT WAT WAT WAT WAT WAT WAT WAT 
WAT WAT WAT WAT WAT WAT WAT WAT WAT WAT WAT WAT WAT WAT WAT WAT WAT WAT WAT WAT 
WAT WAT WAT WAT WAT WAT WAT WAT WAT WAT WAT WAT WAT WAT WAT WAT WAT WAT WAT WAT 
WAT WAT WAT WAT WAT WAT WAT WAT WAT WAT WAT WAT WAT WAT WAT WAT WAT WAT WAT WAT 
WAT WAT WAT WAT WAT WAT WAT WAT WAT WAT WAT WAT WAT WAT WAT WAT WAT WAT WAT WAT 
WAT WAT WAT WAT WAT WAT WAT WAT WAT WAT WAT WAT WAT WAT WAT WAT WAT WAT WAT WAT 
WAT WAT WAT WAT WAT WAT WAT WAT WAT WAT WAT WAT WAT WAT WAT WAT WAT WAT WAT WAT 
WAT WAT WAT WAT WAT WAT WAT WAT WAT WAT WAT WAT WAT WAT WAT WAT WAT WAT WAT WAT 
WAT WAT WAT WAT WAT WAT WAT WAT WAT WAT WAT WAT WAT WAT WAT WAT WAT WAT WAT WAT 
WAT WAT WAT WAT WAT WAT WAT WAT WAT WAT WAT WAT WAT WAT WAT WAT WAT WAT WAT WAT 
WAT WAT WAT WAT WAT WAT WAT WAT WAT WAT WAT WAT WAT WAT WAT WAT WAT WAT WAT WAT 
WAT WAT WAT WAT WAT WAT WAT WAT WAT WAT WAT WAT WAT WAT WAT WAT WAT WAT WAT WAT 
WAT WAT WAT WAT WAT WAT WAT WAT WAT WAT WAT WAT WAT WAT WAT WAT WAT WAT WAT WAT 
WAT WAT WAT WAT WAT WAT WAT WAT WAT WAT WAT WAT WAT WAT WAT WAT WAT WAT WAT WAT 
WAT WAT WAT WAT WAT WAT WAT WAT WAT WAT WAT WAT WAT WAT WAT WAT WAT WAT WAT WAT 
WAT WAT WAT WAT WAT WAT WAT WAT WAT WAT WAT WAT WAT WAT WAT WAT WAT WAT WAT WAT 
WAT WAT WAT WAT WAT WAT WAT WAT WAT WAT WAT WAT WAT WAT WAT WAT WAT WAT WAT WAT 
WAT WAT WAT WAT WAT WAT WAT WAT WAT WAT WAT WAT WAT WAT WAT WAT WAT WAT WAT WAT 
WAT WAT WAT WAT WAT WAT WAT WAT WAT WAT WAT WAT WAT WAT WAT WAT WAT WAT WAT WAT 
WAT WAT WAT WAT WAT WAT WAT WAT WAT WAT WAT WAT WAT WAT WAT WAT WAT WAT WAT WAT 
WAT WAT WAT WAT WAT WAT WAT WAT WAT WAT WAT WAT WAT WAT WAT WAT WAT WAT WAT WAT 
WAT WAT WAT WAT WAT WAT WAT WAT WAT WAT WAT WAT WAT WAT WAT WAT WAT WAT WAT WAT 
WAT WAT WAT WAT WAT WAT WAT WAT WAT WAT WAT WAT WAT WAT WAT WAT WAT WAT WAT WAT 
WAT WAT WAT WAT WAT WAT WAT WAT WAT WAT WAT WAT WAT WAT WAT WAT WAT WAT WAT WAT 
WAT WAT WAT WAT WAT WAT WAT WAT WAT WAT WAT WAT WAT WAT WAT WAT WAT WAT WAT WAT 
WAT WAT WAT WAT WAT WAT WAT WAT WAT WAT WAT WAT WAT WAT WAT WAT WAT WAT WAT WAT 
WAT WAT WAT WAT WAT WAT WAT WAT WAT WAT WAT WAT WAT WAT WAT WAT WAT WAT WAT WAT 
WAT WAT WAT WAT WAT WAT WAT WAT WAT WAT WAT WAT WAT WAT WAT WAT WAT WAT WAT WAT 
WAT WAT WAT WAT WAT WAT WAT WAT WAT WAT WAT WAT WAT WAT WAT WAT WAT WAT WAT WAT 
WAT WAT WAT WAT WAT WAT WAT WAT WAT WAT WAT WAT WAT WAT WAT WAT WAT WAT WAT WAT 
WAT WAT WAT WAT WAT WAT WAT WAT WAT WAT WAT WAT WAT WAT WAT WAT WAT WAT WAT WAT 
WAT WAT WAT WAT WAT WAT WAT WAT WAT WAT WAT WAT WAT WAT WAT WAT WAT WAT WAT WAT 
WAT WAT WAT WAT WAT WAT WAT WAT WAT WAT WAT WAT WAT WAT WAT WAT WAT WAT WAT WAT 
WAT WAT WAT WAT WAT WAT WAT WAT WAT WAT WAT WAT WAT WAT WAT WAT WAT WAT WAT WAT 
WAT WAT WAT WAT WAT WAT WAT WAT WAT WAT WAT WAT WAT WAT WAT WAT WAT WAT WAT WAT 
WAT WAT WAT WAT WAT WAT WAT WAT WAT WAT WAT WAT WAT WAT WAT WAT WAT WAT WAT WAT 
WAT WAT WAT WAT WAT WAT WAT WAT WAT WAT WAT WAT WAT WAT WAT WAT WAT WAT WAT WAT 
WAT WAT WAT WAT WAT WAT WAT WAT WAT WAT WAT WAT WAT WAT WAT WAT WAT WAT WAT WAT 
WAT WAT WAT WAT WAT WAT WAT WAT WAT WAT WAT WAT WAT WAT WAT WAT WAT WAT WAT WAT 
WAT WAT WAT WAT WAT WAT WAT WAT WAT WAT WAT WAT WAT WAT WAT WAT WAT WAT WAT WAT 
WAT WAT WAT WAT WAT WAT WAT WAT WAT WAT WAT WAT WAT WAT WAT WAT WAT WAT WAT WAT 
WAT WAT WAT WAT WAT WAT WAT WAT WAT WAT WAT WAT WAT WAT WAT WAT WAT WAT WAT WAT 
WAT WAT WAT WAT WAT WAT WAT WAT WAT WAT WAT WAT WAT WAT WAT WAT WAT WAT WAT WAT 
WAT WAT WAT WAT WAT WAT WAT WAT WAT WAT WAT WAT WAT WAT WAT WAT WAT WAT WAT WAT 
WAT WAT WAT WAT WAT WAT WAT WAT WAT WAT WAT WAT WAT WAT WAT WAT WAT WAT WAT WAT 
WAT WAT WAT WAT WAT WAT WAT WAT WAT WAT WAT WAT WAT WAT WAT WAT WAT WAT WAT WAT 
WAT WAT WAT WAT WAT WAT WAT WAT WAT WAT WAT WAT WAT WAT WAT WAT WAT WAT WAT WAT 
WAT WAT WAT WAT WAT WAT WAT WAT WAT WAT WAT WAT WAT WAT WAT WAT WAT WAT WAT WAT 
WAT WAT WAT WAT WAT WAT WAT WAT WAT WAT WAT WAT WAT WAT WAT WAT WAT WAT WAT WAT 
WAT WAT WAT WAT WAT WAT WAT WAT WAT WAT WAT WAT WAT WAT WAT WAT WAT WAT WAT WAT 
WAT WAT WAT WAT WAT WAT WAT WAT WAT WAT WAT WAT WAT WAT WAT WAT WAT WAT WAT WAT 
WAT WAT WAT WAT WAT WAT WAT WAT WAT WAT WAT WAT WAT WAT WAT WAT WAT WAT WAT WAT 
WAT WAT WAT WAT WAT WAT WAT WAT WAT WAT WAT WAT WAT WAT WAT WAT WAT WAT WAT WAT 
WAT WAT WAT WAT WAT WAT WAT WAT WAT WAT WAT WAT WAT WAT WAT WAT WAT WAT WAT WAT 
WAT WAT WAT WAT WAT WAT WAT WAT WAT WAT WAT WAT WAT WAT WAT WAT WAT WAT WAT WAT 
WAT WAT WAT WAT WAT WAT WAT WAT WAT WAT WAT WAT WAT WAT WAT WAT WAT WAT WAT WAT 
WAT WAT WAT WAT WAT WAT WAT WAT WAT WAT WAT WAT WAT WAT WAT WAT WAT WAT WAT WAT 
WAT WAT WAT WAT WAT WAT WAT WAT WAT WAT WAT WAT WAT WAT WAT WAT WAT WAT WAT WAT 
WAT WAT WAT WAT WAT WAT WAT WAT WAT WAT WAT WAT WAT WAT WAT WAT WAT WAT WAT WAT 
WAT WAT WAT WAT WAT WAT WAT WAT WAT WAT WAT WAT WAT WAT WAT WAT WAT WAT WAT WAT 
WAT WAT WAT WAT WAT WAT WAT WAT WAT WAT WAT WAT WAT WAT WAT WAT WAT WAT WAT WAT 
WAT WAT WAT WAT WAT WAT WAT WAT WAT WAT WAT WAT WAT WAT WAT WAT WAT WAT WAT WAT 
WAT WAT WAT WAT WAT WAT WAT WAT WAT WAT WAT WAT WAT WAT WAT WAT WAT WAT WAT WAT 
WAT WAT WAT WAT WAT WAT WAT WAT WAT WAT WAT WAT WAT WAT WAT WAT WAT WAT WAT WAT 
WAT WAT WAT WAT WAT WAT WAT WAT WAT WAT WAT WAT WAT WAT WAT WAT WAT WAT WAT WAT 
WAT WAT WAT WAT WAT WAT WAT WAT WAT WAT WAT WAT WAT WAT WAT WAT WAT WAT WAT WAT 
WAT WAT WAT WAT WAT WAT WAT WAT WAT WAT WAT WAT WAT WAT WAT WAT WAT WAT WAT WAT 
WAT WAT WAT WAT WAT WAT WAT WAT WAT WAT WAT WAT WAT WAT WAT WAT WAT WAT WAT WAT 
WAT WAT WAT WAT WAT WAT WAT WAT WAT WAT WAT WAT WAT WAT WAT WAT WAT WAT WAT WAT 
WAT WAT WAT WAT WAT WAT WAT WAT WAT WAT WAT WAT WAT WAT WAT WAT WAT WAT WAT WAT 
WAT WAT WAT WAT WAT WAT WAT WAT WAT WAT WAT WAT WAT WAT WAT WAT WAT WAT WAT WAT 
WAT WAT WAT WAT WAT WAT WAT WAT WAT WAT WAT WAT WAT WAT WAT WAT WAT WAT WAT WAT 
WAT WAT WAT WAT WAT WAT WAT WAT WAT WAT WAT WAT WAT WAT WAT WAT WAT WAT WAT WAT 
WAT WAT WAT WAT WAT WAT WAT WAT WAT WAT WAT WAT WAT WAT WAT WAT WAT WAT WAT WAT 
WAT WAT WAT WAT WAT WAT WAT WAT WAT WAT WAT WAT WAT WAT WAT WAT WAT WAT WAT WAT 
WAT WAT WAT WAT WAT WAT WAT WAT WAT WAT WAT WAT WAT WAT WAT WAT WAT WAT WAT WAT 
WAT WAT WAT WAT WAT WAT WAT WAT WAT WAT WAT WAT WAT WAT WAT WAT WAT WAT WAT WAT 
WAT WAT WAT WAT WAT WAT WAT WAT WAT WAT WAT WAT WAT WAT WAT WAT WAT WAT WAT WAT 
WAT WAT WAT WAT WAT WAT WAT WAT WAT WAT WAT WAT WAT WAT WAT WAT WAT WAT WAT WAT 
WAT WAT WAT WAT WAT WAT WAT WAT WAT WAT WAT WAT WAT WAT WAT WAT WAT WAT WAT WAT 
WAT WAT WAT WAT WAT WAT WAT WAT WAT WAT WAT WAT WAT WAT WAT WAT WAT WAT WAT WAT 
WAT WAT WAT WAT WAT WAT WAT WAT WAT WAT WAT WAT WAT WAT WAT WAT WAT WAT WAT WAT 
WAT WAT WAT WAT WAT WAT WAT WAT WAT WAT WAT WAT WAT WAT WAT WAT WAT WAT WAT WAT 
WAT WAT WAT WAT WAT WAT WAT WAT WAT WAT WAT WAT WAT WAT WAT WAT WAT WAT WAT WAT 
WAT WAT WAT WAT WAT WAT WAT WAT WAT WAT WAT WAT WAT WAT WAT WAT WAT WAT WAT WAT 
WAT WAT WAT WAT WAT WAT WAT WAT WAT WAT WAT WAT WAT WAT WAT WAT WAT WAT WAT WAT 
WAT WAT WAT WAT WAT WAT WAT WAT WAT WAT WAT WAT WAT WAT WAT WAT WAT WAT WAT WAT 
WAT WAT WAT WAT WAT WAT WAT WAT WAT WAT WAT WAT WAT WAT WAT WAT WAT WAT WAT WAT 
WAT WAT WAT WAT WAT WAT WAT WAT WAT WAT WAT WAT WAT WAT WAT WAT WAT WAT WAT WAT 
WAT WAT WAT WAT WAT WAT WAT WAT WAT WAT WAT WAT WAT WAT WAT WAT WAT WAT WAT WAT 
WAT WAT WAT WAT WAT WAT WAT WAT WAT WAT WAT WAT WAT WAT WAT WAT WAT WAT WAT WAT 
WAT WAT WAT WAT WAT WAT WAT WAT WAT WAT WAT WAT WAT WAT WAT WAT WAT WAT WAT WAT 
WAT WAT WAT WAT WAT WAT WAT WAT WAT WAT WAT WAT WAT WAT WAT WAT WAT WAT WAT WAT 
WAT WAT WAT WAT WAT WAT WAT WAT WAT WAT WAT WAT WAT WAT WAT WAT WAT WAT WAT WAT 
WAT WAT WAT WAT WAT WAT WAT WAT WAT WAT WAT WAT WAT WAT WAT WAT WAT WAT WAT WAT 
WAT WAT WAT WAT WAT WAT WAT WAT WAT WAT WAT WAT WAT WAT WAT WAT WAT WAT WAT WAT 
WAT WAT WAT WAT WAT WAT WAT WAT WAT WAT WAT WAT WAT WAT WAT WAT WAT WAT WAT WAT 
WAT WAT WAT WAT WAT WAT WAT WAT WAT WAT WAT WAT WAT WAT WAT WAT WAT WAT WAT WAT 
WAT WAT WAT WAT WAT WAT WAT WAT WAT WAT WAT WAT WAT WAT WAT WAT WAT WAT WAT WAT 
WAT WAT WAT WAT WAT WAT WAT WAT WAT WAT WAT WAT WAT WAT WAT WAT WAT WAT WAT WAT 
WAT WAT WAT WAT WAT WAT WAT WAT WAT WAT WAT WAT WAT WAT WAT WAT WAT WAT WAT WAT 
WAT WAT WAT WAT WAT WAT WAT WAT WAT WAT WAT WAT WAT WAT WAT WAT WAT WAT WAT WAT 
WAT WAT WAT WAT WAT WAT WAT WAT WAT WAT WAT WAT WAT WAT WAT WAT WAT WAT WAT WAT 
WAT WAT WAT WAT WAT WAT WAT WAT WAT WAT WAT WAT WAT WAT WAT WAT WAT WAT WAT WAT 
WAT WAT WAT WAT WAT WAT WAT WAT WAT WAT WAT WAT WAT WAT WAT WAT WAT WAT WAT WAT 
WAT WAT WAT WAT WAT WAT WAT WAT WAT WAT WAT WAT WAT WAT WAT WAT WAT WAT WAT WAT 
WAT WAT WAT WAT WAT WAT WAT WAT WAT WAT WAT WAT WAT WAT WAT WAT WAT WAT WAT WAT 
WAT WAT WAT WAT WAT WAT WAT WAT WAT WAT WAT WAT WAT WAT WAT WAT WAT WAT WAT WAT 
WAT WAT WAT WAT WAT WAT WAT WAT WAT WAT WAT WAT WAT WAT WAT WAT WAT WAT WAT WAT 
WAT WAT WAT WAT WAT WAT WAT WAT WAT WAT WAT WAT WAT WAT WAT WAT WAT WAT WAT WAT 
WAT WAT WAT WAT WAT WAT WAT WAT WAT WAT WAT WAT WAT WAT WAT WAT WAT WAT WAT WAT 
WAT WAT WAT WAT WAT WAT WAT WAT WAT WAT WAT WAT WAT WAT WAT WAT WAT WAT WAT WAT 
WAT WAT WAT WAT WAT WAT WAT WAT WAT WAT WAT WAT WAT WAT WAT WAT WAT WAT WAT WAT 
WAT WAT WAT WAT WAT WAT WAT WAT WAT WAT WAT WAT WAT WAT WAT WAT WAT WAT WAT WAT 
WAT WAT WAT WAT WAT WAT WAT WAT WAT WAT WAT WAT WAT WAT WAT WAT WAT WAT WAT WAT 
WAT WAT WAT WAT WAT WAT WAT WAT WAT WAT WAT WAT WAT WAT WAT WAT WAT WAT WAT WAT 
WAT WAT WAT WAT WAT WAT WAT WAT WAT WAT WAT WAT WAT WAT WAT WAT WAT WAT WAT WAT 
WAT WAT WAT WAT WAT WAT WAT WAT WAT WAT WAT WAT WAT WAT WAT WAT WAT WAT WAT WAT 
WAT WAT WAT WAT WAT WAT WAT WAT WAT WAT WAT WAT WAT WAT WAT WAT WAT WAT WAT WAT 
WAT WAT WAT WAT WAT WAT WAT WAT WAT WAT WAT WAT WAT WAT WAT WAT WAT WAT WAT WAT 
WAT WAT WAT WAT WAT WAT WAT WAT WAT WAT WAT WAT WAT WAT WAT WAT WAT WAT WAT WAT 
WAT WAT WAT WAT WAT WAT WAT WAT WAT WAT WAT WAT WAT WAT WAT WAT WAT WAT WAT WAT 
WAT WAT WAT WAT WAT WAT WAT WAT WAT WAT WAT WAT WAT WAT WAT WAT WAT WAT WAT WAT 
WAT WAT WAT WAT WAT WAT WAT WAT WAT WAT WAT WAT WAT WAT WAT WAT WAT WAT WAT WAT 
WAT WAT WAT WAT WAT WAT WAT WAT WAT WAT WAT WAT WAT WAT WAT WAT WAT WAT WAT WAT 
WAT WAT WAT WAT WAT WAT WAT WAT WAT WAT WAT WAT WAT WAT WAT WAT WAT WAT WAT WAT 
WAT WAT WAT WAT WAT WAT WAT WAT WAT WAT WAT WAT WAT WAT WAT WAT WAT WAT WAT WAT 
WAT WAT WAT WAT WAT WAT WAT WAT WAT WAT WAT WAT WAT WAT WAT WAT WAT WAT WAT WAT 
WAT WAT WAT WAT WAT WAT WAT WAT WAT WAT WAT WAT WAT WAT WAT WAT WAT WAT WAT WAT 
WAT WAT WAT WAT WAT WAT WAT WAT WAT WAT WAT WAT WAT WAT WAT WAT WAT WAT WAT WAT 
WAT WAT WAT WAT WAT WAT WAT WAT WAT WAT WAT WAT WAT WAT WAT WAT WAT WAT WAT WAT 
WAT WAT WAT WAT WAT WAT WAT WAT WAT WAT WAT WAT WAT WAT WAT WAT WAT WAT WAT WAT 
WAT WAT WAT WAT WAT WAT WAT WAT WAT WAT WAT WAT WAT WAT WAT WAT WAT WAT WAT WAT 
WAT WAT WAT WAT WAT WAT WAT WAT WAT WAT WAT WAT WAT WAT WAT WAT WAT WAT WAT WAT 
WAT WAT WAT WAT WAT WAT WAT WAT WAT WAT WAT WAT WAT WAT WAT WAT WAT WAT WAT WAT 
WAT WAT WAT WAT WAT WAT WAT WAT WAT WAT WAT WAT WAT WAT WAT WAT WAT WAT WAT WAT 
WAT WAT WAT WAT WAT WAT WAT WAT WAT WAT WAT WAT WAT WAT WAT WAT WAT WAT WAT WAT 
WAT WAT WAT WAT WAT WAT WAT WAT WAT WAT WAT WAT WAT WAT WAT WAT WAT WAT WAT WAT 
WAT WAT WAT WAT WAT WAT WAT WAT WAT WAT WAT WAT WAT WAT WAT WAT WAT WAT WAT WAT 
WAT WAT WAT WAT WAT WAT WAT WAT WAT WAT WAT WAT WAT WAT WAT WAT WAT WAT WAT WAT 
WAT WAT WAT WAT WAT WAT WAT WAT WAT WAT WAT WAT WAT WAT WAT WAT WAT WAT WAT WAT 
WAT WAT WAT WAT WAT WAT WAT WAT WAT WAT WAT WAT WAT WAT WAT WAT WAT WAT WAT WAT 
WAT WAT WAT WAT WAT WAT WAT WAT WAT WAT WAT WAT WAT WAT WAT WAT WAT WAT WAT WAT 
WAT WAT WAT WAT WAT WAT WAT WAT WAT WAT WAT WAT WAT WAT WAT WAT WAT WAT WAT WAT 
WAT WAT WAT WAT WAT WAT WAT WAT WAT WAT WAT WAT WAT WAT WAT WAT WAT WAT WAT WAT 
WAT WAT WAT WAT WAT WAT WAT WAT WAT WAT WAT WAT WAT WAT WAT WAT WAT WAT WAT WAT 
WAT WAT WAT WAT WAT WAT WAT WAT WAT WAT WAT WAT WAT WAT WAT WAT WAT WAT WAT WAT 
WAT WAT WAT WAT WAT WAT WAT WAT WAT WAT WAT WAT WAT WAT WAT WAT WAT WAT WAT WAT 
WAT WAT WAT WAT WAT WAT WAT WAT WAT WAT WAT WAT WAT WAT WAT WAT WAT WAT WAT WAT 
WAT WAT WAT WAT WAT WAT WAT WAT WAT WAT WAT WAT WAT WAT WAT WAT WAT WAT WAT WAT 
WAT WAT WAT WAT WAT WAT WAT WAT WAT WAT WAT WAT WAT WAT WAT WAT WAT WAT WAT WAT 
WAT WAT WAT WAT WAT WAT WAT WAT WAT WAT WAT WAT WAT WAT WAT WAT WAT WAT WAT WAT 
WAT WAT WAT WAT WAT WAT WAT WAT WAT WAT WAT WAT WAT WAT WAT WAT WAT WAT WAT WAT 
WAT WAT WAT WAT WAT WAT WAT WAT WAT WAT WAT WAT WAT WAT WAT WAT WAT WAT WAT WAT 
WAT WAT WAT WAT WAT WAT WAT WAT WAT WAT WAT WAT WAT WAT WAT WAT WAT WAT WAT WAT 
WAT WAT WAT WAT WAT WAT WAT WAT WAT WAT WAT WAT WAT WAT WAT WAT WAT WAT WAT WAT 
WAT WAT WAT WAT WAT WAT WAT WAT WAT WAT WAT WAT WAT WAT WAT WAT WAT WAT WAT WAT 
WAT WAT WAT WAT WAT WAT WAT WAT WAT WAT WAT WAT WAT WAT WAT WAT WAT WAT WAT WAT 
WAT WAT WAT WAT WAT WAT WAT WAT WAT WAT WAT WAT WAT WAT WAT WAT WAT WAT WAT WAT 
WAT WAT WAT WAT WAT WAT WAT WAT WAT WAT WAT WAT WAT WAT WAT WAT WAT WAT WAT WAT 
WAT WAT WAT WAT WAT WAT WAT WAT WAT WAT WAT WAT WAT WAT WAT WAT WAT WAT WAT WAT 
WAT WAT WAT WAT WAT WAT WAT WAT WAT WAT WAT WAT WAT WAT WAT WAT WAT WAT WAT WAT 
WAT WAT WAT WAT WAT WAT WAT WAT WAT WAT WAT WAT WAT WAT WAT WAT WAT WAT WAT WAT 
WAT WAT WAT WAT WAT WAT WAT WAT WAT WAT WAT WAT WAT WAT WAT WAT WAT WAT WAT WAT 
WAT WAT WAT WAT WAT WAT WAT WAT WAT WAT WAT WAT WAT WAT WAT WAT WAT WAT WAT WAT 
WAT WAT WAT WAT WAT WAT WAT WAT WAT WAT WAT WAT WAT WAT WAT WAT WAT WAT WAT WAT 
WAT WAT WAT WAT WAT WAT WAT WAT WAT WAT WAT WAT WAT WAT WAT WAT WAT WAT WAT WAT 
WAT WAT WAT WAT WAT WAT WAT WAT WAT WAT WAT WAT WAT WAT WAT WAT WAT WAT WAT WAT 
WAT WAT WAT WAT WAT WAT WAT WAT WAT WAT WAT WAT WAT WAT WAT WAT WAT WAT WAT WAT 
WAT WAT WAT WAT WAT WAT WAT WAT WAT WAT WAT WAT WAT WAT WAT WAT WAT WAT WAT WAT 
WAT WAT WAT WAT WAT WAT WAT WAT WAT WAT WAT WAT WAT WAT WAT WAT WAT WAT WAT WAT 
WAT WAT WAT WAT WAT WAT WAT WAT WAT WAT WAT WAT WAT WAT WAT WAT WAT WAT WAT WAT 
WAT WAT WAT WAT WAT WAT WAT WAT WAT WAT WAT WAT WAT WAT WAT WAT WAT WAT WAT WAT 
WAT WAT WAT WAT WAT WAT WAT WAT WAT WAT WAT WAT WAT WAT WAT WAT WAT WAT WAT WAT 
WAT WAT WAT WAT WAT WAT WAT WAT WAT WAT WAT WAT WAT WAT WAT WAT WAT WAT WAT WAT 
WAT WAT WAT WAT WAT WAT WAT WAT WAT WAT WAT WAT WAT WAT WAT WAT WAT WAT WAT WAT 
WAT WAT WAT WAT WAT WAT WAT WAT WAT WAT WAT WAT WAT WAT WAT WAT WAT WAT WAT WAT 
WAT WAT WAT WAT WAT WAT WAT WAT WAT WAT WAT WAT WAT WAT WAT WAT WAT WAT WAT WAT 
WAT WAT WAT WAT WAT WAT WAT WAT WAT WAT WAT WAT WAT WAT WAT WAT WAT WAT WAT WAT 
WAT WAT WAT WAT WAT WAT WAT WAT WAT WAT WAT WAT WAT WAT WAT WAT WAT WAT WAT WAT 
WAT WAT WAT WAT WAT WAT WAT WAT WAT WAT WAT WAT WAT WAT WAT WAT WAT WAT WAT WAT 
WAT WAT WAT WAT WAT WAT WAT WAT WAT WAT WAT WAT WAT WAT WAT WAT WAT WAT WAT WAT 
WAT WAT WAT WAT WAT WAT WAT WAT WAT WAT WAT WAT WAT WAT WAT WAT WAT WAT WAT WAT 
WAT WAT WAT WAT WAT WAT WAT WAT WAT WAT WAT WAT WAT WAT WAT WAT WAT WAT WAT WAT 
WAT WAT WAT WAT WAT WAT WAT WAT WAT WAT WAT WAT WAT WAT WAT WAT WAT WAT WAT WAT 
WAT WAT WAT WAT WAT WAT WAT WAT WAT WAT WAT WAT WAT WAT WAT WAT WAT WAT WAT WAT 
WAT WAT WAT WAT WAT WAT WAT WAT WAT WAT WAT WAT WAT WAT WAT WAT WAT WAT WAT WAT 
WAT WAT WAT WAT WAT WAT WAT WAT WAT WAT WAT WAT WAT WAT WAT WAT WAT WAT WAT WAT 
WAT WAT WAT WAT WAT WAT WAT WAT WAT WAT WAT WAT WAT WAT WAT WAT WAT WAT WAT WAT 
WAT WAT WAT WAT WAT WAT WAT WAT WAT WAT WAT WAT WAT WAT WAT WAT WAT WAT WAT WAT 
WAT WAT WAT WAT WAT WAT WAT WAT WAT WAT WAT WAT WAT WAT WAT WAT WAT WAT WAT WAT 
WAT WAT WAT WAT WAT WAT WAT WAT WAT WAT WAT WAT WAT WAT WAT WAT WAT WAT WAT WAT 
WAT WAT WAT WAT WAT WAT WAT WAT WAT WAT WAT WAT WAT WAT WAT WAT WAT WAT WAT WAT 
WAT WAT WAT WAT WAT WAT WAT WAT WAT WAT WAT WAT WAT WAT WAT WAT WAT WAT WAT WAT 
WAT WAT WAT WAT WAT WAT WAT WAT WAT WAT WAT WAT WAT WAT WAT WAT WAT WAT WAT WAT 
WAT WAT WAT WAT WAT WAT WAT WAT WAT WAT WAT WAT WAT WAT WAT WAT WAT WAT WAT WAT 
WAT WAT WAT WAT WAT WAT WAT WAT WAT WAT WAT WAT WAT WAT WAT WAT WAT WAT WAT WAT 
WAT WAT WAT WAT WAT WAT WAT WAT WAT WAT WAT WAT WAT WAT WAT WAT WAT WAT WAT WAT 
WAT WAT WAT WAT WAT WAT WAT WAT WAT WAT WAT WAT WAT WAT WAT WAT WAT WAT WAT WAT 
WAT WAT WAT WAT WAT WAT WAT WAT WAT WAT WAT WAT WAT WAT WAT WAT WAT WAT WAT WAT 
WAT WAT WAT WAT WAT WAT WAT WAT WAT WAT WAT WAT WAT WAT WAT WAT WAT WAT WAT WAT 
WAT WAT WAT WAT WAT WAT WAT WAT WAT WAT WAT WAT WAT WAT WAT WAT WAT WAT WAT WAT 
WAT WAT WAT WAT WAT WAT WAT WAT WAT WAT WAT WAT WAT WAT WAT WAT WAT WAT WAT WAT 
WAT WAT WAT WAT WAT WAT WAT WAT WAT WAT WAT WAT WAT WAT WAT WAT WAT WAT WAT WAT 
WAT WAT WAT WAT WAT WAT WAT WAT WAT WAT WAT WAT WAT WAT WAT WAT WAT WAT WAT WAT 
WAT WAT WAT WAT WAT WAT WAT WAT WAT WAT WAT WAT WAT WAT WAT WAT WAT WAT WAT WAT 
WAT WAT WAT WAT WAT WAT WAT WAT WAT WAT WAT WAT WAT WAT WAT WAT WAT WAT WAT WAT 
WAT WAT WAT WAT WAT WAT WAT WAT WAT WAT WAT WAT WAT WAT WAT WAT WAT WAT WAT WAT 
WAT WAT WAT WAT WAT WAT WAT WAT WAT WAT WAT WAT WAT WAT WAT WAT WAT WAT WAT WAT 
WAT WAT WAT WAT WAT WAT WAT WAT WAT WAT WAT WAT WAT WAT WAT WAT WAT WAT WAT WAT 
WAT WAT WAT WAT WAT WAT WAT WAT WAT WAT WAT WAT WAT WAT WAT WAT WAT WAT WAT WAT 
WAT WAT WAT WAT WAT WAT WAT WAT WAT WAT WAT WAT WAT WAT WAT WAT WAT WAT WAT WAT 
WAT WAT WAT WAT WAT WAT WAT WAT WAT WAT WAT WAT WAT WAT WAT WAT WAT WAT WAT WAT 
WAT WAT WAT WAT WAT WAT WAT WAT WAT WAT WAT WAT WAT WAT WAT WAT WAT WAT WAT WAT 
WAT WAT WAT WAT WAT WAT WAT WAT WAT WAT WAT WAT WAT WAT WAT WAT WAT WAT WAT WAT 
WAT WAT WAT WAT WAT WAT WAT WAT WAT WAT WAT WAT WAT WAT WAT WAT WAT WAT WAT WAT 
WAT WAT WAT WAT WAT WAT WAT WAT WAT WAT WAT WAT WAT WAT WAT WAT WAT WAT WAT WAT 
WAT WAT WAT WAT WAT WAT WAT WAT WAT WAT WAT WAT WAT WAT WAT WAT WAT WAT WAT WAT 
WAT WAT WAT WAT WAT WAT WAT WAT WAT WAT WAT WAT WAT WAT WAT WAT WAT WAT WAT WAT 
WAT WAT WAT WAT WAT WAT WAT WAT WAT WAT WAT WAT WAT WAT WAT WAT WAT WAT WAT WAT 
WAT WAT WAT WAT WAT WAT WAT WAT WAT WAT WAT WAT WAT WAT WAT WAT WAT WAT WAT WAT 
WAT WAT WAT WAT WAT WAT WAT WAT WAT WAT WAT WAT WAT WAT WAT WAT WAT WAT WAT WAT 
WAT WAT WAT WAT WAT WAT WAT WAT WAT WAT WAT WAT WAT WAT WAT WAT WAT WAT WAT WAT 
WAT WAT WAT WAT WAT WAT WAT WAT WAT WAT WAT WAT WAT WAT WAT WAT WAT WAT WAT WAT 
WAT WAT WAT WAT WAT WAT WAT WAT WAT WAT WAT WAT WAT WAT WAT WAT WAT WAT WAT WAT 
WAT WAT WAT WAT WAT WAT WAT WAT WAT WAT WAT WAT WAT WAT WAT WAT WAT WAT WAT WAT 
WAT WAT WAT WAT WAT WAT WAT WAT WAT WAT WAT WAT WAT WAT WAT WAT WAT WAT WAT WAT 
WAT WAT WAT WAT WAT WAT WAT WAT WAT WAT WAT WAT WAT WAT WAT WAT WAT WAT WAT WAT 
WAT WAT WAT WAT WAT WAT WAT WAT WAT WAT WAT WAT WAT WAT WAT WAT WAT WAT WAT WAT 
WAT WAT WAT WAT WAT WAT WAT WAT WAT WAT WAT WAT WAT WAT WAT WAT WAT WAT WAT WAT 
WAT WAT WAT WAT WAT WAT WAT WAT WAT WAT WAT WAT WAT WAT WAT WAT WAT WAT WAT WAT 
WAT WAT WAT WAT WAT WAT WAT WAT WAT WAT WAT WAT WAT WAT WAT WAT WAT WAT WAT WAT 
WAT WAT WAT WAT WAT WAT WAT WAT WAT WAT WAT WAT WAT WAT WAT WAT WAT WAT WAT WAT 
WAT WAT WAT WAT WAT WAT WAT WAT WAT WAT WAT WAT WAT WAT WAT WAT WAT WAT WAT WAT 
WAT WAT WAT WAT WAT WAT WAT WAT WAT WAT WAT WAT WAT WAT WAT WAT WAT WAT WAT WAT 
WAT WAT WAT WAT WAT WAT WAT WAT WAT WAT WAT WAT WAT WAT WAT WAT WAT WAT WAT WAT 
WAT WAT WAT WAT WAT WAT WAT WAT WAT WAT WAT WAT WAT WAT WAT WAT WAT WAT WAT WAT 
WAT WAT WAT WAT WAT WAT WAT WAT WAT WAT WAT WAT WAT WAT WAT WAT WAT WAT WAT WAT 
WAT WAT WAT WAT WAT WAT WAT WAT WAT WAT WAT WAT WAT WAT WAT WAT WAT WAT WAT WAT 
WAT WAT WAT WAT WAT WAT WAT WAT WAT WAT WAT WAT WAT WAT WAT WAT WAT WAT WAT WAT 
WAT WAT WAT WAT WAT WAT WAT WAT WAT WAT WAT WAT WAT WAT WAT WAT WAT WAT WAT WAT 
WAT WAT WAT WAT WAT WAT WAT WAT WAT WAT WAT WAT WAT WAT WAT WAT WAT WAT WAT WAT 
WAT WAT WAT WAT WAT WAT WAT WAT WAT WAT WAT WAT WAT WAT WAT WAT WAT WAT WAT WAT 
WAT WAT WAT WAT WAT WAT WAT WAT WAT WAT WAT WAT WAT WAT WAT WAT WAT WAT WAT WAT 
WAT WAT WAT WAT WAT WAT WAT WAT WAT WAT WAT WAT WAT WAT WAT WAT WAT WAT WAT WAT 
WAT WAT WAT WAT WAT WAT WAT WAT WAT WAT WAT WAT WAT WAT WAT WAT WAT WAT WAT WAT 
WAT WAT WAT WAT WAT WAT WAT WAT WAT WAT WAT WAT WAT WAT WAT WAT WAT WAT WAT WAT 
WAT WAT WAT WAT WAT WAT WAT WAT WAT WAT WAT WAT WAT WAT WAT WAT WAT WAT WAT WAT 
WAT WAT WAT WAT WAT WAT WAT WAT WAT WAT WAT WAT WAT WAT WAT WAT WAT WAT WAT WAT 
WAT WAT WAT WAT WAT WAT WAT WAT WAT WAT WAT WAT WAT WAT WAT WAT WAT WAT WAT WAT 
WAT WAT WAT WAT WAT WAT WAT WAT WAT WAT WAT WAT WAT WAT WAT WAT WAT WAT WAT WAT 
WAT WAT WAT WAT WAT WAT WAT WAT WAT WAT WAT WAT WAT WAT WAT WAT WAT WAT WAT WAT 
WAT WAT WAT WAT WAT WAT WAT WAT WAT WAT WAT WAT WAT WAT WAT WAT WAT WAT WAT WAT 
WAT WAT WAT WAT WAT WAT WAT WAT WAT WAT WAT WAT WAT WAT WAT WAT WAT WAT WAT WAT 
WAT WAT WAT WAT WAT WAT WAT WAT WAT WAT WAT WAT WAT WAT WAT WAT WAT WAT WAT WAT 
WAT WAT WAT WAT WAT WAT WAT WAT WAT WAT WAT WAT WAT WAT WAT WAT WAT WAT WAT WAT 
WAT WAT WAT WAT WAT WAT WAT WAT WAT WAT WAT WAT WAT WAT WAT WAT WAT WAT WAT WAT 
WAT WAT WAT WAT WAT WAT WAT WAT WAT WAT WAT WAT WAT WAT WAT WAT WAT WAT WAT WAT 
WAT WAT WAT WAT WAT WAT WAT WAT WAT WAT WAT WAT WAT WAT WAT WAT WAT WAT WAT WAT 
WAT WAT WAT WAT WAT WAT WAT WAT WAT WAT WAT WAT WAT WAT WAT WAT WAT WAT WAT WAT 
WAT WAT WAT WAT WAT WAT WAT WAT WAT WAT WAT WAT WAT WAT WAT WAT WAT WAT WAT WAT 
WAT WAT WAT WAT WAT WAT WAT WAT WAT WAT WAT WAT WAT WAT WAT WAT WAT WAT WAT WAT 
WAT WAT WAT WAT WAT WAT WAT WAT WAT WAT WAT WAT WAT WAT WAT WAT WAT WAT WAT WAT 
WAT WAT WAT WAT WAT WAT WAT WAT WAT WAT WAT WAT WAT WAT WAT WAT WAT WAT WAT WAT 
WAT WAT WAT WAT WAT WAT WAT WAT WAT WAT WAT WAT WAT WAT WAT WAT WAT WAT WAT WAT 
WAT WAT WAT WAT WAT WAT WAT WAT WAT WAT WAT WAT WAT WAT WAT WAT WAT WAT WAT WAT 
WAT WAT WAT WAT WAT WAT WAT WAT WAT WAT WAT WAT WAT WAT WAT WAT WAT WAT WAT WAT 
WAT WAT WAT WAT WAT WAT WAT WAT WAT WAT WAT WAT WAT WAT WAT WAT WAT WAT WAT WAT 
WAT WAT WAT WAT WAT WAT WAT WAT WAT WAT WAT WAT WAT WAT WAT WAT WAT WAT WAT WAT 
WAT WAT WAT WAT WAT WAT WAT WAT WAT WAT WAT WAT WAT WAT WAT WAT WAT WAT WAT WAT 
WAT WAT WAT WAT WAT WAT WAT WAT WAT WAT WAT WAT WAT WAT WAT WAT WAT WAT WAT WAT 
WAT WAT WAT WAT WAT WAT WAT WAT WAT WAT WAT WAT WAT WAT WAT WAT WAT WAT WAT WAT 
WAT WAT WAT WAT WAT WAT WAT WAT WAT WAT WAT WAT WAT WAT WAT WAT WAT WAT WAT WAT 
WAT WAT WAT WAT WAT WAT WAT WAT WAT WAT WAT WAT WAT WAT WAT WAT WAT WAT WAT WAT 
WAT WAT WAT WAT WAT WAT WAT WAT WAT WAT WAT WAT WAT WAT WAT WAT WAT WAT WAT WAT 
WAT WAT WAT WAT WAT WAT WAT WAT WAT WAT WAT WAT WAT WAT WAT WAT WAT WAT WAT WAT 
WAT WAT WAT WAT WAT WAT WAT WAT WAT WAT WAT WAT WAT WAT WAT WAT WAT WAT WAT WAT 
WAT WAT WAT WAT WAT WAT WAT WAT WAT WAT WAT WAT WAT WAT WAT WAT WAT WAT WAT WAT 
WAT WAT WAT WAT WAT WAT WAT WAT WAT WAT WAT WAT WAT WAT WAT WAT WAT WAT WAT WAT 
WAT WAT WAT WAT WAT WAT WAT WAT WAT WAT WAT WAT WAT WAT WAT WAT WAT WAT WAT WAT 
WAT WAT WAT WAT WAT WAT WAT WAT WAT WAT WAT WAT WAT WAT WAT WAT WAT WAT WAT WAT 
WAT WAT WAT WAT WAT WAT WAT WAT WAT WAT WAT WAT WAT WAT WAT WAT WAT WAT WAT WAT 
WAT WAT WAT WAT WAT WAT WAT WAT WAT WAT WAT WAT WAT WAT WAT WAT WAT WAT WAT WAT 
WAT WAT WAT WAT WAT WAT WAT WAT WAT WAT WAT WAT WAT WAT WAT WAT WAT WAT WAT WAT 
WAT WAT WAT WAT WAT WAT WAT WAT WAT WAT WAT WAT WAT WAT WAT WAT WAT WAT WAT WAT 
WAT WAT WAT WAT WAT WAT WAT WAT WAT WAT WAT WAT WAT WAT WAT WAT WAT WAT WAT WAT 
WAT WAT WAT WAT WAT WAT WAT WAT WAT WAT WAT WAT WAT WAT WAT WAT WAT WAT WAT WAT 
WAT WAT WAT WAT WAT WAT WAT WAT WAT WAT WAT WAT WAT WAT WAT WAT WAT WAT WAT WAT 
WAT WAT WAT WAT WAT WAT WAT WAT WAT WAT WAT WAT WAT WAT WAT WAT WAT WAT WAT WAT 
WAT WAT WAT WAT WAT WAT WAT WAT WAT WAT WAT WAT WAT WAT WAT WAT WAT WAT WAT WAT 
WAT WAT WAT WAT WAT WAT WAT WAT WAT WAT WAT WAT WAT WAT WAT WAT WAT WAT WAT WAT 
WAT WAT WAT WAT WAT WAT WAT WAT WAT WAT WAT WAT WAT WAT WAT WAT WAT WAT WAT WAT 
WAT WAT WAT WAT WAT WAT WAT WAT WAT WAT WAT WAT WAT WAT WAT WAT WAT WAT WAT WAT 
WAT WAT WAT WAT WAT WAT WAT WAT WAT WAT WAT WAT WAT WAT WAT WAT WAT WAT WAT WAT 
WAT WAT WAT WAT WAT WAT WAT WAT WAT WAT WAT WAT WAT WAT WAT WAT WAT WAT WAT WAT 
WAT WAT WAT WAT WAT WAT WAT WAT WAT WAT WAT WAT WAT WAT WAT WAT WAT WAT WAT WAT 
WAT WAT WAT WAT WAT WAT WAT WAT WAT WAT WAT WAT WAT WAT WAT WAT WAT WAT WAT WAT 
WAT WAT WAT WAT WAT WAT WAT WAT WAT WAT WAT WAT WAT WAT WAT WAT WAT WAT WAT WAT 
WAT WAT WAT WAT WAT WAT WAT WAT WAT WAT WAT WAT WAT WAT WAT WAT WAT WAT WAT WAT 
WAT WAT WAT WAT WAT WAT WAT WAT WAT WAT WAT WAT WAT WAT WAT WAT WAT WAT WAT WAT 
WAT WAT WAT WAT WAT WAT WAT WAT WAT WAT WAT WAT WAT WAT WAT WAT WAT WAT WAT WAT 
WAT WAT WAT WAT WAT WAT WAT WAT WAT WAT WAT WAT WAT WAT WAT WAT WAT WAT WAT WAT 
WAT WAT WAT WAT WAT WAT WAT WAT WAT WAT WAT WAT WAT WAT WAT WAT WAT WAT WAT WAT 
WAT WAT WAT WAT WAT WAT WAT WAT WAT WAT WAT WAT WAT WAT WAT WAT WAT WAT WAT WAT 
WAT WAT WAT WAT WAT WAT WAT WAT WAT WAT WAT WAT WAT WAT WAT WAT WAT WAT WAT WAT 
WAT WAT WAT WAT WAT WAT WAT WAT WAT WAT WAT WAT WAT WAT WAT WAT WAT WAT WAT WAT 
WAT WAT WAT WAT WAT WAT WAT WAT WAT WAT WAT WAT WAT WAT WAT WAT WAT WAT WAT WAT 
WAT WAT WAT WAT WAT WAT WAT WAT WAT WAT WAT WAT WAT WAT WAT WAT WAT WAT WAT WAT 
WAT WAT WAT WAT WAT WAT WAT WAT WAT WAT WAT WAT WAT WAT WAT WAT WAT WAT WAT WAT 
WAT WAT WAT WAT WAT WAT WAT WAT WAT WAT WAT WAT WAT WAT WAT WAT WAT WAT WAT WAT 
WAT WAT WAT WAT WAT WAT WAT WAT WAT WAT WAT WAT WAT WAT WAT WAT WAT WAT WAT WAT 
WAT WAT WAT WAT WAT WAT WAT WAT WAT WAT WAT WAT WAT WAT WAT WAT WAT WAT WAT WAT 
WAT WAT WAT WAT WAT WAT WAT WAT WAT WAT WAT WAT WAT WAT WAT WAT WAT WAT WAT WAT 
WAT WAT WAT WAT WAT WAT WAT WAT WAT WAT WAT WAT WAT WAT WAT WAT WAT WAT WAT WAT 
WAT WAT WAT WAT WAT WAT WAT WAT WAT WAT WAT WAT WAT WAT WAT WAT WAT WAT WAT WAT 
WAT WAT WAT WAT WAT WAT WAT WAT WAT WAT WAT WAT WAT WAT WAT WAT WAT WAT WAT WAT 
WAT WAT WAT WAT WAT WAT WAT WAT WAT WAT WAT WAT WAT WAT WAT WAT WAT WAT WAT WAT 
WAT WAT WAT WAT WAT WAT WAT WAT WAT WAT WAT WAT WAT WAT WAT WAT WAT WAT WAT WAT 
WAT WAT WAT WAT WAT WAT WAT WAT WAT WAT WAT WAT WAT WAT WAT WAT WAT WAT WAT WAT 
WAT WAT WAT WAT WAT WAT WAT WAT WAT WAT WAT WAT WAT WAT WAT WAT WAT WAT WAT WAT 
WAT WAT WAT WAT WAT WAT WAT WAT WAT WAT WAT WAT WAT WAT WAT WAT WAT WAT WAT WAT 
WAT WAT WAT WAT WAT WAT WAT WAT WAT WAT WAT WAT WAT WAT WAT WAT WAT WAT WAT WAT 
WAT WAT WAT WAT WAT WAT WAT WAT WAT WAT WAT WAT WAT WAT WAT WAT WAT WAT WAT WAT 
WAT WAT WAT WAT WAT WAT WAT WAT WAT WAT WAT WAT WAT WAT WAT WAT WAT WAT WAT WAT 
WAT WAT WAT WAT WAT WAT WAT WAT WAT WAT WAT WAT WAT WAT WAT WAT WAT WAT WAT WAT 
WAT WAT WAT WAT WAT WAT WAT WAT WAT WAT WAT WAT WAT WAT WAT WAT WAT WAT WAT WAT 
WAT WAT WAT WAT WAT WAT WAT WAT WAT WAT WAT WAT WAT WAT WAT WAT WAT WAT WAT WAT 
WAT WAT WAT WAT WAT WAT WAT WAT WAT WAT WAT WAT WAT WAT WAT WAT WAT WAT WAT WAT 
WAT WAT WAT WAT WAT WAT WAT WAT WAT WAT WAT WAT WAT WAT WAT WAT WAT WAT WAT WAT 
WAT WAT WAT WAT WAT WAT WAT WAT WAT WAT WAT WAT WAT WAT WAT WAT WAT WAT WAT WAT 
WAT WAT WAT WAT WAT WAT WAT WAT WAT WAT WAT WAT WAT WAT WAT WAT WAT WAT WAT WAT 
WAT WAT 
%FLAG RESIDUE_POINTER                                                           
%FORMAT(10I8)                                                                   
       1      27      30      85     140     195     250     305     360     415
     470     525     580     583     586     641     696     751     806     861
     916     971    1026    1081    1136    1139    1142    1145    1148    1151
    1154    1157    1160    1163    1166    1169    1172    1175    1178    1181
    1184    1187    1190    1193    1196    1199    1202    1205    1208    1211
    1214    1217    1220    1223    1226    1229    1232    1235    1238    1241
    1244    1247    1250    1253    1256    1259    1262    1265    1268    1271
    1274    1277    1280    1283    1286    1289    1292    1295    1298    1301
    1304    1307    1310    1313    1316    1319    1322    1325    1328    1331
    1334    1337    1340    1343    1346    1349    1352    1355    1358    1361
    1364    1367    1370    1373    1376    1379    1382    1385    1388    1391
    1394    1397    1400    1403    1406    1409    1412    1415    1418    1421
    1424    1427    1430    1433    1436    1439    1442    1445    1448    1451
    1454    1457    1460    1463    1466    1469    1472    1475    1478    1481
    1484    1487    1490    1493    1496    1499    1502    1505    1508    1511
    1514    1517    1520    1523    1526    1529    1532    1535    1538    1541
    1544    1547    1550    1553    1556    1559    1562    1565    1568    1571
    1574    1577    1580    1583    1586    1589    1592    1595    1598    1601
    1604    1607    1610    1613    1616    1619    1622    1625    1628    1631
    1634    1637    1640    1643    1646    1649    1652    1655    1658    1661
    1664    1667    1670    1673    1676    1679    1682    1685    1688    1691
    1694    1697    1700    1703    1706    1709    1712    1715    1718    1721
    1724    1727    1730    1733    1736    1739    1742    1745    1748    1751
    1754    1757    1760    1763    1766    1769    1772    1775    1778    1781
    1784    1787    1790    1793    1796    1799    1802    1805    1808    1811
    1814    1817    1820    1823    1826    1829    1832    1835    1838    1841
    1844    1847    1850    1853    1856    1859    1862    1865    1868    1871
    1874    1877    1880    1883    1886    1889    1892    1895    1898    1901
    1904    1907    1910    1913    1916    1919    1922    1925    1928    1931
    1934    1937    1940    1943    1946    1949    1952    1955    1958    1961
    1964    1967    1970    1973    1976    1979    1982    1985    1988    1991
    1994    1997    2000    2003    2006    2009    2012    2015    2018    2021
    2024    2027    2030    2033    2036    2039    2042    2045    2048    2051
    2054    2057    2060    2063    2066    2069    2072    2075    2078    2081
    2084    2087    2090    2093    2096    2099    2102    2105    2108    2111
    2114    2117    2120    2123    2126    2129    2132    2135    2138    2141
    2144    2147    2150    2153    2156    2159    2162    2165    2168    2171
    2174    2177    2180    2183    2186    2189    2192    2195    2198    2201
    2204    2207    2210    2213    2216    2219    2222    2225    2228    2231
    2234    2237    2240    2243    2246    2249    2252    2255    2258    2261
    2264    2267    2270    2273    2276    2279    2282    2285    2288    2291
    2294    2297    2300    2303    2306    2309    2312    2315    2318    2321
    2324    2327    2330    2333    2336    2339    2342    2345    2348    2351
    2354    2357    2360    2363    2366    2369    2372    2375    2378    2381
    2384    2387    2390    2393    2396    2399    2402    2405    2408    2411
    2414    2417    2420    2423    2426    2429    2432    2435    2438    2441
    2444    2447    2450    2453    2456    2459    2462    2465    2468    2471
    2474    2477    2480    2483    2486    2489    2492    2495    2498    2501
    2504    2507    2510    2513    2516    2519    2522    2525    2528    2531
    2534    2537    2540    2543    2546    2549    2552    2555    2558    2561
    2564    2567    2570    2573    2576    2579    2582    2585    2588    2591
    2594    2597    2600    2603    2606    2609    2612    2615    2618    2621
    2624    2627    2630    2633    2636    2639    2642    2645    2648    2651
    2654    2657    2660    2663    2666    2669    2672    2675    2678    2681
    2684    2687    2690    2693    2696    2699    2702    2705    2708    2711
    2714    2717    2720    2723    2726    2729    2732    2735    2738    2741
    2744    2747    2750    2753    2756    2759    2762    2765    2768    2771
    2774    2777    2780    2783    2786    2789    2792    2795    2798    2801
    2804    2807    2810    2813    2816    2819    2822    2825    2828    2831
    2834    2837    2840    2843    2846    2849    2852    2855    2858    2861
    2864    2867    2870    2873    2876    2879    2882    2885    2888    2891
    2894    2897    2900    2903    2906    2909    2912    2915    2918    2921
    2924    2927    2930    2933    2936    2939    2942    2945    2948    2951
    2954    2957    2960    2963    2966    2969    2972    2975    2978    2981
    2984    2987    2990    2993    2996    2999    3002    3005    3008    3011
    3014    3017    3020    3023    3026    3029    3032    3035    3038    3041
    3044    3047    3050    3053    3056    3059    3062    3065    3068    3071
    3074    3077    3080    3083    3086    3089    3092    3095    3098    3101
    3104    3107    3110    3113    3116    3119    3122    3125    3128    3131
    3134    3137    3140    3143    3146    3149    3152    3155    3158    3161
    3164    3167    3170    3173    3176    3179    3182    3185    3188    3191
    3194    3197    3200    3203    3206    3209    3212    3215    3218    3221
    3224    3227    3230    3233    3236    3239    3242    3245    3248    3251
    3254    3257    3260    3263    3266    3269    3272    3275    3278    3281
    3284    3287    3290    3293    3296    3299    3302    3305    3308    3311
    3314    3317    3320    3323    3326    3329    3332    3335    3338    3341
    3344    3347    3350    3353    3356    3359    3362    3365    3368    3371
    3374    3377    3380    3383    3386    3389    3392    3395    3398    3401
    3404    3407    3410    3413    3416    3419    3422    3425    3428    3431
    3434    3437    3440    3443    3446    3449    3452    3455    3458    3461
    3464    3467    3470    3473    3476    3479    3482    3485    3488    3491
    3494    3497    3500    3503    3506    3509    3512    3515    3518    3521
    3524    3527    3530    3533    3536    3539    3542    3545    3548    3551
    3554    3557    3560    3563    3566    3569    3572    3575    3578    3581
    3584    3587    3590    3593    3596    3599    3602    3605    3608    3611
    3614    3617    3620    3623    3626    3629    3632    3635    3638    3641
    3644    3647    3650    3653    3656    3659    3662    3665    3668    3671
    3674    3677    3680    3683    3686    3689    3692    3695    3698    3701
    3704    3707    3710    3713    3716    3719    3722    3725    3728    3731
    3734    3737    3740    3743    3746    3749    3752    3755    3758    3761
    3764    3767    3770    3773    3776    3779    3782    3785    3788    3791
    3794    3797    3800    3803    3806    3809    3812    3815    3818    3821
    3824    3827    3830    3833    3836    3839    3842    3845    3848    3851
    3854    3857    3860    3863    3866    3869    3872    3875    3878    3881
    3884    3887    3890    3893    3896    3899    3902    3905    3908    3911
    3914    3917    3920    3923    3926    3929    3932    3935    3938    3941
    3944    3947    3950    3953    3956    3959    3962    3965    3968    3971
    3974    3977    3980    3983    3986    3989    3992    3995    3998    4001
    4004    4007    4010    4013    4016    4019    4022    4025    4028    4031
    4034    4037    4040    4043    4046    4049    4052    4055    4058    4061
    4064    4067    4070    4073    4076    4079    4082    4085    4088    4091
    4094    4097    4100    4103    4106    4109    4112    4115    4118    4121
    4124    4127    4130    4133    4136    4139    4142    4145    4148    4151
    4154    4157    4160    4163    4166    4169    4172    4175    4178    4181
    4184    4187    4190    4193    4196    4199    4202    4205    4208    4211
    4214    4217    4220    4223    4226    4229    4232    4235    4238    4241
    4244    4247    4250    4253    4256    4259    4262    4265    4268    4271
    4274    4277    4280    4283    4286    4289    4292    4295    4298    4301
    4304    4307    4310    4313    4316    4319    4322    4325    4328    4331
    4334    4337    4340    4343    4346    4349    4352    4355    4358    4361
    4364    4367    4370    4373    4376    4379    4382    4385    4388    4391
    4394    4397    4400    4403    4406    4409    4412    4415    4418    4421
    4424    4427    4430    4433    4436    4439    4442    4445    4448    4451
    4454    4457    4460    4463    4466    4469    4472    4475    4478    4481
    4484    4487    4490    4493    4496    4499    4502    4505    4508    4511
    4514    4517    4520    4523    4526    4529    4532    4535    4538    4541
    4544    4547    4550    4553    4556    4559    4562    4565    4568    4571
    4574    4577    4580    4583    4586    4589    4592    4595    4598    4601
    4604    4607    4610    4613    4616    4619    4622    4625    4628    4631
    4634    4637    4640    4643    4646    4649    4652    4655    4658    4661
    4664    4667    4670    4673    4676    4679    4682    4685    4688    4691
    4694    4697    4700    4703    4706    4709    4712    4715    4718    4721
    4724    4727    4730    4733    4736    4739    4742    4745    4748    4751
    4754    4757    4760    4763    4766    4769    4772    4775    4778    4781
    4784    4787    4790    4793    4796    4799    4802    4805    4808    4811
    4814    4817    4820    4823    4826    4829    4832    4835    4838    4841
    4844    4847    4850    4853    4856    4859    4862    4865    4868    4871
    4874    4877    4880    4883    4886    4889    4892    4895    4898    4901
    4904    4907    4910    4913    4916    4919    4922    4925    4928    4931
    4934    4937    4940    4943    4946    4949    4952    4955    4958    4961
    4964    4967    4970    4973    4976    4979    4982    4985    4988    4991
    4994    4997    5000    5003    5006    5009    5012    5015    5018    5021
    5024    5027    5030    5033    5036    5039    5042    5045    5048    5051
    5054    5057    5060    5063    5066    5069    5072    5075    5078    5081
    5084    5087    5090    5093    5096    5099    5102    5105    5108    5111
    5114    5117    5120    5123    5126    5129    5132    5135    5138    5141
    5144    5147    5150    5153    5156    5159    5162    5165    5168    5171
    5174    5177    5180    5183    5186    5189    5192    5195    5198    5201
    5204    5207    5210    5213    5216    5219    5222    5225    5228    5231
    5234    5237    5240    5243    5246    5249    5252    5255    5258    5261
    5264    5267    5270    5273    5276    5279    5282    5285    5288    5291
    5294    5297    5300    5303    5306    5309    5312    5315    5318    5321
    5324    5327    5330    5333    5336    5339    5342    5345    5348    5351
    5354    5357    5360    5363    5366    5369    5372    5375    5378    5381
    5384    5387    5390    5393    5396    5399    5402    5405    5408    5411
    5414    5417    5420    5423    5426    5429    5432    5435    5438    5441
    5444    5447    5450    5453    5456    5459    5462    5465    5468    5471
    5474    5477    5480    5483    5486    5489    5492    5495    5498    5501
    5504    5507    5510    5513    5516    5519    5522    5525    5528    5531
    5534    5537    5540    5543    5546    5549    5552    5555    5558    5561
    5564    5567    5570    5573    5576    5579    5582    5585    5588    5591
    5594    5597    5600    5603    5606    5609    5612    5615    5618    5621
    5624    5627    5630    5633    5636    5639    5642    5645    5648    5651
    5654    5657    5660    5663    5666    5669    5672    5675    5678    5681
    5684    5687    5690    5693    5696    5699    5702    5705    5708    5711
    5714    5717    5720    5723    5726    5729    5732    5735    5738    5741
    5744    5747    5750    5753    5756    5759    5762    5765    5768    5771
    5774    5777    5780    5783    5786    5789    5792    5795    5798    5801
    5804    5807    5810    5813    5816    5819    5822    5825    5828    5831
    5834    5837    5840    5843    5846    5849    5852    5855    5858    5861
    5864    5867    5870    5873    5876    5879    5882    5885    5888    5891
    5894    5897    5900    5903    5906    5909    5912    5915    5918    5921
    5924    5927    5930    5933    5936    5939    5942    5945    5948    5951
    5954    5957    5960    5963    5966    5969    5972    5975    5978    5981
    5984    5987    5990    5993    5996    5999    6002    6005    6008    6011
    6014    6017    6020    6023    6026    6029    6032    6035    6038    6041
    6044    6047    6050    6053    6056    6059    6062    6065    6068    6071
    6074    6077    6080    6083    6086    6089    6092    6095    6098    6101
    6104    6107    6110    6113    6116    6119    6122    6125    6128    6131
    6134    6137    6140    6143    6146    6149    6152    6155    6158    6161
    6164    6167    6170    6173    6176    6179    6182    6185    6188    6191
    6194    6197    6200    6203    6206    6209    6212    6215    6218    6221
    6224    6227    6230    6233    6236    6239    6242    6245    6248    6251
    6254    6257    6260    6263    6266    6269    6272    6275    6278    6281
    6284    6287    6290    6293    6296    6299    6302    6305    6308    6311
    6314    6317    6320    6323    6326    6329    6332    6335    6338    6341
    6344    6347    6350    6353    6356    6359    6362    6365    6368    6371
    6374    6377    6380    6383    6386    6389    6392    6395    6398    6401
    6404    6407    6410    6413    6416    6419    6422    6425    6428    6431
    6434    6437    6440    6443    6446    6449    6452    6455    6458    6461
    6464    6467    6470    6473    6476    6479    6482    6485    6488    6491
    6494    6497    6500    6503    6506    6509    6512    6515    6518    6521
    6524    6527    6530    6533    6536    6539    6542    6545    6548    6551
    6554    6557    6560    6563    6566    6569    6572    6575    6578    6581
    6584    6587    6590    6593    6596    6599    6602    6605    6608    6611
    6614    6617    6620    6623    6626    6629    6632    6635    6638    6641
    6644    6647    6650    6653    6656    6659    6662    6665    6668    6671
    6674    6677    6680    6683    6686    6689    6692    6695    6698    6701
    6704    6707    6710    6713    6716    6719    6722    6725    6728    6731
    6734    6737    6740    6743    6746    6749    6752    6755    6758    6761
    6764    6767    6770    6773    6776    6779    6782    6785    6788    6791
    6794    6797    6800    6803    6806    6809    6812    6815    6818    6821
    6824    6827    6830    6833    6836    6839    6842    6845    6848    6851
    6854    6857    6860    6863    6866    6869    6872    6875    6878    6881
    6884    6887    6890    6893    6896    6899    6902    6905    6908    6911
    6914    6917    6920    6923    6926    6929    6932    6935    6938    6941
    6944    6947    6950    6953    6956    6959    6962    6965    6968    6971
    6974    6977    6980    6983    6986    6989    6992    6995    6998    7001
    7004    7007    7010    7013    7016    7019    7022    7025    7028    7031
    7034    7037    7040    7043    7046    7049    7052    7055    7058    7061
    7064    7067    7070    7073    7076    7079    7082    7085    7088    7091
    7094    7097    7100    7103    7106    7109    7112    7115    7118    7121
    7124    7127    7130    7133    7136    7139    7142    7145    7148    7151
    7154    7157    7160    7163    7166    7169    7172    7175    7178    7181
    7184    7187    7190    7193    7196    7199    7202    7205    7208    7211
    7214    7217    7220    7223    7226    7229    7232    7235    7238    7241
    7244    7247    7250    7253    7256    7259    7262    7265    7268    7271
    7274    7277    7280    7283    7286    7289    7292    7295    7298    7301
    7304    7307    7310    7313    7316    7319    7322    7325    7328    7331
    7334    7337    7340    7343    7346    7349    7352    7355    7358    7361
    7364    7367    7370    7373    7376    7379    7382    7385    7388    7391
    7394    7397    7400    7403    7406    7409    7412    7415    7418    7421
    7424    7427    7430    7433    7436    7439    7442    7445    7448    7451
    7454    7457    7460    7463    7466    7469    7472    7475    7478    7481
    7484    7487    7490    7493    7496    7499    7502    7505    7508    7511
    7514    7517    7520    7523    7526    7529    7532    7535    7538    7541
    7544    7547    7550    7553    7556    7559    7562    7565    7568    7571
    7574    7577    7580    7583    7586    7589    7592    7595    7598    7601
    7604    7607    7610    7613    7616    7619    7622    7625    7628    7631
    7634    7637    7640    7643    7646    7649    7652    7655    7658    7661
    7664    7667    7670    7673    7676    7679    7682    7685    7688    7691
    7694    7697    7700    7703    7706    7709    7712    7715    7718    7721
    7724    7727    7730    7733    7736    7739    7742    7745    7748    7751
    7754    7757    7760    7763    7766    7769    7772    7775    7778    7781
    7784    7787    7790    7793    7796    7799    7802    7805    7808    7811
    7814    7817    7820    7823    7826    7829    7832    7835    7838    7841
    7844    7847    7850    7853    7856    7859    7862    7865    7868    7871
    7874    7877    7880    7883    7886    7889    7892    7895    7898    7901
    7904    7907    7910    7913    7916    7919    7922    7925    7928    7931
    7934    7937    7940    7943    7946    7949    7952    7955    7958    7961
    7964    7967    7970    7973    7976    7979    7982    7985    7988    7991
    7994    7997    8000    8003    8006    8009    8012    8015    8018    8021
    8024    8027    8030    8033    8036    8039    8042    8045    8048    8051
    8054    8057    8060    8063    8066    8069    8072    8075    8078    8081
    8084    8087    8090    8093    8096    8099    8102    8105    8108    8111
    8114    8117    8120    8123    8126    8129    8132    8135    8138    8141
    8144    8147    8150    8153    8156    8159    8162    8165    8168    8171
    8174    8177    8180    8183    8186    8189    8192    8195    8198    8201
    8204    8207    8210    8213    8216    8219    8222    8225    8228    8231
    8234    8237    8240    8243    8246    8249    8252    8255    8258    8261
    8264    8267    8270    8273    8276    8279    8282    8285    8288    8291
    8294    8297    8300    8303    8306    8309    8312    8315    8318    8321
    8324    8327    8330    8333    8336    8339    8342    8345    8348    8351
    8354    8357    8360    8363    8366    8369    8372    8375    8378    8381
    8384    8387    8390    8393    8396    8399    8402    8405    8408    8411
    8414    8417    8420    8423    8426    8429    8432    8435    8438    8441
    8444    8447    8450    8453    8456    8459    8462    8465    8468    8471
    8474    8477    8480    8483    8486    8489    8492    8495    8498    8501
    8504    8507    8510    8513    8516    8519    8522    8525    8528    8531
    8534    8537    8540    8543    8546    8549    8552    8555    8558    8561
    8564    8567    8570    8573    8576    8579    8582    8585    8588    8591
    8594    8597    8600    8603    8606    8609    8612    8615    8618    8621
    8624    8627    8630    8633    8636    8639    8642    8645    8648    8651
    8654    8657    8660    8663    8666    8669    8672    8675    8678    8681
    8684    8687    8690    8693    8696    8699    8702    8705    8708    8711
    8714    8717    8720    8723    8726    8729    8732    8735    8738    8741
    8744    8747    8750    8753    8756    8759    8762    8765    8768    8771
    8774    8777    8780    8783    8786    8789    8792    8795    8798    8801
    8804    8807    8810    8813    8816    8819    8822    8825    8828    8831
    8834    8837    8840    8843    8846    8849    8852    8855    8858    8861
    8864    8867    8870    8873    8876    8879    8882    8885    8888    8891
    8894    8897    8900    8903    8906    8909    8912    8915    8918    8921
    8924    8927    8930    8933    8936    8939    8942    8945    8948    8951
    8954    8957    8960    8963    8966    8969    8972    8975    8978    8981
    8984    8987    8990    8993    8996    8999    9002    9005    9008    9011
    9014    9017    9020    9023    9026    9029    9032    9035    9038    9041
    9044    9047    9050    9053    9056    9059    9062    9065    9068    9071
    9074    9077    9080    9083    9086    9089    9092    9095    9098    9101
    9104    9107    9110    9113    9116    9119    9122    9125    9128    9131
    9134    9137    9140    9143    9146    9149    9152    9155    9158    9161
    9164    9167    9170    9173    9176    9179    9182    9185    9188    9191
    9194    9197    9200    9203    9206    9209    9212    9215    9218    9221
    9224    9227    9230    9233    9236    9239    9242    9245    9248    9251
    9254    9257    9260    9263    9266    9269    9272    9275    9278    9281
    9284    9287    9290    9293    9296    9299    9302    9305    9308    9311
    9314    9317    9320    9323    9326    9329    9332    9335    9338    9341
    9344    9347    9350    9353    9356    9359    9362    9365    9368    9371
    9374    9377    9380    9383    9386    9389    9392    9395    9398    9401
    9404    9407    9410    9413    9416    9419    9422    9425    9428    9431
    9434    9437    9440    9443    9446    9449    9452    9455    9458    9461
    9464    9467    9470    9473    9476    9479    9482    9485    9488    9491
    9494    9497    9500    9503    9506    9509    9512    9515    9518    9521
    9524    9527    9530    9533    9536    9539    9542    9545    9548    9551
    9554    9557    9560    9563    9566    9569    9572    9575    9578    9581
    9584    9587    9590    9593    9596    9599    9602    9605    9608    9611
    9614    9617    9620    9623    9626    9629    9632    9635    9638    9641
    9644    9647    9650    9653    9656    9659    9662    9665    9668    9671
    9674    9677    9680    9683    9686    9689    9692    9695    9698    9701
    9704    9707    9710    9713    9716    9719    9722    9725    9728    9731
    9734    9737    9740    9743    9746    9749    9752    9755    9758    9761
    9764    9767    9770    9773    9776    9779    9782    9785    9788    9791
    9794    9797    9800    9803    9806    9809    9812    9815    9818    9821
    9824    9827    9830    9833    9836    9839    9842    9845    9848    9851
    9854    9857    9860    9863    9866    9869    9872    9875    9878    9881
    9884    9887    9890    9893    9896    9899    9902    9905    9908    9911
    9914    9917    9920    9923    9926    9929    9932    9935    9938    9941
    9944    9947    9950    9953    9956    9959    9962    9965    9968    9971
    9974    9977    9980    9983    9986    9989    9992    9995    9998   10001
   10004   10007   10010   10013   10016   10019   10022   10025   10028   10031
   10034   10037   10040   10043   10046   10049   10052   10055   10058   10061
   10064   10067   10070   10073   10076   10079   10082   10085   10088   10091
   10094   10097   10100   10103   10106   10109   10112   10115   10118   10121
   10124   10127   10130   10133   10136   10139   10142   10145   10148   10151
   10154   10157   10160   10163   10166   10169   10172   10175   10178   10181
   10184   10187   10190   10193   10196   10199   10202   10205   10208   10211
   10214   10217   10220   10223   10226   10229   10232   10235   10238   10241
   10244   10247   10250   10253   10256   10259   10262   10265   10268   10271
   10274   10277   10280   10283   10286   10289   10292   10295   10298   10301
   10304   10307   10310   10313   10316   10319   10322   10325   10328   10331
   10334   10337   10340   10343   10346   10349   10352   10355   10358   10361
   10364   10367   10370   10373   10376   10379   10382   10385   10388   10391
   10394   10397   10400   10403   10406   10409   10412   10415   10418   10421
   10424   10427   10430   10433   10436   10439   10442   10445   10448   10451
   10454   10457   10460   10463   10466   10469   10472   10475   10478   10481
   10484   10487   10490   10493   10496   10499   10502   10505   10508   10511
   10514   10517   10520   10523   10526   10529   10532   10535   10538   10541
   10544   10547   10550   10553   10556   10559   10562   10565   10568   10571
   10574   10577   10580   10583   10586   10589   10592   10595   10598   10601
   10604   10607   10610   10613   10616   10619   10622   10625   10628   10631
   10634   10637   10640   10643   10646   10649   10652   10655   10658   10661
   10664   10667   10670   10673   10676   10679   10682   10685   10688   10691
   10694   10697   10700   10703   10706   10709   10712   10715   10718   10721
   10724   10727   10730   10733   10736   10739   10742   10745   10748   10751
   10754   10757   10760   10763   10766   10769   10772   10775   10778   10781
   10784   10787   10790   10793   10796   10799   10802   10805   10808   10811
   10814   10817   10820   10823   10826   10829   10832   10835   10838   10841
   10844   10847   10850   10853   10856   10859   10862   10865   10868   10871
   10874   10877   10880   10883   10886   10889   10892   10895   10898   10901
   10904   10907   10910   10913   10916   10919   10922   10925   10928   10931
   10934   10937   10940   10943   10946   10949   10952   10955   10958   10961
   10964   10967   10970   10973   10976   10979   10982   10985   10988   10991
   10994   10997   11000   11003   11006   11009   11012   11015   11018   11021
   11024   11027   11030   11033   11036   11039   11042   11045   11048   11051
   11054   11057   11060   11063   11066   11069   11072   11075   11078   11081
   11084   11087   11090   11093   11096   11099   11102   11105   11108   11111
   11114   11117   11120   11123   11126   11129   11132   11135   11138   11141
   11144   11147   11150   11153   11156   11159   11162   11165   11168   11171
   11174   11177   11180   11183   11186   11189   11192   11195   11198   11201
   11204   11207   11210   11213   11216   11219   11222   11225   11228   11231
   11234   11237   11240   11243   11246   11249   11252   11255   11258   11261
   11264   11267   11270   11273   11276   11279   11282   11285   11288   11291
   11294   11297   11300   11303   11306   11309   11312   11315   11318   11321
   11324   11327   11330   11333   11336   11339   11342   11345   11348   11351
   11354   11357   11360   11363   11366   11369   11372   11375   11378   11381
   11384   11387   11390   11393   11396   11399   11402   11405   11408   11411
   11414   11417   11420   11423   11426   11429   11432   11435   11438   11441
   11444   11447   11450   11453   11456   11459   11462   11465   11468   11471
   11474   11477   11480   11483   11486   11489   11492   11495   11498   11501
   11504   11507   11510   11513   11516   11519   11522   11525   11528   11531
   11534   11537   11540   11543   11546   11549   11552   11555   11558   11561
   11564   11567   11570   11573   11576   11579   11582   11585   11588   11591
   11594   11597   11600   11603   11606   11609   11612   11615   11618   11621
   11624   11627   11630   11633   11636   11639   11642   11645   11648   11651
   11654   11657   11660   11663   11666   11669   11672   11675   11678   11681
   11684   11687   11690   11693   11696   11699   11702   11705   11708   11711
   11714   11717   11720   11723   11726   11729   11732   11735   11738   11741
   11744   11747   11750   11753   11756   11759   11762   11765   11768   11771
   11774   11777   11780   11783   11786   11789   11792   11795   11798   11801
   11804   11807   11810   11813   11816   11819   11822   11825   11828   11831
   11834   11837   11840   11843   11846   11849   11852   11855   11858   11861
   11864   11867   11870   11873   11876   11879   11882   11885   11888   11891
   11894   11897   11900   11903   11906   11909   11912   11915   11918   11921
   11924   11927   11930   11933   11936   11939   11942   11945   11948   11951
   11954   11957   11960   11963   11966   11969   11972   11975   11978   11981
   11984   11987   11990   11993   11996   11999   12002   12005   12008   12011
   12014   12017   12020   12023   12026   12029   12032   12035   12038   12041
   12044   12047   12050   12053   12056   12059   12062   12065   12068   12071
   12074   12077   12080   12083   12086   12089   12092   12095   12098   12101
   12104   12107   12110   12113   12116   12119   12122   12125   12128   12131
   12134   12137   12140   12143   12146   12149   12152   12155   12158   12161
   12164   12167   12170   12173   12176   12179   12182   12185   12188   12191
   12194   12197   12200   12203   12206   12209   12212   12215   12218   12221
   12224   12227   12230   12233   12236   12239   12242   12245   12248   12251
   12254   12257   12260   12263   12266   12269   12272   12275   12278   12281
   12284   12287   12290   12293   12296   12299   12302   12305   12308   12311
   12314   12317   12320   12323   12326   12329   12332   12335   12338   12341
   12344   12347   12350   12353   12356   12359   12362   12365   12368   12371
   12374   12377   12380   12383   12386   12389   12392   12395   12398   12401
   12404   12407   12410   12413   12416   12419   12422   12425   12428   12431
   12434   12437   12440   12443   12446   12449   12452   12455   12458   12461
   12464   12467   12470   12473   12476   12479   12482   12485   12488   12491
   12494   12497   12500   12503   12506   12509   12512   12515   12518   12521
   12524   12527   12530   12533   12536   12539   12542   12545   12548   12551
   12554   12557   12560   12563   12566   12569   12572   12575   12578   12581
   12584   12587   12590   12593   12596   12599   12602   12605   12608   12611
   12614   12617   12620   12623   12626   12629   12632   12635   12638   12641
   12644   12647   12650   12653   12656   12659   12662   12665   12668   12671
   12674   12677   12680   12683   12686   12689   12692   12695   12698   12701
   12704   12707   12710   12713   12716   12719   12722   12725   12728   12731
   12734   12737   12740   12743   12746   12749   12752   12755   12758   12761
   12764   12767   12770   12773   12776   12779   12782   12785   12788   12791
   12794   12797   12800   12803   12806   12809   12812   12815   12818   12821
   12824   12827   12830   12833   12836   12839   12842   12845   12848   12851
   12854   12857   12860   12863   12866   12869   12872   12875   12878   12881
   12884   12887   12890   12893   12896   12899   12902   12905   12908   12911
   12914   12917   12920   12923   12926   12929   12932   12935   12938   12941
   12944   12947   12950   12953   12956   12959   12962   12965   12968   12971
   12974   12977   12980   12983   12986   12989   12992   12995   12998   13001
   13004   13007   13010   13013   13016   13019   13022   13025   13028   13031
   13034   13037   13040   13043   13046   13049   13052   13055   13058   13061
   13064   13067   13070   13073   13076   13079   13082   13085   13088   13091
   13094   13097   13100   13103   13106   13109   13112   13115   13118   13121
   13124   13127   13130   13133   13136   13139   13142   13145   13148   13151
   13154   13157   13160   13163   13166   13169   13172   13175   13178   13181
   13184   13187   13190   13193   13196   13199   13202   13205   13208   13211
   13214   13217   13220   13223   13226   13229   13232   13235   13238   13241
   13244   13247   13250   13253   13256   13259   13262   13265   13268   13271
   13274   13277   13280   13283   13286   13289   13292   13295   13298   13301
   13304   13307   13310   13313   13316   13319   13322   13325   13328   13331
   13334   13337   13340   13343   13346   13349   13352   13355   13358   13361
   13364   13367   13370   13373   13376   13379   13382   13385   13388   13391
   13394   13397   13400   13403   13406   13409   13412   13415   13418   13421
   13424   13427   13430   13433   13436   13439   13442   13445   13448   13451
   13454   13457   13460   13463   13466   13469   13472   13475   13478   13481
   13484   13487   13490   13493   13496   13499   13502   13505   13508   13511
   13514   13517   13520   13523   13526   13529   13532   13535   13538   13541
   13544   13547   13550   13553   13556   13559   13562   13565   13568   13571
   13574   13577   13580   13583   13586   13589   13592   13595   13598   13601
   13604   13607   13610   13613   13616   13619   13622   13625   13628   13631
   13634   13637   13640   13643   13646   13649   13652   13655   13658   13661
   13664   13667   13670   13673   13676   13679   13682   13685   13688   13691
   13694   13697   13700   13703   13706   13709   13712   13715   13718   13721
   13724   13727   13730   13733   13736   13739   13742   13745   13748   13751
   13754   13757   13760   13763   13766   13769   13772   13775   13778   13781
   13784   13787   13790   13793   13796   13799   13802   13805   13808   13811
   13814   13817   13820   13823   13826   13829   13832   13835   13838   13841
   13844   13847   13850   13853   13856   13859   13862   13865   13868   13871
   13874   13877   13880   13883   13886   13889   13892   13895   13898   13901
   13904   13907   13910   13913   13916   13919   13922   13925   13928   13931
   13934   13937   13940   13943   13946   13949   13952   13955   13958   13961
   13964   13967   13970   13973   13976   13979   13982   13985   13988   13991
   13994   13997   14000   14003   14006   14009   14012   14015   14018   14021
   14024   14027   14030   14033   14036   14039   14042   14045   14048   14051
   14054   14057   14060   14063   14066   14069   14072   14075   14078   14081
   14084   14087   14090   14093   14096   14099   14102   14105   14108   14111
   14114   14117   14120   14123   14126   14129   14132   14135   14138   14141
   14144   14147   14150   14153   14156   14159   14162   14165   14168   14171
   14174   14177   14180   14183   14186   14189   14192   14195   14198   14201
   14204   14207   14210   14213   14216   14219   14222   14225   14228   14231
   14234   14237   14240   14243   14246   14249   14252   14255   14258   14261
   14264   14267   14270   14273   14276   14279   14282   14285   14288   14291
   14294   14297   14300   14303   14306   14309   14312   14315   14318   14321
   14324   14327   14330   14333   14336   14339   14342   14345   14348   14351
   14354   14357   14360   14363   14366   14369   14372   14375   14378   14381
   14384   14387   14390   14393   14396   14399   14402   14405   14408   14411
   14414   14417   14420   14423   14426   14429   14432   14435   14438   14441
   14444   14447   14450   14453   14456   14459   14462   14465   14468   14471
   14474   14477   14480   14483   14486   14489   14492   14495   14498   14501
   14504   14507   14510   14513   14516   14519   14522   14525   14528   14531
   14534   14537   14540   14543   14546   14549   14552   14555   14558   14561
   14564   14567   14570   14573   14576   14579   14582   14585   14588   14591
   14594   14597   14600   14603   14606   14609   14612   14615   14618   14621
   14624   14627   14630   14633   14636   14639   14642   14645   14648   14651
   14654   14657   14660   14663   14666   14669   14672   14675   14678   14681
   14684   14687   14690   14693   14696   14699   14702   14705   14708   14711
   14714   14717   14720   14723   14726   14729   14732   14735   14738   14741
   14744   14747   14750   14753   14756   14759   14762   14765   14768   14771
   14774   14777   14780   14783   14786   14789   14792   14795   14798   14801
   14804   14807   14810   14813   14816   14819   14822   14825   14828   14831
   14834   14837   14840   14843   14846   14849   14852   14855   14858   14861
   14864   14867   14870   14873   14876   14879   14882   14885   14888   14891
   14894   14897   14900   14903   14906   14909   14912   14915   14918   14921
   14924   14927   14930   14933   14936   14939   14942   14945   14948   14951
   14954   14957   14960   14963   14966   14969   14972   14975   14978   14981
   14984   14987   14990   14993   14996   14999   15002   15005   15008   15011
   15014   15017   15020   15023   15026   15029   15032   15035   15038   15041
   15044   15047   15050   15053   15056   15059   15062   15065   15068   15071
   15074   15077   15080   15083   15086   15089   15092   15095   15098   15101
   15104   15107   15110   15113   15116   15119   15122   15125   15128   15131
   15134   15137   15140   15143   15146   15149   15152   15155   15158   15161
   15164   15167   15170   15173   15176   15179   15182   15185   15188   15191
   15194   15197   15200   15203   15206   15209   15212   15215   15218   15221
   15224   15227   15230   15233   15236   15239   15242   15245   15248   15251
   15254   15257   15260   15263   15266   15269   15272   15275   15278   15281
   15284   15287   15290   15293   15296   15299   15302   15305   15308   15311
   15314   15317   15320   15323   15326   15329   15332   15335   15338   15341
   15344   15347   15350   15353   15356   15359   15362   15365   15368   15371
   15374   15377   15380   15383   15386   15389   15392   15395   15398   15401
   15404   15407   15410   15413   15416   15419   15422   15425   15428   15431
   15434   15437   15440   15443   15446   15449   15452   15455   15458   15461
   15464   15467   15470   15473   15476   15479   15482   15485   15488   15491
   15494   15497   15500   15503   15506   15509   15512   15515   15518   15521
   15524   15527   15530   15533   15536   15539   15542   15545   15548   15551
   15554   15557   15560   15563   15566   15569   15572   15575   15578   15581
   15584   15587   15590   15593   15596   15599   15602   15605   15608   15611
   15614   15617   15620   15623   15626   15629   15632   15635   15638   15641
   15644   15647   15650   15653   15656   15659   15662   15665   15668   15671
   15674   15677   15680   15683   15686   15689   15692   15695   15698   15701
   15704   15707   15710   15713   15716   15719   15722   15725   15728   15731
   15734   15737   15740   15743   15746   15749   15752   15755   15758   15761
   15764   15767   15770   15773   15776   15779   15782   15785   15788   15791
   15794   15797   15800   15803   15806   15809   15812   15815   15818   15821
   15824   15827   15830   15833   15836   15839   15842   15845   15848   15851
   15854   15857   15860   15863   15866   15869   15872   15875   15878   15881
   15884   15887   15890   15893   15896   15899   15902   15905   15908   15911
   15914   15917   15920   15923   15926   15929   15932   15935   15938   15941
   15944   15947   15950   15953   15956   15959   15962   15965   15968   15971
   15974   15977   15980   15983   15986   15989   15992   15995   15998   16001
   16004   16007   16010   16013   16016   16019   16022   16025   16028   16031
   16034   16037   16040   16043   16046   16049   16052   16055   16058   16061
   16064   16067   16070   16073   16076   16079   16082   16085   16088   16091
   16094   16097   16100   16103   16106   16109   16112   16115   16118   16121
   16124   16127   16130   16133   16136   16139   16142   16145   16148   16151
   16154   16157   16160   16163   16166   16169   16172   16175   16178   16181
   16184   16187   16190   16193   16196   16199   16202   16205   16208   16211
   16214   16217   16220   16223   16226   16229   16232   16235   16238   16241
   16244   16247   16250   16253   16256   16259   16262   16265   16268   16271
   16274   16277   16280   16283   16286   16289   16292   16295   16298   16301
   16304   16307   16310   16313   16316   16319   16322   16325   16328   16331
   16334   16337   16340   16343   16346   16349   16352   16355   16358   16361
   16364   16367   16370   16373   16376   16379   16382   16385   16388   16391
   16394   16397   16400   16403   16406   16409   16412   16415   16418   16421
   16424   16427   16430   16433   16436   16439   16442   16445   16448   16451
   16454   16457   16460   16463   16466   16469   16472   16475   16478   16481
   16484   16487   16490   16493   16496   16499   16502   16505   16508   16511
   16514   16517   16520   16523   16526   16529   16532   16535   16538   16541
   16544   16547   16550   16553   16556   16559   16562   16565   16568   16571
   16574   16577   16580   16583   16586   16589   16592   16595   16598   16601
   16604   16607   16610   16613   16616   16619   16622   16625   16628   16631
   16634   16637   16640   16643   16646   16649   16652   16655   16658   16661
   16664   16667   16670   16673   16676   16679   16682   16685   16688   16691
   16694   16697   16700   16703   16706   16709   16712   16715   16718   16721
   16724   16727   16730   16733   16736   16739   16742   16745   16748   16751
   16754   16757   16760   16763   16766   16769   16772   16775   16778   16781
   16784   16787   16790   16793   16796   16799   16802   16805   16808   16811
   16814   16817   16820   16823   16826   16829   16832   16835   16838   16841
   16844   16847   16850   16853   16856   16859   16862   16865   16868   16871
   16874   16877   16880   16883   16886   16889   16892   16895   16898   16901
   16904   16907   16910   16913   16916   16919   16922   16925   16928   16931
   16934   16937   16940   16943   16946   16949   16952   16955   16958   16961
   16964   16967   16970   16973   16976   16979   16982   16985   16988   16991
   16994   16997   17000   17003   17006   17009   17012   17015   17018   17021
   17024   17027   17030   17033   17036   17039   17042   17045   17048   17051
   17054   17057   17060   17063   17066   17069   17072   17075   17078   17081
   17084   17087   17090   17093   17096   17099   17102   17105   17108   17111
   17114   17117   17120   17123   17126   17129   17132   17135   17138   17141
   17144   17147   17150   17153   17156   17159   17162   17165   17168   17171
   17174   17177   17180   17183   17186   17189   17192   17195   17198   17201
   17204   17207   17210   17213   17216   17219   17222   17225   17228   17231
   17234   17237   17240   17243   17246   17249   17252   17255   17258   17261
   17264   17267   17270   17273   17276   17279   17282   17285   17288   17291
   17294   17297   17300   17303   17306   17309   17312   17315   17318   17321
   17324   17327   17330   17333   17336   17339   17342   17345   17348   17351
   17354   17357   17360   17363   17366   17369   17372   17375   17378   17381
   17384   17387   17390   17393   17396   17399   17402   17405   17408   17411
   17414   17417   17420   17423   17426   17429   17432   17435   17438   17441
   17444   17447   17450   17453   17456   17459   17462   17465   17468   17471
   17474   17477   17480   17483   17486   17489   17492   17495   17498   17501
   17504   17507   17510   17513   17516   17519   17522   17525   17528   17531
   17534   17537   17540   17543   17546   17549   17552   17555   17558   17561
   17564   17567   17570   17573   17576   17579   17582   17585   17588   17591
   17594   17597   17600   17603   17606   17609   17612   17615   17618   17621
   17624   17627   17630   17633   17636   17639   17642   17645   17648   17651
   17654   17657   17660   17663   17666   17669   17672   17675   17678   17681
   17684   17687   17690   17693   17696   17699   17702   17705   17708   17711
   17714   17717   17720   17723   17726   17729   17732   17735   17738   17741
   17744   17747   17750   17753   17756   17759   17762   17765   17768   17771
   17774   17777   17780   17783   17786   17789   17792   17795   17798   17801
   17804   17807   17810   17813   17816   17819   17822   17825   17828   17831
   17834   17837   17840   17843   17846   17849   17852   17855   17858   17861
   17864   17867   17870   17873   17876   17879   17882   17885   17888   17891
   17894   17897   17900   17903   17906   17909   17912   17915   17918   17921
   17924   17927   17930   17933   17936   17939   17942   17945   17948   17951
   17954   17957   17960   17963   17966   17969   17972   17975   17978   17981
   17984   17987   17990   17993   17996   17999   18002   18005   18008   18011
   18014   18017   18020   18023   18026   18029   18032   18035   18038   18041
   18044   18047   18050   18053   18056   18059   18062   18065   18068   18071
   18074   18077   18080   18083   18086   18089   18092   18095   18098   18101
   18104   18107   18110   18113   18116   18119   18122   18125   18128   18131
   18134   18137   18140   18143   18146   18149   18152   18155   18158   18161
   18164   18167   18170   18173   18176   18179   18182   18185   18188   18191
   18194   18197   18200   18203   18206   18209   18212   18215   18218   18221
   18224   18227   18230   18233   18236   18239   18242   18245   18248   18251
   18254   18257   18260   18263   18266   18269   18272   18275   18278   18281
   18284   18287   18290   18293   18296   18299   18302   18305   18308   18311
   18314   18317   18320   18323   18326   18329   18332   18335   18338   18341
   18344   18347   18350   18353   18356   18359   18362   18365   18368   18371
   18374   18377   18380   18383   18386   18389   18392   18395   18398   18401
   18404   18407   18410   18413   18416   18419   18422   18425   18428   18431
   18434   18437   18440   18443   18446   18449   18452   18455   18458   18461
   18464   18467   18470   18473   18476   18479   18482   18485   18488   18491
   18494   18497   18500   18503   18506   18509   18512   18515   18518   18521
   18524   18527   18530   18533   18536   18539   18542   18545   18548   18551
   18554   18557   18560   18563   18566   18569   18572   18575   18578   18581
   18584   18587   18590   18593   18596   18599   18602   18605   18608   18611
   18614   18617   18620   18623   18626   18629   18632   18635   18638   18641
   18644   18647   18650   18653   18656   18659   18662   18665   18668   18671
   18674   18677   18680   18683   18686   18689   18692   18695   18698   18701
   18704   18707   18710   18713   18716   18719   18722   18725   18728   18731
   18734   18737   18740   18743   18746   18749   18752   18755   18758   18761
   18764   18767   18770   18773   18776   18779   18782   18785   18788   18791
   18794   18797   18800   18803   18806   18809   18812   18815   18818   18821
   18824   18827   18830   18833   18836   18839   18842   18845   18848   18851
   18854   18857   18860   18863   18866   18869   18872   18875   18878   18881
   18884   18887   18890   18893   18896   18899   18902   18905   18908   18911
   18914   18917   18920   18923   18926   18929   18932   18935   18938   18941
   18944   18947   18950   18953   18956   18959   18962   18965   18968   18971
   18974   18977   18980   18983   18986   18989   18992   18995   18998   19001
   19004   19007   19010   19013   19016   19019   19022   19025   19028   19031
   19034   19037   19040   19043   19046   19049   19052   19055   19058   19061
   19064   19067   19070   19073   19076   19079   19082   19085   19088   19091
   19094   19097   19100   19103   19106   19109   19112   19115   19118   19121
   19124   19127   19130   19133   19136   19139   19142   19145   19148   19151
   19154   19157   19160   19163   19166   19169   19172   19175   19178   19181
   19184   19187   19190   19193   19196   19199   19202   19205   19208   19211
   19214   19217   19220   19223   19226   19229   19232   19235   19238   19241
   19244   19247   19250   19253   19256   19259   19262   19265   19268   19271
   19274   19277   19280   19283   19286   19289   19292   19295   19298   19301
   19304   19307   19310   19313   19316   19319   19322   19325   19328   19331
   19334   19337   19340   19343   19346   19349   19352   19355   19358   19361
   19364   19367   19370   19373   19376   19379   19382   19385   19388   19391
   19394   19397   19400   19403   19406   19409   19412   19415   19418   19421
   19424   19427   19430   19433   19436   19439   19442   19445   19448   19451
   19454   19457   19460   19463   19466   19469   19472   19475   19478   19481
   19484   19487   19490   19493   19496   19499   19502   19505   19508   19511
   19514   19517   19520   19523   19526   19529   19532   19535   19538   19541
   19544   19547   19550   19553   19556   19559   19562   19565   19568   19571
   19574   19577   19580   19583   19586   19589   19592   19595   19598   19601
   19604   19607   19610   19613   19616   19619   19622   19625   19628   19631
   19634   19637   19640   19643   19646   19649   19652   19655   19658   19661
   19664   19667   19670   19673   19676   19679   19682   19685   19688   19691
   19694   19697   19700   19703   19706   19709   19712   19715   19718   19721
   19724   19727   19730   19733   19736   19739   19742   19745   19748   19751
   19754   19757   19760   19763   19766   19769   19772   19775   19778   19781
   19784   19787   19790   19793   19796   19799   19802   19805   19808   19811
   19814   19817   19820   19823   19826   19829   19832   19835   19838   19841
   19844   19847   19850   19853   19856   19859   19862   19865   19868   19871
   19874   19877   19880   19883   19886   19889   19892   19895   19898   19901
   19904   19907   19910   19913   19916   19919   19922   19925   19928   19931
   19934   19937   19940   19943   19946   19949   19952   19955   19958   19961
   19964   19967   19970   19973   19976   19979   19982   19985   19988   19991
   19994   19997   20000   20003   20006   20009   20012   20015   20018   20021
   20024   20027   20030   20033   20036   20039   20042   20045   20048   20051
   20054   20057   20060   20063   20066   20069   20072   20075   20078   20081
   20084   20087   20090   20093   20096   20099   20102   20105   20108   20111
   20114   20117   20120   20123   20126   20129   20132   20135   20138   20141
   20144   20147   20150   20153   20156   20159   20162   20165   20168   20171
   20174   20177   20180   20183   20186   20189   20192   20195   20198   20201
   20204   20207   20210   20213   20216   20219   20222   20225   20228   20231
   20234   20237   20240   20243   20246   20249   20252   20255   20258   20261
   20264   20267   20270   20273   20276   20279   20282   20285   20288   20291
   20294   20297   20300   20303   20306   20309   20312   20315   20318   20321
   20324   20327   20330   20333   20336   20339   20342   20345   20348   20351
   20354   20357   20360   20363   20366   20369   20372   20375   20378   20381
   20384   20387   20390   20393   20396   20399   20402   20405   20408   20411
   20414   20417   20420   20423   20426   20429   20432   20435   20438   20441
   20444   20447   20450   20453   20456   20459   20462   20465   20468   20471
   20474   20477   20480   20483   20486   20489   20492   20495   20498   20501
   20504   20507   20510   20513   20516   20519   20522   20525   20528   20531
   20534   20537   20540   20543   20546   20549   20552   20555   20558   20561
   20564   20567   20570   20573   20576   20579   20582   20585   20588   20591
   20594   20597   20600   20603   20606   20609   20612   20615   20618   20621
   20624   20627   20630   20633   20636   20639   20642   20645   20648   20651
   20654   20657   20660   20663   20666   20669   20672   20675   20678   20681
   20684   20687   20690   20693   20696   20699   20702   20705   20708   20711
   20714   20717   20720   20723   20726   20729   20732   20735   20738   20741
   20744   20747   20750   20753   20756   20759   20762   20765   20768   20771
   20774   20777   20780   20783   20786   20789   20792   20795   20798   20801
   20804   20807   20810   20813   20816   20819   20822   20825   20828   20831
   20834   20837   20840   20843   20846   20849   20852   20855   20858   20861
   20864   20867   20870   20873   20876   20879   20882   20885   20888   20891
   20894   20897   20900   20903   20906   20909   20912   20915   20918   20921
   20924   20927   20930   20933   20936   20939   20942   20945   20948   20951
   20954   20957   20960   20963   20966   20969   20972   20975   20978   20981
   20984   20987   20990   20993   20996   20999   21002   21005   21008   21011
   21014   21017   21020   21023   21026   21029   21032   21035   21038   21041
   21044   21047   21050   21053   21056   21059   21062   21065   21068   21071
   21074   21077   21080   21083   21086   21089   21092   21095   21098   21101
   21104   21107   21110   21113   21116   21119   21122   21125   21128   21131
   21134   21137   21140   21143   21146   21149   21152   21155   21158   21161
   21164   21167   21170   21173   21176   21179   21182   21185   21188   21191
   21194   21197   21200   21203   21206   21209   21212   21215   21218   21221
   21224   21227   21230   21233   21236   21239   21242   21245   21248   21251
   21254   21257   21260   21263   21266   21269   21272   21275   21278   21281
   21284   21287   21290   21293   21296   21299   21302   21305   21308   21311
   21314   21317   21320   21323   21326   21329   21332   21335   21338   21341
   21344   21347   21350   21353   21356   21359   21362   21365   21368   21371
   21374   21377   21380   21383   21386   21389   21392   21395   21398   21401
   21404   21407   21410   21413   21416   21419   21422   21425   21428   21431
   21434   21437   21440   21443   21446   21449   21452   21455   21458   21461
   21464   21467   21470   21473   21476   21479   21482   21485   21488   21491
   21494   21497   21500   21503   21506   21509   21512   21515   21518   21521
   21524   21527   21530   21533   21536   21539   21542   21545   21548   21551
   21554   21557   21560   21563   21566   21569   21572   21575   21578   21581
   21584   21587   21590   21593   21596   21599   21602   21605   21608   21611
   21614   21617   21620   21623   21626   21629   21632   21635   21638   21641
   21644   21647   21650   21653   21656   21659   21662   21665   21668   21671
   21674   21677   21680   21683   21686   21689   21692   21695   21698   21701
   21704   21707   21710   21713   21716   21719   21722   21725   21728   21731
   21734   21737   21740   21743   21746   21749   21752   21755   21758   21761
   21764   21767   21770   21773   21776   21779   21782   21785   21788   21791
   21794   21797   21800   21803   21806   21809   21812   21815   21818   21821
   21824   21827   21830   21833   21836   21839   21842   21845   21848   21851
   21854   21857   21860   21863   21866   21869   21872   21875   21878   21881
   21884   21887   21890   21893   21896   21899   21902   21905   21908   21911
   21914   21917   21920   21923   21926   21929   21932   21935   21938   21941
   21944   21947   21950   21953   21956   21959   21962   21965   21968   21971
   21974   21977   21980   21983   21986   21989   21992   21995   21998   22001
   22004   22007   22010   22013   22016   22019   22022   22025   22028   22031
   22034   22037   22040   22043   22046   22049   22052   22055   22058   22061
   22064   22067   22070   22073   22076   22079   22082   22085   22088   22091
   22094   22097   22100   22103   22106   22109   22112   22115   22118   22121
   22124   22127   22130   22133   22136   22139   22142   22145   22148   22151
   22154   22157   22160   22163   22166   22169   22172   22175   22178   22181
   22184   22187   22190   22193   22196   22199   22202   22205   22208   22211
   22214   22217   22220   22223   22226   22229   22232   22235   22238   22241
   22244   22247   22250   22253   22256   22259   22262   22265   22268   22271
   22274   22277   22280   22283   22286   22289   22292   22295   22298   22301
   22304   22307   22310   22313   22316   22319   22322   22325   22328   22331
   22334   22337   22340   22343   22346   22349   22352   22355   22358   22361
   22364   22367   22370   22373   22376   22379   22382   22385   22388   22391
   22394   22397   22400   22403   22406   22409   22412   22415   22418   22421
   22424   22427   22430   22433   22436   22439   22442   22445   22448   22451
   22454   22457   22460   22463   22466   22469   22472   22475   22478   22481
   22484   22487   22490   22493   22496   22499   22502   22505   22508   22511
   22514   22517   22520   22523   22526   22529   22532   22535   22538   22541
   22544   22547   22550   22553   22556   22559   22562   22565   22568   22571
   22574   22577   22580   22583   22586   22589   22592   22595   22598   22601
   22604   22607   22610   22613   22616   22619   22622   22625   22628   22631
   22634   22637   22640   22643   22646   22649   22652   22655   22658   22661
   22664   22667   22670   22673   22676   22679   22682   22685   22688   22691
   22694   22697   22700   22703   22706   22709   22712   22715   22718   22721
   22724   22727   22730   22733   22736   22739   22742   22745   22748   22751
   22754   22757   22760   22763   22766   22769   22772   22775   22778   22781
   22784   22787   22790   22793   22796   22799   22802   22805   22808   22811
   22814   22817   22820   22823   22826   22829   22832   22835   22838   22841
   22844   22847   22850   22853   22856   22859   22862   22865   22868   22871
   22874   22877   22880   22883   22886   22889   22892   22895   22898   22901
   22904   22907   22910   22913   22916   22919   22922   22925   22928   22931
   22934   22937   22940   22943   22946   22949   22952   22955   22958   22961
   22964   22967   22970   22973   22976   22979   22982   22985   22988   22991
   22994   22997   23000   23003   23006   23009   23012   23015   23018   23021
   23024   23027   23030   23033   23036   23039   23042   23045   23048   23051
   23054   23057   23060   23063   23066   23069   23072   23075   23078   23081
   23084   23087   23090   23093   23096   23099   23102   23105   23108   23111
   23114   23117   23120   23123   23126   23129   23132   23135   23138   23141
   23144   23147   23150   23153   23156   23159   23162   23165   23168   23171
   23174   23177   23180   23183   23186   23189   23192   23195   23198   23201
   23204   23207   23210   23213   23216   23219   23222   23225   23228   23231
   23234   23237   23240   23243   23246   23249   23252   23255   23258   23261
   23264   23267   23270   23273   23276   23279   23282   23285   23288   23291
   23294   23297   23300   23303   23306   23309   23312   23315   23318   23321
   23324   23327   23330   23333   23336   23339   23342   23345   23348   23351
   23354   23357   23360   23363   23366   23369   23372   23375   23378   23381
   23384   23387   23390   23393   23396   23399   23402   23405   23408   23411
   23414   23417   23420   23423   23426   23429   23432   23435   23438   23441
   23444   23447   23450   23453   23456   23459   23462   23465   23468   23471
   23474   23477   23480   23483   23486   23489   23492   23495   23498   23501
   23504   23507   23510   23513   23516   23519   23522   23525   23528   23531
   23534   23537   23540   23543   23546   23549   23552   23555   23558   23561
   23564   23567   23570   23573   23576   23579   23582   23585   23588   23591
   23594   23597   23600   23603   23606   23609   23612   23615   23618   23621
   23624   23627   23630   23633   23636   23639   23642   23645   23648   23651
   23654   23657   23660   23663   23666   23669   23672   23675   23678   23681
   23684   23687   23690   23693   23696   23699   23702   23705   23708   23711
   23714   23717   23720   23723   23726   23729   23732   23735   23738   23741
   23744   23747   23750   23753   23756   23759   23762   23765   23768   23771
   23774   23777   23780   23783   23786   23789   23792   23795   23798   23801
   23804   23807   23810   23813   23816   23819   23822   23825   23828   23831
   23834   23837   23840   23843   23846   23849   23852   23855   23858   23861
   23864   23867   23870   23873   23876   23879   23882   23885   23888   23891
   23894   23897   23900   23903   23906   23909   23912   23915   23918   23921
   23924   23927   23930   23933   23936   23939   23942   23945   23948   23951
   23954   23957   23960   23963   23966   23969   23972   23975   23978   23981
   23984   23987   23990   23993   23996   23999   24002   24005   24008   24011
   24014   24017   24020   24023   24026   24029   24032   24035   24038   24041
   24044   24047   24050   24053   24056   24059   24062   24065   24068   24071
   24074   24077   24080   24083   24086   24089   24092   24095   24098   24101
   24104   24107   24110   24113   24116   24119   24122   24125   24128   24131
   24134   24137   24140   24143   24146   24149   24152   24155   24158   24161
   24164   24167   24170   24173   24176   24179   24182   24185   24188   24191
   24194   24197   24200   24203   24206   24209   24212   24215   24218   24221
   24224   24227   24230   24233   24236   24239   24242   24245   24248   24251
   24254   24257   24260   24263   24266   24269   24272   24275   24278   24281
   24284   24287   24290   24293   24296   24299   24302   24305   24308   24311
   24314   24317   24320   24323   24326   24329   24332   24335   24338   24341
   24344   24347   24350   24353   24356   24359   24362   24365   24368   24371
   24374   24377   24380   24383   24386   24389   24392   24395   24398   24401
   24404   24407   24410   24413   24416   24419   24422   24425   24428   24431
   24434   24437   24440   24443   24446   24449   24452   24455   24458   24461
   24464   24467   24470   24473   24476   24479   24482   24485   24488   24491
   24494   24497   24500   24503   24506   24509   24512   24515   24518   24521
   24524   24527   24530   24533   24536   24539   24542   24545   24548   24551
   24554   24557   24560   24563   24566   24569   24572   24575   24578   24581
   24584   24587   24590   24593   24596   24599   24602   24605   24608   24611
   24614   24617   24620   24623   24626   24629   24632   24635   24638   24641
   24644   24647   24650   24653   24656   24659   24662   24665   24668   24671
   24674   24677   24680   24683   24686   24689   24692   24695   24698   24701
   24704   24707   24710   24713   24716   24719   24722   24725   24728   24731
   24734   24737   24740   24743   24746   24749   24752   24755   24758   24761
   24764   24767   24770   24773   24776   24779   24782   24785   24788   24791
   24794   24797   24800   24803   24806   24809   24812   24815   24818   24821
   24824   24827   24830   24833   24836   24839   24842   24845   24848   24851
   24854   24857   24860   24863   24866   24869   24872   24875   24878   24881
   24884   24887   24890   24893   24896   24899   24902   24905   24908   24911
   24914   24917   24920   24923   24926   24929   24932   24935   24938   24941
   24944   24947   24950   24953   24956   24959   24962   24965   24968   24971
   24974   24977   24980   24983   24986   24989   24992   24995   24998   25001
   25004   25007   25010   25013   25016   25019   25022   25025   25028   25031
   25034   25037   25040   25043   25046   25049   25052   25055   25058   25061
   25064   25067   25070   25073   25076   25079   25082   25085   25088   25091
   25094   25097   25100   25103   25106   25109   25112   25115   25118   25121
   25124   25127   25130   25133   25136   25139   25142   25145   25148   25151
   25154   25157   25160   25163   25166   25169   25172   25175   25178   25181
   25184   25187   25190   25193   25196   25199   25202   25205   25208   25211
   25214   25217   25220   25223   25226   25229   25232   25235   25238   25241
   25244   25247   25250   25253   25256   25259   25262   25265   25268   25271
   25274   25277   25280   25283   25286   25289   25292   25295   25298   25301
   25304   25307   25310   25313   25316   25319   25322   25325   25328   25331
   25334   25337   25340   25343   25346   25349   25352   25355   25358   25361
   25364   25367   25370   25373   25376   25379   25382   25385   25388   25391
   25394   25397   25400   25403   25406   25409   25412   25415   25418   25421
   25424   25427   25430   25433   25436   25439   25442   25445   25448   25451
   25454   25457   25460   25463   25466   25469   25472   25475   25478   25481
   25484   25487   25490   25493   25496   25499   25502   25505   25508   25511
   25514   25517   25520   25523   25526   25529   25532   25535   25538   25541
   25544   25547   25550   25553   25556   25559   25562   25565   25568   25571
   25574   25577   25580   25583   25586   25589   25592   25595   25598   25601
   25604   25607   25610   25613   25616   25619   25622   25625   25628   25631
   25634   25637   25640   25643   25646   25649   25652   25655   25658   25661
   25664   25667   25670   25673   25676   25679   25682   25685   25688   25691
   25694   25697   25700   25703   25706   25709   25712   25715   25718   25721
   25724   25727   25730   25733   25736   25739   25742   25745   25748   25751
   25754   25757   25760   25763   25766   25769   25772   25775   25778   25781
   25784   25787   25790   25793   25796   25799   25802   25805   25808   25811
   25814   25817   25820   25823   25826   25829   25832   25835   25838   25841
   25844   25847   25850   25853   25856   25859   25862   25865   25868   25871
   25874   25877   25880   25883   25886   25889   25892   25895   25898   25901
   25904   25907   25910   25913   25916   25919   25922   25925   25928   25931
   25934   25937   25940   25943   25946   25949   25952   25955   25958   25961
   25964   25967   25970   25973   25976   25979   25982   25985   25988   25991
   25994   25997   26000   26003   26006   26009   26012   26015   26018   26021
   26024   26027   26030   26033   26036   26039   26042   26045   26048   26051
   26054   26057   26060   26063   26066   26069   26072   26075   26078   26081
   26084   26087   26090   26093   26096   26099   26102   26105   26108   26111
   26114   26117   26120   26123   26126   26129   26132   26135   26138   26141
   26144   26147   26150   26153   26156   26159   26162   26165   26168   26171
   26174   26177   26180   26183   26186   26189   26192   26195   26198   26201
   26204   26207   26210   26213   26216   26219   26222   26225   26228   26231
   26234   26237   26240   26243   26246   26249   26252   26255   26258   26261
   26264   26267   26270   26273   26276   26279   26282   26285   26288   26291
   26294   26297   26300   26303   26306   26309   26312   26315   26318   26321
   26324   26327   26330   26333   26336   26339   26342   26345   26348   26351
   26354   26357   26360   26363   26366   26369   26372   26375   26378   26381
   26384   26387   26390   26393   26396   26399   26402   26405   26408   26411
   26414   26417   26420   26423   26426   26429   26432   26435   26438   26441
   26444   26447   26450   26453   26456   26459   26462   26465   26468   26471
   26474   26477   26480   26483   26486   26489   26492   26495   26498   26501
   26504   26507   26510   26513   26516   26519   26522   26525   26528   26531
   26534   26537   26540   26543   26546   26549   26552   26555   26558   26561
   26564   26567   26570   26573   26576   26579   26582   26585   26588   26591
   26594   26597   26600   26603   26606   26609   26612   26615   26618   26621
   26624   26627   26630   26633   26636   26639   26642   26645   26648   26651
   26654   26657   26660   26663   26666   26669   26672   26675   26678   26681
   26684   26687   26690   26693   26696   26699   26702   26705   26708   26711
   26714   26717   26720   26723   26726   26729   26732   26735   26738   26741
   26744   26747   26750   26753   26756   26759   26762   26765   26768   26771
   26774   26777   26780   26783   26786   26789   26792   26795   26798   26801
   26804   26807   26810   26813   26816   26819   26822   26825   26828   26831
   26834   26837   26840   26843   26846   26849   26852   26855   26858   26861
   26864   26867   26870   26873   26876   26879   26882   26885   26888   26891
   26894   26897   26900   26903   26906   26909   26912   26915   26918   26921
   26924   26927   26930   26933   26936   26939   26942   26945   26948   26951
   26954   26957   26960   26963   26966   26969   26972   26975   26978   26981
   26984   26987   26990   26993   26996   26999   27002   27005   27008   27011
   27014   27017   27020   27023   27026   27029   27032   27035   27038   27041
   27044   27047   27050   27053   27056   27059   27062   27065   27068   27071
   27074   27077   27080   27083   27086   27089   27092   27095   27098   27101
   27104   27107   27110   27113   27116   27119   27122   27125   27128   27131
   27134   27137   27140   27143   27146   27149   27152   27155   27158   27161
   27164   27167   27170   27173   27176   27179   27182   27185   27188   27191
   27194   27197   27200   27203   27206   27209   27212   27215   27218   27221
   27224   27227   27230   27233   27236   27239   27242   27245   27248   27251
   27254   27257   27260   27263   27266   27269   27272   27275   27278   27281
   27284   27287   27290   27293   27296   27299   27302   27305   27308   27311
   27314   27317   27320   27323   27326   27329   27332   27335   27338   27341
   27344   27347   27350   27353   27356   27359   27362   27365   27368   27371
   27374   27377   27380   27383   27386   27389   27392   27395   27398   27401
   27404   27407   27410   27413   27416   27419   27422   27425   27428   27431
   27434   27437   27440   27443   27446   27449   27452   27455   27458   27461
   27464   27467   27470   27473   27476   27479   27482   27485   27488   27491
   27494   27497   27500   27503   27506   27509   27512   27515   27518   27521
   27524   27527   27530   27533   27536   27539   27542   27545   27548   27551
   27554   27557   27560   27563   27566   27569   27572   27575   27578   27581
   27584   27587   27590   27593   27596   27599   27602   27605   27608   27611
   27614   27617   27620   27623   27626   27629   27632   27635   27638   27641
   27644   27647   27650   27653   27656   27659   27662   27665   27668   27671
   27674   27677   27680   27683   27686   27689   27692   27695   27698   27701
   27704   27707   27710   27713   27716   27719   27722   27725   27728   27731
   27734   27737   27740   27743   27746   27749   27752   27755   27758   27761
   27764   27767   27770   27773   27776   27779   27782   27785   27788   27791
   27794   27797   27800   27803   27806   27809   27812   27815   27818   27821
   27824   27827   27830   27833   27836   27839   27842   27845   27848   27851
   27854   27857   27860   27863   27866   27869   27872   27875   27878   27881
   27884   27887   27890   27893   27896   27899   27902   27905   27908   27911
   27914   27917   27920   27923   27926   27929   27932   27935   27938   27941
   27944   27947   27950   27953   27956   27959   27962   27965   27968   27971
   27974   27977   27980   27983   27986   27989   27992   27995   27998   28001
   28004   28007   28010   28013   28016   28019   28022   28025   28028   28031
   28034   28037   28040   28043   28046   28049   28052   28055   28058   28061
   28064   28067   28070   28073   28076   28079   28082   28085   28088   28091
   28094   28097   28100   28103   28106   28109   28112   28115   28118   28121
   28124   28127   28130   28133   28136   28139   28142   28145   28148   28151
   28154   28157   28160   28163   28166   28169   28172   28175   28178   28181
   28184   28187   28190   28193   28196   28199   28202   28205   28208   28211
   28214   28217   28220   28223   28226   28229   28232   28235   28238   28241
   28244   28247   28250   28253   28256   28259   28262   28265   28268   28271
   28274   28277   28280   28283   28286   28289   28292   28295   28298   28301
   28304   28307   28310   28313   28316   28319   28322   28325   28328   28331
   28334   28337   28340   28343   28346   28349   28352   28355   28358   28361
   28364   28367   28370   28373   28376   28379   28382   28385   28388   28391
   28394   28397   28400   28403   28406   28409   28412   28415   28418   28421
   28424   28427   28430   28433   28436   28439   28442   28445   28448   28451
   28454   28457   28460   28463   28466   28469   28472   28475   28478   28481
   28484   28487   28490   28493   28496   28499   28502   28505   28508   28511
   28514   28517   28520   28523   28526   28529   28532   28535   28538   28541
   28544   28547   28550   28553   28556   28559   28562   28565   28568   28571
   28574   28577   28580   28583   28586   28589   28592   28595   28598   28601
   28604   28607   28610   28613   28616   28619   28622   28625   28628   28631
   28634   28637   28640   28643   28646   28649   28652   28655   28658   28661
   28664   28667   28670   28673   28676   28679   28682   28685   28688   28691
   28694   28697   28700   28703   28706   28709   28712   28715   28718   28721
   28724   28727   28730   28733   28736   28739   28742   28745   28748   28751
   28754   28757   28760   28763   28766   28769   28772   28775   28778   28781
   28784   28787   28790   28793   28796   28799   28802   28805   28808   28811
   28814   28817   28820   28823   28826   28829   28832   28835   28838   28841
   28844   28847   28850   28853   28856   28859   28862   28865   28868   28871
   28874   28877   28880   28883   28886   28889   28892   28895   28898   28901
   28904   28907   28910   28913   28916   28919   28922   28925   28928   28931
   28934   28937   28940   28943   28946   28949   28952   28955   28958   28961
   28964   28967   28970   28973   28976   28979   28982   28985   28988   28991
   28994   28997   29000   29003   29006   29009   29012   29015   29018   29021
   29024   29027   29030   29033   29036   29039   29042   29045   29048   29051
   29054   29057   29060   29063   29066   29069   29072   29075   29078   29081
   29084   29087   29090   29093   29096   29099   29102   29105   29108   29111
   29114   29117   29120   29123   29126   29129   29132   29135   29138   29141
   29144   29147   29150   29153   29156   29159   29162   29165   29168   29171
   29174   29177   29180   29183   29186   29189   29192   29195   29198   29201
   29204   29207   29210   29213   29216   29219   29222   29225   29228   29231
   29234   29237   29240   29243   29246   29249   29252   29255   29258   29261
   29264   29267   29270   29273   29276   29279   29282   29285   29288   29291
   29294   29297   29300   29303   29306   29309   29312   29315   29318   29321
   29324   29327   29330   29333   29336   29339   29342   29345   29348   29351
   29354   29357   29360   29363   29366   29369   29372   29375   29378   29381
   29384   29387   29390   29393   29396   29399   29402   29405   29408   29411
   29414   29417   29420   29423   29426   29429   29432   29435   29438   29441
   29444   29447   29450   29453   29456   29459   29462   29465   29468   29471
   29474   29477   29480   29483   29486   29489   29492   29495   29498   29501
   29504   29507   29510   29513   29516   29519   29522   29525   29528   29531
   29534   29537   29540   29543   29546   29549   29552   29555   29558   29561
   29564   29567   29570   29573   29576   29579   29582   29585   29588   29591
   29594   29597   29600   29603   29606   29609   29612   29615   29618   29621
   29624   29627   29630   29633   29636   29639   29642   29645   29648   29651
   29654   29657   29660   29663   29666   29669   29672   29675   29678   29681
   29684   29687   29690   29693   29696   29699   29702   29705   29708   29711
   29714   29717   29720   29723   29726   29729   29732   29735   29738   29741
   29744   29747   29750   29753   29756   29759   29762   29765   29768   29771
   29774   29777   29780   29783   29786   29789   29792   29795   29798   29801
   29804   29807   29810   29813   29816   29819   29822   29825   29828   29831
   29834   29837   29840   29843   29846   29849   29852   29855   29858   29861
   29864   29867   29870   29873   29876   29879   29882   29885   29888   29891
   29894   29897   29900   29903   29906   29909   29912   29915   29918   29921
   29924   29927   29930   29933   29936   29939   29942   29945   29948   29951
   29954   29957   29960   29963   29966   29969   29972   29975   29978   29981
   29984   29987   29990   29993   29996   29999   30002   30005   30008   30011
   30014   30017   30020   30023   30026   30029   30032   30035   30038   30041
   30044   30047   30050   30053   30056   30059   30062   30065   30068   30071
   30074   30077   30080   30083   30086   30089   30092   30095   30098   30101
   30104   30107   30110   30113   30116   30119   30122   30125   30128   30131
   30134   30137   30140   30143   30146   30149   30152   30155   30158   30161
   30164   30167   30170   30173   30176   30179   30182   30185   30188   30191
   30194   30197   30200   30203   30206   30209   30212   30215   30218   30221
   30224   30227   30230   30233   30236   30239   30242   30245   30248   30251
   30254   30257   30260   30263   30266   30269   30272   30275   30278   30281
   30284   30287   30290   30293   30296   30299   30302   30305   30308   30311
   30314   30317   30320   30323   30326   30329   30332   30335   30338   30341
   30344   30347   30350   30353   30356   30359   30362   30365   30368   30371
   30374   30377   30380   30383   30386   30389   30392   30395   30398   30401
   30404   30407   30410   30413   30416   30419   30422   30425   30428   30431
   30434   30437   30440   30443   30446   30449   30452   30455   30458   30461
   30464   30467   30470   30473   30476   30479   30482   30485   30488   30491
   30494   30497   30500   30503   30506   30509   30512   30515   30518   30521
   30524   30527   30530   30533   30536   30539   30542   30545   30548   30551
   30554   30557   30560   30563   30566   30569   30572   30575   30578   30581
   30584   30587   30590   30593   30596   30599   30602   30605   30608   30611
   30614   30617   30620   30623   30626   30629   30632   30635   30638   30641
   30644   30647   30650   30653   30656   30659   30662   30665   30668   30671
   30674   30677   30680   30683   30686   30689   30692   30695   30698   30701
   30704   30707   30710   30713   30716   30719   30722   30725   30728   30731
   30734   30737   30740   30743   30746   30749   30752   30755   30758   30761
   30764   30767   30770   30773   30776   30779   30782   30785   30788   30791
   30794   30797   30800   30803   30806   30809   30812   30815   30818   30821
   30824   30827   30830   30833   30836   30839   30842   30845   30848   30851
   30854   30857   30860   30863   30866   30869   30872   30875   30878   30881
   30884   30887   30890   30893   30896   30899   30902   30905   30908   30911
   30914   30917   30920   30923   30926   30929   30932   30935   30938   30941
   30944   30947   30950   30953   30956   30959   30962   30965   30968   30971
   30974   30977   30980   30983   30986   30989   30992   30995   30998   31001
   31004   31007   31010   31013   31016   31019   31022   31025   31028   31031
   31034   31037   31040   31043   31046   31049   31052   31055   31058   31061
   31064   31067   31070   31073   31076   31079   31082   31085   31088   31091
   31094   31097   31100   31103   31106   31109   31112   31115   31118   31121
   31124   31127   31130   31133   31136   31139   31142   31145   31148   31151
   31154   31157   31160   31163   31166   31169   31172   31175   31178   31181
   31184   31187   31190   31193   31196   31199   31202   31205   31208   31211
   31214   31217   31220   31223   31226   31229   31232   31235   31238   31241
   31244   31247   31250   31253   31256   31259   31262   31265   31268   31271
   31274   31277   31280   31283   31286   31289   31292   31295   31298   31301
   31304   31307   31310   31313   31316   31319   31322   31325   31328   31331
   31334   31337   31340   31343   31346   31349   31352   31355   31358   31361
   31364   31367   31370   31373   31376   31379   31382   31385   31388   31391
   31394   31397   31400   31403   31406   31409   31412   31415   31418   31421
   31424   31427   31430   31433   31436   31439   31442   31445   31448   31451
   31454   31457   31460   31463   31466   31469   31472   31475   31478   31481
   31484   31487   31490   31493   31496   31499   31502   31505   31508   31511
   31514   31517   31520   31523   31526   31529   31532   31535   31538   31541
   31544   31547   31550   31553   31556   31559   31562   31565   31568   31571
   31574   31577   31580   31583   31586   31589   31592   31595   31598   31601
   31604   31607   31610   31613   31616   31619   31622   31625   31628   31631
   31634   31637   31640   31643   31646   31649   31652   31655   31658   31661
   31664   31667   31670   31673   31676   31679   31682   31685   31688   31691
   31694   31697   31700   31703   31706   31709   31712   31715   31718   31721
   31724   31727   31730   31733   31736   31739   31742   31745   31748   31751
   31754   31757   31760   31763   31766   31769   31772   31775   31778   31781
   31784   31787   31790   31793   31796   31799   31802   31805   31808   31811
   31814   31817   31820   31823   31826   31829   31832   31835   31838   31841
   31844   31847   31850   31853   31856   31859   31862   31865   31868   31871
   31874   31877   31880   31883   31886   31889   31892   31895   31898   31901
   31904   31907   31910   31913   31916   31919   31922   31925   31928   31931
   31934   31937   31940   31943   31946   31949   31952   31955   31958   31961
   31964   31967   31970   31973   31976   31979   31982   31985   31988   31991
   31994   31997   32000   32003   32006   32009   32012   32015   32018   32021
   32024   32027   32030   32033   32036   32039   32042   32045   32048   32051
   32054   32057   32060   32063   32066   32069   32072   32075   32078   32081
   32084   32087   32090   32093   32096   32099   32102   32105   32108   32111
   32114   32117   32120   32123   32126   32129   32132   32135   32138   32141
   32144   32147   32150   32153   32156   32159   32162   32165   32168   32171
   32174   32177   32180   32183   32186   32189   32192   32195   32198   32201
   32204   32207   32210   32213   32216   32219   32222   32225   32228   32231
   32234   32237   32240   32243   32246   32249   32252   32255   32258   32261
   32264   32267   32270   32273   32276   32279   32282   32285   32288   32291
   32294   32297   32300   32303   32306   32309   32312   32315   32318   32321
   32324   32327   32330   32333   32336   32339   32342   32345   32348   32351
   32354   32357   32360   32363   32366   32369   32372   32375   32378   32381
   32384   32387   32390   32393   32396   32399   32402   32405   32408   32411
   32414   32417   32420   32423   32426   32429   32432   32435   32438   32441
   32444   32447   32450   32453   32456   32459   32462   32465   32468   32471
   32474   32477   32480   32483   32486   32489   32492   32495   32498   32501
   32504   32507   32510   32513   32516   32519   32522   32525   32528   32531
   32534   32537   32540   32543   32546   32549   32552   32555   32558   32561
   32564   32567   32570   32573   32576   32579   32582   32585   32588   32591
   32594   32597   32600   32603   32606   32609   32612   32615   32618   32621
   32624   32627
%FLAG BOND_FORCE_CONSTANT                                                       
%FORMAT(5E16.8)                                                                 
  3.54250000E+02  3.60690000E+02  3.57290000E+02  4.36000000E+02  5.90600000E+02
  5.35510000E+02  3.16700000E+02  3.30600000E+02  3.31700000E+02  3.00900000E+02
  3.08600000E+02  3.44220000E+02  2.85150000E+02  3.00900000E+02  2.82270000E+02
  3.45250000E+02  2.28890000E+02  3.17460000E+02  2.54460000E+02  3.30600000E+02
  3.26800000E+02  3.00900000E+02  3.13000000E+02  5.53000000E+02  5.53000000E+02
%FLAG BOND_EQUIL_VALUE                                                          
%FORMAT(5E16.8)                                                                 
  1.39860000E+00  1.08600000E+00  1.08820000E+00  1.33790000E+00  1.21900000E+00
  9.72500000E-01  1.42300000E+00  1.09700000E+00  1.09600000E+00  1.53800000E+00
  1.43200000E+00  1.09690000E+00  1.42420000E+00  1.53800000E+00  1.42730000E+00
  1.09620000E+00  1.53540000E+00  1.39670000E+00  1.46430000E+00  1.09700000E+00
  1.51000000E+00  1.53800000E+00  1.52400000E+00  9.57200000E-01  1.51360000E+00
%FLAG ANGLE_FORCE_CONSTANT                                                      
%FORMAT(5E16.8)                                                                 
  6.36700000E+01  4.49000000E+01  4.63700000E+01  3.46600000E+01  6.41000000E+01
  3.56400000E+01  3.58000000E+01  3.94000000E+01  5.09000000E+01  4.74000000E+01
  4.62000000E+01  4.64000000E+01  5.11000000E+01  6.75000000E+01  7.26000000E+01
  5.09000000E+01  6.80000000E+01  5.08000000E+01  5.62900000E+01  6.80000000E+01
  4.64000000E+01  6.51300000E+01  6.27000000E+01  4.64000000E+01  6.75000000E+01
  6.29000000E+01  6.29000000E+01  5.62000000E+01  6.27000000E+01  4.32700000E+01
  4.32800000E+01  7.74400000E+01  5.98700000E+01  7.72400000E+01  8.66800000E+01
  6.49500000E+01  4.80900000E+01  4.69000000E+01  4.70000000E+01  4.63000000E+01
  4.59000000E+01  6.34000000E+01  6.29000000E+01  6.33000000E+01  6.74000000E+01
  6.68000000E+01  7.71500000E+01
%FLAG ANGLE_EQUIL_VALUE                                                         
%FORMAT(5E16.8)                                                                 
  2.09474507E+00  2.09230160E+00  2.10120279E+00  2.03610198E+00  2.15775148E+00
  1.89455572E+00  1.88024401E+00  1.87762601E+00  1.92440086E+00  1.87204096E+00
  1.92370273E+00  1.91218355E+00  1.90991462E+00  1.92317913E+00  1.90904195E+00
  1.91253261E+00  1.88443280E+00  1.91602327E+00  1.92649525E+00  1.88443280E+00
  1.91218355E+00  1.87430989E+00  1.96314718E+00  1.91218355E+00  1.92317913E+00
  1.94621748E+00  1.94621748E+00  1.92579712E+00  1.96314718E+00  1.91427794E+00
  1.91270715E+00  1.87832415E+00  1.96576518E+00  2.07397564E+00  2.13925098E+00
  1.96838317E+00  1.89822091E+00  1.89839544E+00  1.92614619E+00  1.91637234E+00
  2.01899774E+00  1.94709015E+00  1.94621748E+00  1.93801443E+00  2.15024656E+00
  2.01027109E+00  2.18532769E+00
%FLAG DIHEDRAL_FORCE_CONSTANT                                                   
%FORMAT(5E16.8)                                                                 
  3.62500000E+00  6.65000000E+00  0.00000000E+00  1.15000000E+00  3.80000000E-01
  1.66666667E-01  1.55555556E-01  1.23000000E-01  1.20000000E-01  1.50000000E-01
  0.00000000E+00  2.50000000E-01  0.00000000E+00  1.60000000E-01  1.17500000E+00
  1.44000000E-01  3.83333333E-01  1.00000000E-01  3.83000000E-01  2.00000000E-01
  2.50000000E-01  1.80000000E-01  1.30000000E-01  2.26000000E+00  3.00000000E-02
  6.50000000E-01  5.20000000E-01  2.50000000E+00  1.00000000E-01  8.00000000E-01
  8.00000000E-02  7.00000000E-02  1.00000000E-01  1.50000000E+00  1.10000000E+00
  1.05000000E+01
%FLAG DIHEDRAL_PERIODICITY                                                      
%FORMAT(5E16.8)                                                                 
  2.00000000E+00  2.00000000E+00  2.00000000E+00  1.00000000E+00  3.00000000E+00
  3.00000000E+00  3.00000000E+00  3.00000000E+00  3.00000000E+00  3.00000000E+00
  2.00000000E+00  1.00000000E+00  3.00000000E+00  3.00000000E+00  2.00000000E+00
  3.00000000E+00  3.00000000E+00  2.00000000E+00  3.00000000E+00  1.00000000E+00
  2.00000000E+00  3.00000000E+00  3.00000000E+00  1.00000000E+00  3.00000000E+00
  4.00000000E+00  3.00000000E+00  2.00000000E+00  3.00000000E+00  1.00000000E+00
  3.00000000E+00  2.00000000E+00  4.00000000E+00  1.00000000E+00  2.00000000E+00
  2.00000000E+00
%FLAG DIHEDRAL_PHASE                                                            
%FORMAT(5E16.8)                                                                 
  3.14159400E+00  3.14159400E+00  0.00000000E+00  0.00000000E+00  3.14159400E+00
  0.00000000E+00  0.00000000E+00  0.00000000E+00  0.00000000E+00  0.00000000E+00
  3.14159400E+00  0.00000000E+00  0.00000000E+00  0.00000000E+00  0.00000000E+00
  0.00000000E+00  0.00000000E+00  3.14159400E+00  0.00000000E+00  3.14159400E+00
  3.14159400E+00  0.00000000E+00  0.00000000E+00  0.00000000E+00  3.14159400E+00
  3.14159400E+00  0.00000000E+00  3.14159400E+00  0.00000000E+00  0.00000000E+00
  3.14159400E+00  0.00000000E+00  0.00000000E+00  3.14159400E+00  3.14159400E+00
  3.14159400E+00
%FLAG SCEE_SCALE_FACTOR                                                         
%FORMAT(5E16.8)                                                                 
  1.20000000E+00  1.20000000E+00  1.20000000E+00  1.20000000E+00  1.20000000E+00
  1.20000000E+00  1.20000000E+00  1.20000000E+00  1.20000000E+00  1.20000000E+00
  1.20000000E+00  1.20000000E+00  1.20000000E+00  1.20000000E+00  1.20000000E+00
  1.20000000E+00  1.20000000E+00  1.20000000E+00  1.20000000E+00  1.20000000E+00
  1.20000000E+00  1.20000000E+00  1.20000000E+00  1.20000000E+00  1.20000000E+00
  1.20000000E+00  1.20000000E+00  1.20000000E+00  1.20000000E+00  1.20000000E+00
  1.20000000E+00  1.20000000E+00  1.20000000E+00  1.20000000E+00  0.00000000E+00
  0.00000000E+00
%FLAG SCNB_SCALE_FACTOR                                                         
%FORMAT(5E16.8)                                                                 
  2.00000000E+00  2.00000000E+00  2.00000000E+00  2.00000000E+00  2.00000000E+00
  2.00000000E+00  2.00000000E+00  2.00000000E+00  2.00000000E+00  2.00000000E+00
  2.00000000E+00  2.00000000E+00  2.00000000E+00  2.00000000E+00  2.00000000E+00
  2.00000000E+00  2.00000000E+00  2.00000000E+00  2.00000000E+00  2.00000000E+00
  2.00000000E+00  2.00000000E+00  2.00000000E+00  2.00000000E+00  2.00000000E+00
  2.00000000E+00  2.00000000E+00  2.00000000E+00  2.00000000E+00  2.00000000E+00
  2.00000000E+00  2.00000000E+00  2.00000000E+00  2.00000000E+00  0.00000000E+00
  0.00000000E+00
%FLAG SOLTY                                                                     
%FORMAT(5E16.8)                                                                 
  0.00000000E+00  0.00000000E+00  0.00000000E+00  0.00000000E+00  0.00000000E+00
  0.00000000E+00  0.00000000E+00  0.00000000E+00  0.00000000E+00  0.00000000E+00
  0.00000000E+00  0.00000000E+00  0.00000000E+00  0.00000000E+00  0.00000000E+00
  0.00000000E+00  0.00000000E+00
%FLAG LENNARD_JONES_ACOEF                                                       
%FORMAT(5E16.8)                                                                 
  6.96551276E+05  7.52549148E+04  6.90855956E+03  5.17507491E+05  5.27277400E+04
  3.76435470E+05  8.53193737E+05  9.38067954E+04  6.37913494E+05  1.04308023E+06
  8.12662403E+04  7.41026906E+03  5.68021765E+04  1.01372942E+05  7.94617769E+03
  7.01106848E+05  7.35931098E+04  5.15491878E+05  8.61458248E+05  7.93773615E+04
  7.02078680E+05  8.43969952E+05  9.27554496E+04  6.30925504E+05  1.03184851E+06
  1.00235148E+05  8.52084164E+05  1.02073671E+06  4.46121722E+05  4.65732396E+04
  3.27367585E+05  5.48478208E+05  5.02224902E+04  4.46307018E+05  5.42502534E+05
  2.83662575E+05  5.92438683E+05  6.30298721E+04  4.37717034E+05  7.26877088E+05
  6.80216136E+04  5.94682930E+05  7.18991463E+05  3.78207390E+05  5.03152404E+05
  5.63013422E+04  4.88692384E+03  3.86646725E+04  7.06006146E+04  5.22955465E+03
  5.45183252E+04  6.97998263E+04  3.44374471E+04  4.69084694E+04  3.39005767E+03
  2.25372434E+02  8.53132435E+00  1.15813907E+02  3.07630260E+02  8.80612241E+00
  1.89434762E+02  3.03553352E+02  1.16469347E+02  1.74176419E+02  4.36660257E+00
  1.10360882E-05  3.85565555E+04  3.17496391E+03  2.59855087E+04  4.86195279E+04
  3.39005767E+03  3.69926172E+04  4.80619274E+04  2.33261683E+04  3.19666529E+04
  2.16218723E+03  2.07292270E+00  1.35510742E+03  6.39146293E+05  6.66452723E+04
  4.68810254E+05  7.85890042E+05  7.18637611E+04  6.39277296E+05  7.77325489E+05
  4.06293937E+05  5.41786538E+05  4.92592636E+04  1.65622133E+02  3.33530397E+04
  5.81935564E+05  0.00000000E+00  0.00000000E+00  0.00000000E+00  0.00000000E+00
  0.00000000E+00  0.00000000E+00  0.00000000E+00  0.00000000E+00  0.00000000E+00
  0.00000000E+00  0.00000000E+00  0.00000000E+00  0.00000000E+00  0.00000000E+00
%FLAG LENNARD_JONES_BCOEF                                                       
%FORMAT(5E16.8)                                                                 
  5.24668528E+02  1.09570372E+02  2.10929191E+01  4.98871431E+02  1.01173582E+02
  4.69350655E+02  5.95658566E+02  1.25489661E+02  5.68167388E+02  6.75612247E+02
  1.21392023E+02  2.32899892E+01  1.11953944E+02  1.39078880E+02  2.57122925E+01
  5.97113873E+02  1.22913863E+02  5.64804067E+02  6.78964813E+02  1.36094315E+02
  6.77820248E+02  5.90251928E+02  1.24325688E+02  5.62969425E+02  6.69494459E+02
  1.37787728E+02  6.72777963E+02  6.63431737E+02  3.88758656E+02  7.98066064E+01
  3.67361018E+02  4.42179058E+02  8.83545880E+01  4.41089616E+02  4.38146883E+02
  2.87011518E+02  4.76608379E+02  9.87712192E+01  4.51916854E+02  5.41546250E+02
  1.09393126E+02  5.41675626E+02  5.36620538E+02  3.52573684E+02  4.32634597E+02
  1.01040256E+02  1.89134207E+01  9.23664132E+01  1.16065835E+02  2.08590256E+01
  1.12788003E+02  1.14981426E+02  7.31636661E+01  9.08431526E+01  1.67944276E+01
  4.40751799E+00  5.44840215E-01  3.48534600E+00  5.28230309E+00  5.90150328E-01
  4.58384710E+00  5.22789272E+00  2.93355636E+00  3.81654050E+00  4.15568027E-01
  4.55498033E-04  8.36149973E+01  1.52447987E+01  7.57220777E+01  9.63175726E+01
  1.67944276E+01  9.29071597E+01  9.54115851E+01  6.02145835E+01  7.49920368E+01
  1.34124560E+01  2.86326700E-01  1.06181419E+01  5.59732167E+02  1.14837052E+02
  5.28811054E+02  6.36687196E+02  1.27133996E+02  6.35011160E+02  6.30880403E+02
  4.13185639E+02  5.07604817E+02  1.05256926E+02  4.20798850E+00  8.66112759E+01
  5.94825035E+02  0.00000000E+00  0.00000000E+00  0.00000000E+00  0.00000000E+00
  0.00000000E+00  0.00000000E+00  0.00000000E+00  0.00000000E+00  0.00000000E+00
  0.00000000E+00  0.00000000E+00  0.00000000E+00  0.00000000E+00  0.00000000E+00
%FLAG BONDS_INC_HYDROGEN                                                        
%FORMAT(10I8)                                                                   
      39      75       2      33      72       2      30      69       2      24
      66       2      21      63       2      18      60       2      12      57
       2       9      54       2       3      51       2       0      48       2
      78      81       3      78      84       3     168     249       6     165
     246       8     162     243       6     159     240       9     153     237
       6     150     231      12     150     234      12     147     228       8
     144     225       6     141     222       8     138     219       8     132
     213      12     132     216      12     129     210      16     129     207
      16     126     204      16     126     201      16     123     195      12
     123     198      12     114     192       3     111     189      20     108
     186      20     108     183      20     105     180       3     102     177
      20      99     117      20      93      96      20     333     414       6
     330     411       8     327     408       6     324     405       9     318
     402       6     315     396      12     315     399      12     312     393
       8     309     390       6     306     387       8     303     384       8
     297     378      12     297     381      12     294     375      16     294
     372      16     291     369      16     291     366      16     288     360
      12     288     363      12     279     357       3     276     354      20
     273     351      20     273     348      20     270     345       3     267
     342      20     264     282      20     258     261      20     498     579
       6     495     576       8     492     573       6     489     570       9
     483     567       6     480     561      12     480     564      12     477
     558       8     474     555       6     471     552       8     468     549
       8     462     543      12     462     546      12     459     540      16
     459     537      16     456     534      16     456     531      16     453
     525      12     453     528      12     444     522       3     441     519
      20     438     516      20     438     513      20     435     510       3
     432     507      20     429     447      20     423     426      20     663
     744       6     660     741       8     657     738       6     654     735
       9     648     732       6     645     726      12     645     729      12
     642     723       8     639     720       6     636     717       8     633
     714       8     627     708      12     627     711      12     624     705
      16     624     702      16     621     699      16     621     696      16
     618     690      12     618     693      12     609     687       3     606
     684      20     603     681      20     603     678      20     600     675
       3     597     672      20     594     612      20     588     591      20
     828     909       6     825     906       8     822     903       6     819
     900       9     813     897       6     810     891      12     810     894
      12     807     888       8     804     885       6     801     882       8
     798     879       8     792     873      12     792     876      12     789
     870      16     789     867      16     786     864      16     786     861
      16     783     855      12     783     858      12     774     852       3
     771     849      20     768     846      20     768     843      20     765
     840       3     762     837      20     759     777      20     753     756
      20     993    1074       6     990    1071       8     987    1068       6
     984    1065       9     978    1062       6     975    1056      12     975
    1059      12     972    1053       8     969    1050       6     966    1047
       8     963    1044       8     957    1038      12     957    1041      12
     954    1035      16     954    1032      16     951    1029      16     951
    1026      16     948    1020      12     948    1023      12     939    1017
       3     936    1014      20     933    1011      20     933    1008      20
     930    1005       3     927    1002      20     924     942      20     918
     921      20    1158    1239       6    1155    1236       8    1152    1233
       6    1149    1230       9    1143    1227       6    1140    1221      12
    1140    1224      12    1137    1218       8    1134    1215       6    1131
    1212       8    1128    1209       8    1122    1203      12    1122    1206
      12    1119    1200      16    1119    1197      16    1116    1194      16
    1116    1191      16    1113    1185      12    1113    1188      12    1104
    1182       3    1101    1179      20    1098    1176      20    1098    1173
      20    1095    1170       3    1092    1167      20    1089    1107      20
    1083    1086      20    1323    1404       6    1320    1401       8    1317
    1398       6    1314    1395       9    1308    1392       6    1305    1386
      12    1305    1389      12    1302    1383       8    1299    1380       6
    1296    1377       8    1293    1374       8    1287    1368      12    1287
    1371      12    1284    1365      16    1284    1362      16    1281    1359
      16    1281    1356      16    1278    1350      12    1278    1353      12
    1269    1347       3    1266    1344      20    1263    1341      20    1263
    1338      20    1260    1335       3    1257    1332      20    1254    1272
      20    1248    1251      20    1488    1569       6    1485    1566       8
    1482    1563       6    1479    1560       9    1473    1557       6    1470
    1551      12    1470    1554      12    1467    1548       8    1464    1545
       6    1461    1542       8    1458    1539       8    1452    1533      12
    1452    1536      12    1449    1530      16    1449    1527      16    1446
    1524      16    1446    1521      16    1443    1515      12    1443    1518
      12    1434    1512       3    1431    1509      20    1428    1506      20
    1428    1503      20    1425    1500       3    1422    1497      20    1419
    1437      20    1413    1416      20    1653    1734       6    1650    1731
       8    1647    1728       6    1644    1725       9    1638    1722       6
    1635    1716      12    1635    1719      12    1632    1713       8    1629
    1710       6    1626    1707       8    1623    1704       8    1617    1698
      12    1617    1701      12    1614    1695      16    1614    1692      16
    1611    1689      16    1611    1686      16    1608    1680      12    1608
    1683      12    1599    1677       3    1596    1674      20    1593    1671
      20    1593    1668      20    1590    1665       3    1587    1662      20
    1584    1602      20    1578    1581      20    1737    1740       3    1737
    1743       3    1746    1749       3    1746    1752       3    1836    1917
       6    1833    1914       8    1830    1911       6    1827    1908       9
    1821    1905       6    1818    1899      12    1818    1902      12    1815
    1896       8    1812    1893       6    1809    1890       8    1806    1887
       8    1800    1881      12    1800    1884      12    1797    1878      16
    1797    1875      16    1794    1872      16    1794    1869      16    1791
    1863      12    1791    1866      12    1782    1860       3    1779    1857
      20    1776    1854      20    1776    1851      20    1773    1848       3
    1770    1845      20    1767    1785      20    1761    1764      20    2001
    2082       6    1998    2079       8    1995    2076       6    1992    2073
       9    1986    2070       6    1983    2064      12    1983    2067      12
    1980    2061       8    1977    2058       6    1974    2055       8    1971
    2052       8    1965    2046      12    1965    2049      12    1962    2043
      16    1962    2040      16    1959    2037      16    1959    2034      16
    1956    2028      12    1956    2031      12    1947    2025       3    1944
    2022      20    1941    2019      20    1941    2016      20    1938    2013
       3    1935    2010      20    1932    1950      20    1926    1929      20
    2166    2247       6    2163    2244       8    2160    2241       6    2157
    2238       9    2151    2235       6    2148    2229      12    2148    2232
      12    2145    2226       8    2142    2223       6    2139    2220       8
    2136    2217       8    2130    2211      12    2130    2214      12    2127
    2208      16    2127    2205      16    2124    2202      16    2124    2199
      16    2121    2193      12    2121    2196      12    2112    2190       3
    2109    2187      20    2106    2184      20    2106    2181      20    2103
    2178       3    2100    2175      20    2097    2115      20    2091    2094
      20    2331    2412       6    2328    2409       8    2325    2406       6
    2322    2403       9    2316    2400       6    2313    2394      12    2313
    2397      12    2310    2391       8    2307    2388       6    2304    2385
       8    2301    2382       8    2295    2376      12    2295    2379      12
    2292    2373      16    2292    2370      16    2289    2367      16    2289
    2364      16    2286    2358      12    2286    2361      12    2277    2355
       3    2274    2352      20    2271    2349      20    2271    2346      20
    2268    2343       3    2265    2340      20    2262    2280      20    2256
    2259      20    2496    2577       6    2493    2574       8    2490    2571
       6    2487    2568       9    2481    2565       6    2478    2559      12
    2478    2562      12    2475    2556       8    2472    2553       6    2469
    2550       8    2466    2547       8    2460    2541      12    2460    2544
      12    2457    2538      16    2457    2535      16    2454    2532      16
    2454    2529      16    2451    2523      12    2451    2526      12    2442
    2520       3    2439    2517      20    2436    2514      20    2436    2511
      20    2433    2508       3    2430    2505      20    2427    2445      20
    2421    2424      20    2661    2742       6    2658    2739       8    2655
    2736       6    2652    2733       9    2646    2730       6    2643    2724
      12    2643    2727      12    2640    2721       8    2637    2718       6
    2634    2715       8    2631    2712       8    2625    2706      12    2625
    2709      12    2622    2703      16    2622    2700      16    2619    2697
      16    2619    2694      16    2616    2688      12    2616    2691      12
    2607    2685       3    2604    2682      20    2601    2679      20    2601
    2676      20    2598    2673       3    2595    2670      20    2592    2610
      20    2586    2589      20    2826    2907       6    2823    2904       8
    2820    2901       6    2817    2898       9    2811    2895       6    2808
    2889      12    2808    2892      12    2805    2886       8    2802    2883
       6    2799    2880       8    2796    2877       8    2790    2871      12
    2790    2874      12    2787    2868      16    2787    2865      16    2784
    2862      16    2784    2859      16    2781    2853      12    2781    2856
      12    2772    2850       3    2769    2847      20    2766    2844      20
    2766    2841      20    2763    2838       3    2760    2835      20    2757
    2775      20    2751    2754      20    2991    3072       6    2988    3069
       8    2985    3066       6    2982    3063       9    2976    3060       6
    2973    3054      12    2973    3057      12    2970    3051       8    2967
    3048       6    2964    3045       8    2961    3042       8    2955    3036
      12    2955    3039      12    2952    3033      16    2952    3030      16
    2949    3027      16    2949    3024      16    2946    3018      12    2946
    3021      12    2937    3015       3    2934    3012      20    2931    3009
      20    2931    3006      20    2928    3003       3    2925    3000      20
    2922    2940      20    2916    2919      20    3156    3237       6    3153
    3234       8    3150    3231       6    3147    3228       9    3141    3225
       6    3138    3219      12    3138    3222      12    3135    3216       8
    3132    3213       6    3129    3210       8    3126    3207       8    3120
    3201      12    3120    3204      12    3117    3198      16    3117    3195
      16    3114    3192      16    3114    3189      16    3111    3183      12
    3111    3186      12    3102    3180       3    3099    3177      20    3096
    3174      20    3096    3171      20    3093    3168       3    3090    3165
      20    3087    3105      20    3081    3084      20    3321    3402       6
    3318    3399       8    3315    3396       6    3312    3393       9    3306
    3390       6    3303    3384      12    3303    3387      12    3300    3381
       8    3297    3378       6    3294    3375       8    3291    3372       8
    3285    3366      12    3285    3369      12    3282    3363      16    3282
    3360      16    3279    3357      16    3279    3354      16    3276    3348
      12    3276    3351      12    3267    3345       3    3264    3342      20
    3261    3339      20    3261    3336      20    3258    3333       3    3255
    3330      20    3252    3270      20    3246    3249      20    3405    3408
       3    3405    3411       3    3417    3414      24    3420    3414      24
    3420    3417      25    3426    3423      24    3429    3423      24    3429
    3426      25    3435    3432      24    3438    3432      24    3438    3435
      25    3444    3441      24    3447    3441      24    3447    3444      25
    3453    3450      24    3456    3450      24    3456    3453      25    3462
    3459      24    3465    3459      24    3465    3462      25    3471    3468
      24    3474    3468      24    3474    3471      25    3480    3477      24
    3483    3477      24    3483    3480      25    3489    3486      24    3492
    3486      24    3492    3489      25    3498    3495      24    3501    3495
      24    3501    3498      25    3507    3504      24    3510    3504      24
    3510    3507      25    3516    3513      24    3519    3513      24    3519
    3516      25    3525    3522      24    3528    3522      24    3528    3525
      25    3534    3531      24    3537    3531      24    3537    3534      25
    3543    3540      24    3546    3540      24    3546    3543      25    3552
    3549      24    3555    3549      24    3555    3552      25    3561    3558
      24    3564    3558      24    3564    3561      25    3570    3567      24
    3573    3567      24    3573    3570      25    3579    3576      24    3582
    3576      24    3582    3579      25    3588    3585      24    3591    3585
      24    3591    3588      25    3597    3594      24    3600    3594      24
    3600    3597      25    3606    3603      24    3609    3603      24    3609
    3606      25    3615    3612      24    3618    3612      24    3618    3615
      25    3624    3621      24    3627    3621      24    3627    3624      25
    3633    3630      24    3636    3630      24    3636    3633      25    3642
    3639      24    3645    3639      24    3645    3642      25    3651    3648
      24    3654    3648      24    3654    3651      25    3660    3657      24
    3663    3657      24    3663    3660      25    3669    3666      24    3672
    3666      24    3672    3669      25    3678    3675      24    3681    3675
      24    3681    3678      25    3687    3684      24    3690    3684      24
    3690    3687      25    3696    3693      24    3699    3693      24    3699
    3696      25    3705    3702      24    3708    3702      24    3708    3705
      25    3714    3711      24    3717    3711      24    3717    3714      25
    3723    3720      24    3726    3720      24    3726    3723      25    3732
    3729      24    3735    3729      24    3735    3732      25    3741    3738
      24    3744    3738      24    3744    3741      25    3750    3747      24
    3753    3747      24    3753    3750      25    3759    3756      24    3762
    3756      24    3762    3759      25    3768    3765      24    3771    3765
      24    3771    3768      25    3777    3774      24    3780    3774      24
    3780    3777      25    3786    3783      24    3789    3783      24    3789
    3786      25    3795    3792      24    3798    3792      24    3798    3795
      25    3804    3801      24    3807    3801      24    3807    3804      25
    3813    3810      24    3816    3810      24    3816    3813      25    3822
    3819      24    3825    3819      24    3825    3822      25    3831    3828
      24    3834    3828      24    3834    3831      25    3840    3837      24
    3843    3837      24    3843    3840      25    3849    3846      24    3852
    3846      24    3852    3849      25    3858    3855      24    3861    3855
      24    3861    3858      25    3867    3864      24    3870    3864      24
    3870    3867      25    3876    3873      24    3879    3873      24    3879
    3876      25    3885    3882      24    3888    3882      24    3888    3885
      25    3894    3891      24    3897    3891      24    3897    3894      25
    3903    3900      24    3906    3900      24    3906    3903      25    3912
    3909      24    3915    3909      24    3915    3912      25    3921    3918
      24    3924    3918      24    3924    3921      25    3930    3927      24
    3933    3927      24    3933    3930      25    3939    3936      24    3942
    3936      24    3942    3939      25    3948    3945      24    3951    3945
      24    3951    3948      25    3957    3954      24    3960    3954      24
    3960    3957      25    3966    3963      24    3969    3963      24    3969
    3966      25    3975    3972      24    3978    3972      24    3978    3975
      25    3984    3981      24    3987    3981      24    3987    3984      25
    3993    3990      24    3996    3990      24    3996    3993      25    4002
    3999      24    4005    3999      24    4005    4002      25    4011    4008
      24    4014    4008      24    4014    4011      25    4020    4017      24
    4023    4017      24    4023    4020      25    4029    4026      24    4032
    4026      24    4032    4029      25    4038    4035      24    4041    4035
      24    4041    4038      25    4047    4044      24    4050    4044      24
    4050    4047      25    4056    4053      24    4059    4053      24    4059
    4056      25    4065    4062      24    4068    4062      24    4068    4065
      25    4074    4071      24    4077    4071      24    4077    4074      25
    4083    4080      24    4086    4080      24    4086    4083      25    4092
    4089      24    4095    4089      24    4095    4092      25    4101    4098
      24    4104    4098      24    4104    4101      25    4110    4107      24
    4113    4107      24    4113    4110      25    4119    4116      24    4122
    4116      24    4122    4119      25    4128    4125      24    4131    4125
      24    4131    4128      25    4137    4134      24    4140    4134      24
    4140    4137      25    4146    4143      24    4149    4143      24    4149
    4146      25    4155    4152      24    4158    4152      24    4158    4155
      25    4164    4161      24    4167    4161      24    4167    4164      25
    4173    4170      24    4176    4170      24    4176    4173      25    4182
    4179      24    4185    4179      24    4185    4182      25    4191    4188
      24    4194    4188      24    4194    4191      25    4200    4197      24
    4203    4197      24    4203    4200      25    4209    4206      24    4212
    4206      24    4212    4209      25    4218    4215      24    4221    4215
      24    4221    4218      25    4227    4224      24    4230    4224      24
    4230    4227      25    4236    4233      24    4239    4233      24    4239
    4236      25    4245    4242      24    4248    4242      24    4248    4245
      25    4254    4251      24    4257    4251      24    4257    4254      25
    4263    4260      24    4266    4260      24    4266    4263      25    4272
    4269      24    4275    4269      24    4275    4272      25    4281    4278
      24    4284    4278      24    4284    4281      25    4290    4287      24
    4293    4287      24    4293    4290      25    4299    4296      24    4302
    4296      24    4302    4299      25    4308    4305      24    4311    4305
      24    4311    4308      25    4317    4314      24    4320    4314      24
    4320    4317      25    4326    4323      24    4329    4323      24    4329
    4326      25    4335    4332      24    4338    4332      24    4338    4335
      25    4344    4341      24    4347    4341      24    4347    4344      25
    4353    4350      24    4356    4350      24    4356    4353      25    4362
    4359      24    4365    4359      24    4365    4362      25    4371    4368
      24    4374    4368      24    4374    4371      25    4380    4377      24
    4383    4377      24    4383    4380      25    4389    4386      24    4392
    4386      24    4392    4389      25    4398    4395      24    4401    4395
      24    4401    4398      25    4407    4404      24    4410    4404      24
    4410    4407      25    4416    4413      24    4419    4413      24    4419
    4416      25    4425    4422      24    4428    4422      24    4428    4425
      25    4434    4431      24    4437    4431      24    4437    4434      25
    4443    4440      24    4446    4440      24    4446    4443      25    4452
    4449      24    4455    4449      24    4455    4452      25    4461    4458
      24    4464    4458      24    4464    4461      25    4470    4467      24
    4473    4467      24    4473    4470      25    4479    4476      24    4482
    4476      24    4482    4479      25    4488    4485      24    4491    4485
      24    4491    4488      25    4497    4494      24    4500    4494      24
    4500    4497      25    4506    4503      24    4509    4503      24    4509
    4506      25    4515    4512      24    4518    4512      24    4518    4515
      25    4524    4521      24    4527    4521      24    4527    4524      25
    4533    4530      24    4536    4530      24    4536    4533      25    4542
    4539      24    4545    4539      24    4545    4542      25    4551    4548
      24    4554    4548      24    4554    4551      25    4560    4557      24
    4563    4557      24    4563    4560      25    4569    4566      24    4572
    4566      24    4572    4569      25    4578    4575      24    4581    4575
      24    4581    4578      25    4587    4584      24    4590    4584      24
    4590    4587      25    4596    4593      24    4599    4593      24    4599
    4596      25    4605    4602      24    4608    4602      24    4608    4605
      25    4614    4611      24    4617    4611      24    4617    4614      25
    4623    4620      24    4626    4620      24    4626    4623      25    4632
    4629      24    4635    4629      24    4635    4632      25    4641    4638
      24    4644    4638      24    4644    4641      25    4650    4647      24
    4653    4647      24    4653    4650      25    4659    4656      24    4662
    4656      24    4662    4659      25    4668    4665      24    4671    4665
      24    4671    4668      25    4677    4674      24    4680    4674      24
    4680    4677      25    4686    4683      24    4689    4683      24    4689
    4686      25    4695    4692      24    4698    4692      24    4698    4695
      25    4704    4701      24    4707    4701      24    4707    4704      25
    4713    4710      24    4716    4710      24    4716    4713      25    4722
    4719      24    4725    4719      24    4725    4722      25    4731    4728
      24    4734    4728      24    4734    4731      25    4740    4737      24
    4743    4737      24    4743    4740      25    4749    4746      24    4752
    4746      24    4752    4749      25    4758    4755      24    4761    4755
      24    4761    4758      25    4767    4764      24    4770    4764      24
    4770    4767      25    4776    4773      24    4779    4773      24    4779
    4776      25    4785    4782      24    4788    4782      24    4788    4785
      25    4794    4791      24    4797    4791      24    4797    4794      25
    4803    4800      24    4806    4800      24    4806    4803      25    4812
    4809      24    4815    4809      24    4815    4812      25    4821    4818
      24    4824    4818      24    4824    4821      25    4830    4827      24
    4833    4827      24    4833    4830      25    4839    4836      24    4842
    4836      24    4842    4839      25    4848    4845      24    4851    4845
      24    4851    4848      25    4857    4854      24    4860    4854      24
    4860    4857      25    4866    4863      24    4869    4863      24    4869
    4866      25    4875    4872      24    4878    4872      24    4878    4875
      25    4884    4881      24    4887    4881      24    4887    4884      25
    4893    4890      24    4896    4890      24    4896    4893      25    4902
    4899      24    4905    4899      24    4905    4902      25    4911    4908
      24    4914    4908      24    4914    4911      25    4920    4917      24
    4923    4917      24    4923    4920      25    4929    4926      24    4932
    4926      24    4932    4929      25    4938    4935      24    4941    4935
      24    4941    4938      25    4947    4944      24    4950    4944      24
    4950    4947      25    4956    4953      24    4959    4953      24    4959
    4956      25    4965    4962      24    4968    4962      24    4968    4965
      25    4974    4971      24    4977    4971      24    4977    4974      25
    4983    4980      24    4986    4980      24    4986    4983      25    4992
    4989      24    4995    4989      24    4995    4992      25    5001    4998
      24    5004    4998      24    5004    5001      25    5010    5007      24
    5013    5007      24    5013    5010      25    5019    5016      24    5022
    5016      24    5022    5019      25    5028    5025      24    5031    5025
      24    5031    5028      25    5037    5034      24    5040    5034      24
    5040    5037      25    5046    5043      24    5049    5043      24    5049
    5046      25    5055    5052      24    5058    5052      24    5058    5055
      25    5064    5061      24    5067    5061      24    5067    5064      25
    5073    5070      24    5076    5070      24    5076    5073      25    5082
    5079      24    5085    5079      24    5085    5082      25    5091    5088
      24    5094    5088      24    5094    5091      25    5100    5097      24
    5103    5097      24    5103    5100      25    5109    5106      24    5112
    5106      24    5112    5109      25    5118    5115      24    5121    5115
      24    5121    5118      25    5127    5124      24    5130    5124      24
    5130    5127      25    5136    5133      24    5139    5133      24    5139
    5136      25    5145    5142      24    5148    5142      24    5148    5145
      25    5154    5151      24    5157    5151      24    5157    5154      25
    5163    5160      24    5166    5160      24    5166    5163      25    5172
    5169      24    5175    5169      24    5175    5172      25    5181    5178
      24    5184    5178      24    5184    5181      25    5190    5187      24
    5193    5187      24    5193    5190      25    5199    5196      24    5202
    5196      24    5202    5199      25    5208    5205      24    5211    5205
      24    5211    5208      25    5217    5214      24    5220    5214      24
    5220    5217      25    5226    5223      24    5229    5223      24    5229
    5226      25    5235    5232      24    5238    5232      24    5238    5235
      25    5244    5241      24    5247    5241      24    5247    5244      25
    5253    5250      24    5256    5250      24    5256    5253      25    5262
    5259      24    5265    5259      24    5265    5262      25    5271    5268
      24    5274    5268      24    5274    5271      25    5280    5277      24
    5283    5277      24    5283    5280      25    5289    5286      24    5292
    5286      24    5292    5289      25    5298    5295      24    5301    5295
      24    5301    5298      25    5307    5304      24    5310    5304      24
    5310    5307      25    5316    5313      24    5319    5313      24    5319
    5316      25    5325    5322      24    5328    5322      24    5328    5325
      25    5334    5331      24    5337    5331      24    5337    5334      25
    5343    5340      24    5346    5340      24    5346    5343      25    5352
    5349      24    5355    5349      24    5355    5352      25    5361    5358
      24    5364    5358      24    5364    5361      25    5370    5367      24
    5373    5367      24    5373    5370      25    5379    5376      24    5382
    5376      24    5382    5379      25    5388    5385      24    5391    5385
      24    5391    5388      25    5397    5394      24    5400    5394      24
    5400    5397      25    5406    5403      24    5409    5403      24    5409
    5406      25    5415    5412      24    5418    5412      24    5418    5415
      25    5424    5421      24    5427    5421      24    5427    5424      25
    5433    5430      24    5436    5430      24    5436    5433      25    5442
    5439      24    5445    5439      24    5445    5442      25    5451    5448
      24    5454    5448      24    5454    5451      25    5460    5457      24
    5463    5457      24    5463    5460      25    5469    5466      24    5472
    5466      24    5472    5469      25    5478    5475      24    5481    5475
      24    5481    5478      25    5487    5484      24    5490    5484      24
    5490    5487      25    5496    5493      24    5499    5493      24    5499
    5496      25    5505    5502      24    5508    5502      24    5508    5505
      25    5514    5511      24    5517    5511      24    5517    5514      25
    5523    5520      24    5526    5520      24    5526    5523      25    5532
    5529      24    5535    5529      24    5535    5532      25    5541    5538
      24    5544    5538      24    5544    5541      25    5550    5547      24
    5553    5547      24    5553    5550      25    5559    5556      24    5562
    5556      24    5562    5559      25    5568    5565      24    5571    5565
      24    5571    5568      25    5577    5574      24    5580    5574      24
    5580    5577      25    5586    5583      24    5589    5583      24    5589
    5586      25    5595    5592      24    5598    5592      24    5598    5595
      25    5604    5601      24    5607    5601      24    5607    5604      25
    5613    5610      24    5616    5610      24    5616    5613      25    5622
    5619      24    5625    5619      24    5625    5622      25    5631    5628
      24    5634    5628      24    5634    5631      25    5640    5637      24
    5643    5637      24    5643    5640      25    5649    5646      24    5652
    5646      24    5652    5649      25    5658    5655      24    5661    5655
      24    5661    5658      25    5667    5664      24    5670    5664      24
    5670    5667      25    5676    5673      24    5679    5673      24    5679
    5676      25    5685    5682      24    5688    5682      24    5688    5685
      25    5694    5691      24    5697    5691      24    5697    5694      25
    5703    5700      24    5706    5700      24    5706    5703      25    5712
    5709      24    5715    5709      24    5715    5712      25    5721    5718
      24    5724    5718      24    5724    5721      25    5730    5727      24
    5733    5727      24    5733    5730      25    5739    5736      24    5742
    5736      24    5742    5739      25    5748    5745      24    5751    5745
      24    5751    5748      25    5757    5754      24    5760    5754      24
    5760    5757      25    5766    5763      24    5769    5763      24    5769
    5766      25    5775    5772      24    5778    5772      24    5778    5775
      25    5784    5781      24    5787    5781      24    5787    5784      25
    5793    5790      24    5796    5790      24    5796    5793      25    5802
    5799      24    5805    5799      24    5805    5802      25    5811    5808
      24    5814    5808      24    5814    5811      25    5820    5817      24
    5823    5817      24    5823    5820      25    5829    5826      24    5832
    5826      24    5832    5829      25    5838    5835      24    5841    5835
      24    5841    5838      25    5847    5844      24    5850    5844      24
    5850    5847      25    5856    5853      24    5859    5853      24    5859
    5856      25    5865    5862      24    5868    5862      24    5868    5865
      25    5874    5871      24    5877    5871      24    5877    5874      25
    5883    5880      24    5886    5880      24    5886    5883      25    5892
    5889      24    5895    5889      24    5895    5892      25    5901    5898
      24    5904    5898      24    5904    5901      25    5910    5907      24
    5913    5907      24    5913    5910      25    5919    5916      24    5922
    5916      24    5922    5919      25    5928    5925      24    5931    5925
      24    5931    5928      25    5937    5934      24    5940    5934      24
    5940    5937      25    5946    5943      24    5949    5943      24    5949
    5946      25    5955    5952      24    5958    5952      24    5958    5955
      25    5964    5961      24    5967    5961      24    5967    5964      25
    5973    5970      24    5976    5970      24    5976    5973      25    5982
    5979      24    5985    5979      24    5985    5982      25    5991    5988
      24    5994    5988      24    5994    5991      25    6000    5997      24
    6003    5997      24    6003    6000      25    6009    6006      24    6012
    6006      24    6012    6009      25    6018    6015      24    6021    6015
      24    6021    6018      25    6027    6024      24    6030    6024      24
    6030    6027      25    6036    6033      24    6039    6033      24    6039
    6036      25    6045    6042      24    6048    6042      24    6048    6045
      25    6054    6051      24    6057    6051      24    6057    6054      25
    6063    6060      24    6066    6060      24    6066    6063      25    6072
    6069      24    6075    6069      24    6075    6072      25    6081    6078
      24    6084    6078      24    6084    6081      25    6090    6087      24
    6093    6087      24    6093    6090      25    6099    6096      24    6102
    6096      24    6102    6099      25    6108    6105      24    6111    6105
      24    6111    6108      25    6117    6114      24    6120    6114      24
    6120    6117      25    6126    6123      24    6129    6123      24    6129
    6126      25    6135    6132      24    6138    6132      24    6138    6135
      25    6144    6141      24    6147    6141      24    6147    6144      25
    6153    6150      24    6156    6150      24    6156    6153      25    6162
    6159      24    6165    6159      24    6165    6162      25    6171    6168
      24    6174    6168      24    6174    6171      25    6180    6177      24
    6183    6177      24    6183    6180      25    6189    6186      24    6192
    6186      24    6192    6189      25    6198    6195      24    6201    6195
      24    6201    6198      25    6207    6204      24    6210    6204      24
    6210    6207      25    6216    6213      24    6219    6213      24    6219
    6216      25    6225    6222      24    6228    6222      24    6228    6225
      25    6234    6231      24    6237    6231      24    6237    6234      25
    6243    6240      24    6246    6240      24    6246    6243      25    6252
    6249      24    6255    6249      24    6255    6252      25    6261    6258
      24    6264    6258      24    6264    6261      25    6270    6267      24
    6273    6267      24    6273    6270      25    6279    6276      24    6282
    6276      24    6282    6279      25    6288    6285      24    6291    6285
      24    6291    6288      25    6297    6294      24    6300    6294      24
    6300    6297      25    6306    6303      24    6309    6303      24    6309
    6306      25    6315    6312      24    6318    6312      24    6318    6315
      25    6324    6321      24    6327    6321      24    6327    6324      25
    6333    6330      24    6336    6330      24    6336    6333      25    6342
    6339      24    6345    6339      24    6345    6342      25    6351    6348
      24    6354    6348      24    6354    6351      25    6360    6357      24
    6363    6357      24    6363    6360      25    6369    6366      24    6372
    6366      24    6372    6369      25    6378    6375      24    6381    6375
      24    6381    6378      25    6387    6384      24    6390    6384      24
    6390    6387      25    6396    6393      24    6399    6393      24    6399
    6396      25    6405    6402      24    6408    6402      24    6408    6405
      25    6414    6411      24    6417    6411      24    6417    6414      25
    6423    6420      24    6426    6420      24    6426    6423      25    6432
    6429      24    6435    6429      24    6435    6432      25    6441    6438
      24    6444    6438      24    6444    6441      25    6450    6447      24
    6453    6447      24    6453    6450      25    6459    6456      24    6462
    6456      24    6462    6459      25    6468    6465      24    6471    6465
      24    6471    6468      25    6477    6474      24    6480    6474      24
    6480    6477      25    6486    6483      24    6489    6483      24    6489
    6486      25    6495    6492      24    6498    6492      24    6498    6495
      25    6504    6501      24    6507    6501      24    6507    6504      25
    6513    6510      24    6516    6510      24    6516    6513      25    6522
    6519      24    6525    6519      24    6525    6522      25    6531    6528
      24    6534    6528      24    6534    6531      25    6540    6537      24
    6543    6537      24    6543    6540      25    6549    6546      24    6552
    6546      24    6552    6549      25    6558    6555      24    6561    6555
      24    6561    6558      25    6567    6564      24    6570    6564      24
    6570    6567      25    6576    6573      24    6579    6573      24    6579
    6576      25    6585    6582      24    6588    6582      24    6588    6585
      25    6594    6591      24    6597    6591      24    6597    6594      25
    6603    6600      24    6606    6600      24    6606    6603      25    6612
    6609      24    6615    6609      24    6615    6612      25    6621    6618
      24    6624    6618      24    6624    6621      25    6630    6627      24
    6633    6627      24    6633    6630      25    6639    6636      24    6642
    6636      24    6642    6639      25    6648    6645      24    6651    6645
      24    6651    6648      25    6657    6654      24    6660    6654      24
    6660    6657      25    6666    6663      24    6669    6663      24    6669
    6666      25    6675    6672      24    6678    6672      24    6678    6675
      25    6684    6681      24    6687    6681      24    6687    6684      25
    6693    6690      24    6696    6690      24    6696    6693      25    6702
    6699      24    6705    6699      24    6705    6702      25    6711    6708
      24    6714    6708      24    6714    6711      25    6720    6717      24
    6723    6717      24    6723    6720      25    6729    6726      24    6732
    6726      24    6732    6729      25    6738    6735      24    6741    6735
      24    6741    6738      25    6747    6744      24    6750    6744      24
    6750    6747      25    6756    6753      24    6759    6753      24    6759
    6756      25    6765    6762      24    6768    6762      24    6768    6765
      25    6774    6771      24    6777    6771      24    6777    6774      25
    6783    6780      24    6786    6780      24    6786    6783      25    6792
    6789      24    6795    6789      24    6795    6792      25    6801    6798
      24    6804    6798      24    6804    6801      25    6810    6807      24
    6813    6807      24    6813    6810      25    6819    6816      24    6822
    6816      24    6822    6819      25    6828    6825      24    6831    6825
      24    6831    6828      25    6837    6834      24    6840    6834      24
    6840    6837      25    6846    6843      24    6849    6843      24    6849
    6846      25    6855    6852      24    6858    6852      24    6858    6855
      25    6864    6861      24    6867    6861      24    6867    6864      25
    6873    6870      24    6876    6870      24    6876    6873      25    6882
    6879      24    6885    6879      24    6885    6882      25    6891    6888
      24    6894    6888      24    6894    6891      25    6900    6897      24
    6903    6897      24    6903    6900      25    6909    6906      24    6912
    6906      24    6912    6909      25    6918    6915      24    6921    6915
      24    6921    6918      25    6927    6924      24    6930    6924      24
    6930    6927      25    6936    6933      24    6939    6933      24    6939
    6936      25    6945    6942      24    6948    6942      24    6948    6945
      25    6954    6951      24    6957    6951      24    6957    6954      25
    6963    6960      24    6966    6960      24    6966    6963      25    6972
    6969      24    6975    6969      24    6975    6972      25    6981    6978
      24    6984    6978      24    6984    6981      25    6990    6987      24
    6993    6987      24    6993    6990      25    6999    6996      24    7002
    6996      24    7002    6999      25    7008    7005      24    7011    7005
      24    7011    7008      25    7017    7014      24    7020    7014      24
    7020    7017      25    7026    7023      24    7029    7023      24    7029
    7026      25    7035    7032      24    7038    7032      24    7038    7035
      25    7044    7041      24    7047    7041      24    7047    7044      25
    7053    7050      24    7056    7050      24    7056    7053      25    7062
    7059      24    7065    7059      24    7065    7062      25    7071    7068
      24    7074    7068      24    7074    7071      25    7080    7077      24
    7083    7077      24    7083    7080      25    7089    7086      24    7092
    7086      24    7092    7089      25    7098    7095      24    7101    7095
      24    7101    7098      25    7107    7104      24    7110    7104      24
    7110    7107      25    7116    7113      24    7119    7113      24    7119
    7116      25    7125    7122      24    7128    7122      24    7128    7125
      25    7134    7131      24    7137    7131      24    7137    7134      25
    7143    7140      24    7146    7140      24    7146    7143      25    7152
    7149      24    7155    7149      24    7155    7152      25    7161    7158
      24    7164    7158      24    7164    7161      25    7170    7167      24
    7173    7167      24    7173    7170      25    7179    7176      24    7182
    7176      24    7182    7179      25    7188    7185      24    7191    7185
      24    7191    7188      25    7197    7194      24    7200    7194      24
    7200    7197      25    7206    7203      24    7209    7203      24    7209
    7206      25    7215    7212      24    7218    7212      24    7218    7215
      25    7224    7221      24    7227    7221      24    7227    7224      25
    7233    7230      24    7236    7230      24    7236    7233      25    7242
    7239      24    7245    7239      24    7245    7242      25    7251    7248
      24    7254    7248      24    7254    7251      25    7260    7257      24
    7263    7257      24    7263    7260      25    7269    7266      24    7272
    7266      24    7272    7269      25    7278    7275      24    7281    7275
      24    7281    7278      25    7287    7284      24    7290    7284      24
    7290    7287      25    7296    7293      24    7299    7293      24    7299
    7296      25    7305    7302      24    7308    7302      24    7308    7305
      25    7314    7311      24    7317    7311      24    7317    7314      25
    7323    7320      24    7326    7320      24    7326    7323      25    7332
    7329      24    7335    7329      24    7335    7332      25    7341    7338
      24    7344    7338      24    7344    7341      25    7350    7347      24
    7353    7347      24    7353    7350      25    7359    7356      24    7362
    7356      24    7362    7359      25    7368    7365      24    7371    7365
      24    7371    7368      25    7377    7374      24    7380    7374      24
    7380    7377      25    7386    7383      24    7389    7383      24    7389
    7386      25    7395    7392      24    7398    7392      24    7398    7395
      25    7404    7401      24    7407    7401      24    7407    7404      25
    7413    7410      24    7416    7410      24    7416    7413      25    7422
    7419      24    7425    7419      24    7425    7422      25    7431    7428
      24    7434    7428      24    7434    7431      25    7440    7437      24
    7443    7437      24    7443    7440      25    7449    7446      24    7452
    7446      24    7452    7449      25    7458    7455      24    7461    7455
      24    7461    7458      25    7467    7464      24    7470    7464      24
    7470    7467      25    7476    7473      24    7479    7473      24    7479
    7476      25    7485    7482      24    7488    7482      24    7488    7485
      25    7494    7491      24    7497    7491      24    7497    7494      25
    7503    7500      24    7506    7500      24    7506    7503      25    7512
    7509      24    7515    7509      24    7515    7512      25    7521    7518
      24    7524    7518      24    7524    7521      25    7530    7527      24
    7533    7527      24    7533    7530      25    7539    7536      24    7542
    7536      24    7542    7539      25    7548    7545      24    7551    7545
      24    7551    7548      25    7557    7554      24    7560    7554      24
    7560    7557      25    7566    7563      24    7569    7563      24    7569
    7566      25    7575    7572      24    7578    7572      24    7578    7575
      25    7584    7581      24    7587    7581      24    7587    7584      25
    7593    7590      24    7596    7590      24    7596    7593      25    7602
    7599      24    7605    7599      24    7605    7602      25    7611    7608
      24    7614    7608      24    7614    7611      25    7620    7617      24
    7623    7617      24    7623    7620      25    7629    7626      24    7632
    7626      24    7632    7629      25    7638    7635      24    7641    7635
      24    7641    7638      25    7647    7644      24    7650    7644      24
    7650    7647      25    7656    7653      24    7659    7653      24    7659
    7656      25    7665    7662      24    7668    7662      24    7668    7665
      25    7674    7671      24    7677    7671      24    7677    7674      25
    7683    7680      24    7686    7680      24    7686    7683      25    7692
    7689      24    7695    7689      24    7695    7692      25    7701    7698
      24    7704    7698      24    7704    7701      25    7710    7707      24
    7713    7707      24    7713    7710      25    7719    7716      24    7722
    7716      24    7722    7719      25    7728    7725      24    7731    7725
      24    7731    7728      25    7737    7734      24    7740    7734      24
    7740    7737      25    7746    7743      24    7749    7743      24    7749
    7746      25    7755    7752      24    7758    7752      24    7758    7755
      25    7764    7761      24    7767    7761      24    7767    7764      25
    7773    7770      24    7776    7770      24    7776    7773      25    7782
    7779      24    7785    7779      24    7785    7782      25    7791    7788
      24    7794    7788      24    7794    7791      25    7800    7797      24
    7803    7797      24    7803    7800      25    7809    7806      24    7812
    7806      24    7812    7809      25    7818    7815      24    7821    7815
      24    7821    7818      25    7827    7824      24    7830    7824      24
    7830    7827      25    7836    7833      24    7839    7833      24    7839
    7836      25    7845    7842      24    7848    7842      24    7848    7845
      25    7854    7851      24    7857    7851      24    7857    7854      25
    7863    7860      24    7866    7860      24    7866    7863      25    7872
    7869      24    7875    7869      24    7875    7872      25    7881    7878
      24    7884    7878      24    7884    7881      25    7890    7887      24
    7893    7887      24    7893    7890      25    7899    7896      24    7902
    7896      24    7902    7899      25    7908    7905      24    7911    7905
      24    7911    7908      25    7917    7914      24    7920    7914      24
    7920    7917      25    7926    7923      24    7929    7923      24    7929
    7926      25    7935    7932      24    7938    7932      24    7938    7935
      25    7944    7941      24    7947    7941      24    7947    7944      25
    7953    7950      24    7956    7950      24    7956    7953      25    7962
    7959      24    7965    7959      24    7965    7962      25    7971    7968
      24    7974    7968      24    7974    7971      25    7980    7977      24
    7983    7977      24    7983    7980      25    7989    7986      24    7992
    7986      24    7992    7989      25    7998    7995      24    8001    7995
      24    8001    7998      25    8007    8004      24    8010    8004      24
    8010    8007      25    8016    8013      24    8019    8013      24    8019
    8016      25    8025    8022      24    8028    8022      24    8028    8025
      25    8034    8031      24    8037    8031      24    8037    8034      25
    8043    8040      24    8046    8040      24    8046    8043      25    8052
    8049      24    8055    8049      24    8055    8052      25    8061    8058
      24    8064    8058      24    8064    8061      25    8070    8067      24
    8073    8067      24    8073    8070      25    8079    8076      24    8082
    8076      24    8082    8079      25    8088    8085      24    8091    8085
      24    8091    8088      25    8097    8094      24    8100    8094      24
    8100    8097      25    8106    8103      24    8109    8103      24    8109
    8106      25    8115    8112      24    8118    8112      24    8118    8115
      25    8124    8121      24    8127    8121      24    8127    8124      25
    8133    8130      24    8136    8130      24    8136    8133      25    8142
    8139      24    8145    8139      24    8145    8142      25    8151    8148
      24    8154    8148      24    8154    8151      25    8160    8157      24
    8163    8157      24    8163    8160      25    8169    8166      24    8172
    8166      24    8172    8169      25    8178    8175      24    8181    8175
      24    8181    8178      25    8187    8184      24    8190    8184      24
    8190    8187      25    8196    8193      24    8199    8193      24    8199
    8196      25    8205    8202      24    8208    8202      24    8208    8205
      25    8214    8211      24    8217    8211      24    8217    8214      25
    8223    8220      24    8226    8220      24    8226    8223      25    8232
    8229      24    8235    8229      24    8235    8232      25    8241    8238
      24    8244    8238      24    8244    8241      25    8250    8247      24
    8253    8247      24    8253    8250      25    8259    8256      24    8262
    8256      24    8262    8259      25    8268    8265      24    8271    8265
      24    8271    8268      25    8277    8274      24    8280    8274      24
    8280    8277      25    8286    8283      24    8289    8283      24    8289
    8286      25    8295    8292      24    8298    8292      24    8298    8295
      25    8304    8301      24    8307    8301      24    8307    8304      25
    8313    8310      24    8316    8310      24    8316    8313      25    8322
    8319      24    8325    8319      24    8325    8322      25    8331    8328
      24    8334    8328      24    8334    8331      25    8340    8337      24
    8343    8337      24    8343    8340      25    8349    8346      24    8352
    8346      24    8352    8349      25    8358    8355      24    8361    8355
      24    8361    8358      25    8367    8364      24    8370    8364      24
    8370    8367      25    8376    8373      24    8379    8373      24    8379
    8376      25    8385    8382      24    8388    8382      24    8388    8385
      25    8394    8391      24    8397    8391      24    8397    8394      25
    8403    8400      24    8406    8400      24    8406    8403      25    8412
    8409      24    8415    8409      24    8415    8412      25    8421    8418
      24    8424    8418      24    8424    8421      25    8430    8427      24
    8433    8427      24    8433    8430      25    8439    8436      24    8442
    8436      24    8442    8439      25    8448    8445      24    8451    8445
      24    8451    8448      25    8457    8454      24    8460    8454      24
    8460    8457      25    8466    8463      24    8469    8463      24    8469
    8466      25    8475    8472      24    8478    8472      24    8478    8475
      25    8484    8481      24    8487    8481      24    8487    8484      25
    8493    8490      24    8496    8490      24    8496    8493      25    8502
    8499      24    8505    8499      24    8505    8502      25    8511    8508
      24    8514    8508      24    8514    8511      25    8520    8517      24
    8523    8517      24    8523    8520      25    8529    8526      24    8532
    8526      24    8532    8529      25    8538    8535      24    8541    8535
      24    8541    8538      25    8547    8544      24    8550    8544      24
    8550    8547      25    8556    8553      24    8559    8553      24    8559
    8556      25    8565    8562      24    8568    8562      24    8568    8565
      25    8574    8571      24    8577    8571      24    8577    8574      25
    8583    8580      24    8586    8580      24    8586    8583      25    8592
    8589      24    8595    8589      24    8595    8592      25    8601    8598
      24    8604    8598      24    8604    8601      25    8610    8607      24
    8613    8607      24    8613    8610      25    8619    8616      24    8622
    8616      24    8622    8619      25    8628    8625      24    8631    8625
      24    8631    8628      25    8637    8634      24    8640    8634      24
    8640    8637      25    8646    8643      24    8649    8643      24    8649
    8646      25    8655    8652      24    8658    8652      24    8658    8655
      25    8664    8661      24    8667    8661      24    8667    8664      25
    8673    8670      24    8676    8670      24    8676    8673      25    8682
    8679      24    8685    8679      24    8685    8682      25    8691    8688
      24    8694    8688      24    8694    8691      25    8700    8697      24
    8703    8697      24    8703    8700      25    8709    8706      24    8712
    8706      24    8712    8709      25    8718    8715      24    8721    8715
      24    8721    8718      25    8727    8724      24    8730    8724      24
    8730    8727      25    8736    8733      24    8739    8733      24    8739
    8736      25    8745    8742      24    8748    8742      24    8748    8745
      25    8754    8751      24    8757    8751      24    8757    8754      25
    8763    8760      24    8766    8760      24    8766    8763      25    8772
    8769      24    8775    8769      24    8775    8772      25    8781    8778
      24    8784    8778      24    8784    8781      25    8790    8787      24
    8793    8787      24    8793    8790      25    8799    8796      24    8802
    8796      24    8802    8799      25    8808    8805      24    8811    8805
      24    8811    8808      25    8817    8814      24    8820    8814      24
    8820    8817      25    8826    8823      24    8829    8823      24    8829
    8826      25    8835    8832      24    8838    8832      24    8838    8835
      25    8844    8841      24    8847    8841      24    8847    8844      25
    8853    8850      24    8856    8850      24    8856    8853      25    8862
    8859      24    8865    8859      24    8865    8862      25    8871    8868
      24    8874    8868      24    8874    8871      25    8880    8877      24
    8883    8877      24    8883    8880      25    8889    8886      24    8892
    8886      24    8892    8889      25    8898    8895      24    8901    8895
      24    8901    8898      25    8907    8904      24    8910    8904      24
    8910    8907      25    8916    8913      24    8919    8913      24    8919
    8916      25    8925    8922      24    8928    8922      24    8928    8925
      25    8934    8931      24    8937    8931      24    8937    8934      25
    8943    8940      24    8946    8940      24    8946    8943      25    8952
    8949      24    8955    8949      24    8955    8952      25    8961    8958
      24    8964    8958      24    8964    8961      25    8970    8967      24
    8973    8967      24    8973    8970      25    8979    8976      24    8982
    8976      24    8982    8979      25    8988    8985      24    8991    8985
      24    8991    8988      25    8997    8994      24    9000    8994      24
    9000    8997      25    9006    9003      24    9009    9003      24    9009
    9006      25    9015    9012      24    9018    9012      24    9018    9015
      25    9024    9021      24    9027    9021      24    9027    9024      25
    9033    9030      24    9036    9030      24    9036    9033      25    9042
    9039      24    9045    9039      24    9045    9042      25    9051    9048
      24    9054    9048      24    9054    9051      25    9060    9057      24
    9063    9057      24    9063    9060      25    9069    9066      24    9072
    9066      24    9072    9069      25    9078    9075      24    9081    9075
      24    9081    9078      25    9087    9084      24    9090    9084      24
    9090    9087      25    9096    9093      24    9099    9093      24    9099
    9096      25    9105    9102      24    9108    9102      24    9108    9105
      25    9114    9111      24    9117    9111      24    9117    9114      25
    9123    9120      24    9126    9120      24    9126    9123      25    9132
    9129      24    9135    9129      24    9135    9132      25    9141    9138
      24    9144    9138      24    9144    9141      25    9150    9147      24
    9153    9147      24    9153    9150      25    9159    9156      24    9162
    9156      24    9162    9159      25    9168    9165      24    9171    9165
      24    9171    9168      25    9177    9174      24    9180    9174      24
    9180    9177      25    9186    9183      24    9189    9183      24    9189
    9186      25    9195    9192      24    9198    9192      24    9198    9195
      25    9204    9201      24    9207    9201      24    9207    9204      25
    9213    9210      24    9216    9210      24    9216    9213      25    9222
    9219      24    9225    9219      24    9225    9222      25    9231    9228
      24    9234    9228      24    9234    9231      25    9240    9237      24
    9243    9237      24    9243    9240      25    9249    9246      24    9252
    9246      24    9252    9249      25    9258    9255      24    9261    9255
      24    9261    9258      25    9267    9264      24    9270    9264      24
    9270    9267      25    9276    9273      24    9279    9273      24    9279
    9276      25    9285    9282      24    9288    9282      24    9288    9285
      25    9294    9291      24    9297    9291      24    9297    9294      25
    9303    9300      24    9306    9300      24    9306    9303      25    9312
    9309      24    9315    9309      24    9315    9312      25    9321    9318
      24    9324    9318      24    9324    9321      25    9330    9327      24
    9333    9327      24    9333    9330      25    9339    9336      24    9342
    9336      24    9342    9339      25    9348    9345      24    9351    9345
      24    9351    9348      25    9357    9354      24    9360    9354      24
    9360    9357      25    9366    9363      24    9369    9363      24    9369
    9366      25    9375    9372      24    9378    9372      24    9378    9375
      25    9384    9381      24    9387    9381      24    9387    9384      25
    9393    9390      24    9396    9390      24    9396    9393      25    9402
    9399      24    9405    9399      24    9405    9402      25    9411    9408
      24    9414    9408      24    9414    9411      25    9420    9417      24
    9423    9417      24    9423    9420      25    9429    9426      24    9432
    9426      24    9432    9429      25    9438    9435      24    9441    9435
      24    9441    9438      25    9447    9444      24    9450    9444      24
    9450    9447      25    9456    9453      24    9459    9453      24    9459
    9456      25    9465    9462      24    9468    9462      24    9468    9465
      25    9474    9471      24    9477    9471      24    9477    9474      25
    9483    9480      24    9486    9480      24    9486    9483      25    9492
    9489      24    9495    9489      24    9495    9492      25    9501    9498
      24    9504    9498      24    9504    9501      25    9510    9507      24
    9513    9507      24    9513    9510      25    9519    9516      24    9522
    9516      24    9522    9519      25    9528    9525      24    9531    9525
      24    9531    9528      25    9537    9534      24    9540    9534      24
    9540    9537      25    9546    9543      24    9549    9543      24    9549
    9546      25    9555    9552      24    9558    9552      24    9558    9555
      25    9564    9561      24    9567    9561      24    9567    9564      25
    9573    9570      24    9576    9570      24    9576    9573      25    9582
    9579      24    9585    9579      24    9585    9582      25    9591    9588
      24    9594    9588      24    9594    9591      25    9600    9597      24
    9603    9597      24    9603    9600      25    9609    9606      24    9612
    9606      24    9612    9609      25    9618    9615      24    9621    9615
      24    9621    9618      25    9627    9624      24    9630    9624      24
    9630    9627      25    9636    9633      24    9639    9633      24    9639
    9636      25    9645    9642      24    9648    9642      24    9648    9645
      25    9654    9651      24    9657    9651      24    9657    9654      25
    9663    9660      24    9666    9660      24    9666    9663      25    9672
    9669      24    9675    9669      24    9675    9672      25    9681    9678
      24    9684    9678      24    9684    9681      25    9690    9687      24
    9693    9687      24    9693    9690      25    9699    9696      24    9702
    9696      24    9702    9699      25    9708    9705      24    9711    9705
      24    9711    9708      25    9717    9714      24    9720    9714      24
    9720    9717      25    9726    9723      24    9729    9723      24    9729
    9726      25    9735    9732      24    9738    9732      24    9738    9735
      25    9744    9741      24    9747    9741      24    9747    9744      25
    9753    9750      24    9756    9750      24    9756    9753      25    9762
    9759      24    9765    9759      24    9765    9762      25    9771    9768
      24    9774    9768      24    9774    9771      25    9780    9777      24
    9783    9777      24    9783    9780      25    9789    9786      24    9792
    9786      24    9792    9789      25    9798    9795      24    9801    9795
      24    9801    9798      25    9807    9804      24    9810    9804      24
    9810    9807      25    9816    9813      24    9819    9813      24    9819
    9816      25    9825    9822      24    9828    9822      24    9828    9825
      25    9834    9831      24    9837    9831      24    9837    9834      25
    9843    9840      24    9846    9840      24    9846    9843      25    9852
    9849      24    9855    9849      24    9855    9852      25    9861    9858
      24    9864    9858      24    9864    9861      25    9870    9867      24
    9873    9867      24    9873    9870      25    9879    9876      24    9882
    9876      24    9882    9879      25    9888    9885      24    9891    9885
      24    9891    9888      25    9897    9894      24    9900    9894      24
    9900    9897      25    9906    9903      24    9909    9903      24    9909
    9906      25    9915    9912      24    9918    9912      24    9918    9915
      25    9924    9921      24    9927    9921      24    9927    9924      25
    9933    9930      24    9936    9930      24    9936    9933      25    9942
    9939      24    9945    9939      24    9945    9942      25    9951    9948
      24    9954    9948      24    9954    9951      25    9960    9957      24
    9963    9957      24    9963    9960      25    9969    9966      24    9972
    9966      24    9972    9969      25    9978    9975      24    9981    9975
      24    9981    9978      25    9987    9984      24    9990    9984      24
    9990    9987      25    9996    9993      24    9999    9993      24    9999
    9996      25   10005   10002      24   10008   10002      24   10008   10005
      25   10014   10011      24   10017   10011      24   10017   10014      25
   10023   10020      24   10026   10020      24   10026   10023      25   10032
   10029      24   10035   10029      24   10035   10032      25   10041   10038
      24   10044   10038      24   10044   10041      25   10050   10047      24
   10053   10047      24   10053   10050      25   10059   10056      24   10062
   10056      24   10062   10059      25   10068   10065      24   10071   10065
      24   10071   10068      25   10077   10074      24   10080   10074      24
   10080   10077      25   10086   10083      24   10089   10083      24   10089
   10086      25   10095   10092      24   10098   10092      24   10098   10095
      25   10104   10101      24   10107   10101      24   10107   10104      25
   10113   10110      24   10116   10110      24   10116   10113      25   10122
   10119      24   10125   10119      24   10125   10122      25   10131   10128
      24   10134   10128      24   10134   10131      25   10140   10137      24
   10143   10137      24   10143   10140      25   10149   10146      24   10152
   10146      24   10152   10149      25   10158   10155      24   10161   10155
      24   10161   10158      25   10167   10164      24   10170   10164      24
   10170   10167      25   10176   10173      24   10179   10173      24   10179
   10176      25   10185   10182      24   10188   10182      24   10188   10185
      25   10194   10191      24   10197   10191      24   10197   10194      25
   10203   10200      24   10206   10200      24   10206   10203      25   10212
   10209      24   10215   10209      24   10215   10212      25   10221   10218
      24   10224   10218      24   10224   10221      25   10230   10227      24
   10233   10227      24   10233   10230      25   10239   10236      24   10242
   10236      24   10242   10239      25   10248   10245      24   10251   10245
      24   10251   10248      25   10257   10254      24   10260   10254      24
   10260   10257      25   10266   10263      24   10269   10263      24   10269
   10266      25   10275   10272      24   10278   10272      24   10278   10275
      25   10284   10281      24   10287   10281      24   10287   10284      25
   10293   10290      24   10296   10290      24   10296   10293      25   10302
   10299      24   10305   10299      24   10305   10302      25   10311   10308
      24   10314   10308      24   10314   10311      25   10320   10317      24
   10323   10317      24   10323   10320      25   10329   10326      24   10332
   10326      24   10332   10329      25   10338   10335      24   10341   10335
      24   10341   10338      25   10347   10344      24   10350   10344      24
   10350   10347      25   10356   10353      24   10359   10353      24   10359
   10356      25   10365   10362      24   10368   10362      24   10368   10365
      25   10374   10371      24   10377   10371      24   10377   10374      25
   10383   10380      24   10386   10380      24   10386   10383      25   10392
   10389      24   10395   10389      24   10395   10392      25   10401   10398
      24   10404   10398      24   10404   10401      25   10410   10407      24
   10413   10407      24   10413   10410      25   10419   10416      24   10422
   10416      24   10422   10419      25   10428   10425      24   10431   10425
      24   10431   10428      25   10437   10434      24   10440   10434      24
   10440   10437      25   10446   10443      24   10449   10443      24   10449
   10446      25   10455   10452      24   10458   10452      24   10458   10455
      25   10464   10461      24   10467   10461      24   10467   10464      25
   10473   10470      24   10476   10470      24   10476   10473      25   10482
   10479      24   10485   10479      24   10485   10482      25   10491   10488
      24   10494   10488      24   10494   10491      25   10500   10497      24
   10503   10497      24   10503   10500      25   10509   10506      24   10512
   10506      24   10512   10509      25   10518   10515      24   10521   10515
      24   10521   10518      25   10527   10524      24   10530   10524      24
   10530   10527      25   10536   10533      24   10539   10533      24   10539
   10536      25   10545   10542      24   10548   10542      24   10548   10545
      25   10554   10551      24   10557   10551      24   10557   10554      25
   10563   10560      24   10566   10560      24   10566   10563      25   10572
   10569      24   10575   10569      24   10575   10572      25   10581   10578
      24   10584   10578      24   10584   10581      25   10590   10587      24
   10593   10587      24   10593   10590      25   10599   10596      24   10602
   10596      24   10602   10599      25   10608   10605      24   10611   10605
      24   10611   10608      25   10617   10614      24   10620   10614      24
   10620   10617      25   10626   10623      24   10629   10623      24   10629
   10626      25   10635   10632      24   10638   10632      24   10638   10635
      25   10644   10641      24   10647   10641      24   10647   10644      25
   10653   10650      24   10656   10650      24   10656   10653      25   10662
   10659      24   10665   10659      24   10665   10662      25   10671   10668
      24   10674   10668      24   10674   10671      25   10680   10677      24
   10683   10677      24   10683   10680      25   10689   10686      24   10692
   10686      24   10692   10689      25   10698   10695      24   10701   10695
      24   10701   10698      25   10707   10704      24   10710   10704      24
   10710   10707      25   10716   10713      24   10719   10713      24   10719
   10716      25   10725   10722      24   10728   10722      24   10728   10725
      25   10734   10731      24   10737   10731      24   10737   10734      25
   10743   10740      24   10746   10740      24   10746   10743      25   10752
   10749      24   10755   10749      24   10755   10752      25   10761   10758
      24   10764   10758      24   10764   10761      25   10770   10767      24
   10773   10767      24   10773   10770      25   10779   10776      24   10782
   10776      24   10782   10779      25   10788   10785      24   10791   10785
      24   10791   10788      25   10797   10794      24   10800   10794      24
   10800   10797      25   10806   10803      24   10809   10803      24   10809
   10806      25   10815   10812      24   10818   10812      24   10818   10815
      25   10824   10821      24   10827   10821      24   10827   10824      25
   10833   10830      24   10836   10830      24   10836   10833      25   10842
   10839      24   10845   10839      24   10845   10842      25   10851   10848
      24   10854   10848      24   10854   10851      25   10860   10857      24
   10863   10857      24   10863   10860      25   10869   10866      24   10872
   10866      24   10872   10869      25   10878   10875      24   10881   10875
      24   10881   10878      25   10887   10884      24   10890   10884      24
   10890   10887      25   10896   10893      24   10899   10893      24   10899
   10896      25   10905   10902      24   10908   10902      24   10908   10905
      25   10914   10911      24   10917   10911      24   10917   10914      25
   10923   10920      24   10926   10920      24   10926   10923      25   10932
   10929      24   10935   10929      24   10935   10932      25   10941   10938
      24   10944   10938      24   10944   10941      25   10950   10947      24
   10953   10947      24   10953   10950      25   10959   10956      24   10962
   10956      24   10962   10959      25   10968   10965      24   10971   10965
      24   10971   10968      25   10977   10974      24   10980   10974      24
   10980   10977      25   10986   10983      24   10989   10983      24   10989
   10986      25   10995   10992      24   10998   10992      24   10998   10995
      25   11004   11001      24   11007   11001      24   11007   11004      25
   11013   11010      24   11016   11010      24   11016   11013      25   11022
   11019      24   11025   11019      24   11025   11022      25   11031   11028
      24   11034   11028      24   11034   11031      25   11040   11037      24
   11043   11037      24   11043   11040      25   11049   11046      24   11052
   11046      24   11052   11049      25   11058   11055      24   11061   11055
      24   11061   11058      25   11067   11064      24   11070   11064      24
   11070   11067      25   11076   11073      24   11079   11073      24   11079
   11076      25   11085   11082      24   11088   11082      24   11088   11085
      25   11094   11091      24   11097   11091      24   11097   11094      25
   11103   11100      24   11106   11100      24   11106   11103      25   11112
   11109      24   11115   11109      24   11115   11112      25   11121   11118
      24   11124   11118      24   11124   11121      25   11130   11127      24
   11133   11127      24   11133   11130      25   11139   11136      24   11142
   11136      24   11142   11139      25   11148   11145      24   11151   11145
      24   11151   11148      25   11157   11154      24   11160   11154      24
   11160   11157      25   11166   11163      24   11169   11163      24   11169
   11166      25   11175   11172      24   11178   11172      24   11178   11175
      25   11184   11181      24   11187   11181      24   11187   11184      25
   11193   11190      24   11196   11190      24   11196   11193      25   11202
   11199      24   11205   11199      24   11205   11202      25   11211   11208
      24   11214   11208      24   11214   11211      25   11220   11217      24
   11223   11217      24   11223   11220      25   11229   11226      24   11232
   11226      24   11232   11229      25   11238   11235      24   11241   11235
      24   11241   11238      25   11247   11244      24   11250   11244      24
   11250   11247      25   11256   11253      24   11259   11253      24   11259
   11256      25   11265   11262      24   11268   11262      24   11268   11265
      25   11274   11271      24   11277   11271      24   11277   11274      25
   11283   11280      24   11286   11280      24   11286   11283      25   11292
   11289      24   11295   11289      24   11295   11292      25   11301   11298
      24   11304   11298      24   11304   11301      25   11310   11307      24
   11313   11307      24   11313   11310      25   11319   11316      24   11322
   11316      24   11322   11319      25   11328   11325      24   11331   11325
      24   11331   11328      25   11337   11334      24   11340   11334      24
   11340   11337      25   11346   11343      24   11349   11343      24   11349
   11346      25   11355   11352      24   11358   11352      24   11358   11355
      25   11364   11361      24   11367   11361      24   11367   11364      25
   11373   11370      24   11376   11370      24   11376   11373      25   11382
   11379      24   11385   11379      24   11385   11382      25   11391   11388
      24   11394   11388      24   11394   11391      25   11400   11397      24
   11403   11397      24   11403   11400      25   11409   11406      24   11412
   11406      24   11412   11409      25   11418   11415      24   11421   11415
      24   11421   11418      25   11427   11424      24   11430   11424      24
   11430   11427      25   11436   11433      24   11439   11433      24   11439
   11436      25   11445   11442      24   11448   11442      24   11448   11445
      25   11454   11451      24   11457   11451      24   11457   11454      25
   11463   11460      24   11466   11460      24   11466   11463      25   11472
   11469      24   11475   11469      24   11475   11472      25   11481   11478
      24   11484   11478      24   11484   11481      25   11490   11487      24
   11493   11487      24   11493   11490      25   11499   11496      24   11502
   11496      24   11502   11499      25   11508   11505      24   11511   11505
      24   11511   11508      25   11517   11514      24   11520   11514      24
   11520   11517      25   11526   11523      24   11529   11523      24   11529
   11526      25   11535   11532      24   11538   11532      24   11538   11535
      25   11544   11541      24   11547   11541      24   11547   11544      25
   11553   11550      24   11556   11550      24   11556   11553      25   11562
   11559      24   11565   11559      24   11565   11562      25   11571   11568
      24   11574   11568      24   11574   11571      25   11580   11577      24
   11583   11577      24   11583   11580      25   11589   11586      24   11592
   11586      24   11592   11589      25   11598   11595      24   11601   11595
      24   11601   11598      25   11607   11604      24   11610   11604      24
   11610   11607      25   11616   11613      24   11619   11613      24   11619
   11616      25   11625   11622      24   11628   11622      24   11628   11625
      25   11634   11631      24   11637   11631      24   11637   11634      25
   11643   11640      24   11646   11640      24   11646   11643      25   11652
   11649      24   11655   11649      24   11655   11652      25   11661   11658
      24   11664   11658      24   11664   11661      25   11670   11667      24
   11673   11667      24   11673   11670      25   11679   11676      24   11682
   11676      24   11682   11679      25   11688   11685      24   11691   11685
      24   11691   11688      25   11697   11694      24   11700   11694      24
   11700   11697      25   11706   11703      24   11709   11703      24   11709
   11706      25   11715   11712      24   11718   11712      24   11718   11715
      25   11724   11721      24   11727   11721      24   11727   11724      25
   11733   11730      24   11736   11730      24   11736   11733      25   11742
   11739      24   11745   11739      24   11745   11742      25   11751   11748
      24   11754   11748      24   11754   11751      25   11760   11757      24
   11763   11757      24   11763   11760      25   11769   11766      24   11772
   11766      24   11772   11769      25   11778   11775      24   11781   11775
      24   11781   11778      25   11787   11784      24   11790   11784      24
   11790   11787      25   11796   11793      24   11799   11793      24   11799
   11796      25   11805   11802      24   11808   11802      24   11808   11805
      25   11814   11811      24   11817   11811      24   11817   11814      25
   11823   11820      24   11826   11820      24   11826   11823      25   11832
   11829      24   11835   11829      24   11835   11832      25   11841   11838
      24   11844   11838      24   11844   11841      25   11850   11847      24
   11853   11847      24   11853   11850      25   11859   11856      24   11862
   11856      24   11862   11859      25   11868   11865      24   11871   11865
      24   11871   11868      25   11877   11874      24   11880   11874      24
   11880   11877      25   11886   11883      24   11889   11883      24   11889
   11886      25   11895   11892      24   11898   11892      24   11898   11895
      25   11904   11901      24   11907   11901      24   11907   11904      25
   11913   11910      24   11916   11910      24   11916   11913      25   11922
   11919      24   11925   11919      24   11925   11922      25   11931   11928
      24   11934   11928      24   11934   11931      25   11940   11937      24
   11943   11937      24   11943   11940      25   11949   11946      24   11952
   11946      24   11952   11949      25   11958   11955      24   11961   11955
      24   11961   11958      25   11967   11964      24   11970   11964      24
   11970   11967      25   11976   11973      24   11979   11973      24   11979
   11976      25   11985   11982      24   11988   11982      24   11988   11985
      25   11994   11991      24   11997   11991      24   11997   11994      25
   12003   12000      24   12006   12000      24   12006   12003      25   12012
   12009      24   12015   12009      24   12015   12012      25   12021   12018
      24   12024   12018      24   12024   12021      25   12030   12027      24
   12033   12027      24   12033   12030      25   12039   12036      24   12042
   12036      24   12042   12039      25   12048   12045      24   12051   12045
      24   12051   12048      25   12057   12054      24   12060   12054      24
   12060   12057      25   12066   12063      24   12069   12063      24   12069
   12066      25   12075   12072      24   12078   12072      24   12078   12075
      25   12084   12081      24   12087   12081      24   12087   12084      25
   12093   12090      24   12096   12090      24   12096   12093      25   12102
   12099      24   12105   12099      24   12105   12102      25   12111   12108
      24   12114   12108      24   12114   12111      25   12120   12117      24
   12123   12117      24   12123   12120      25   12129   12126      24   12132
   12126      24   12132   12129      25   12138   12135      24   12141   12135
      24   12141   12138      25   12147   12144      24   12150   12144      24
   12150   12147      25   12156   12153      24   12159   12153      24   12159
   12156      25   12165   12162      24   12168   12162      24   12168   12165
      25   12174   12171      24   12177   12171      24   12177   12174      25
   12183   12180      24   12186   12180      24   12186   12183      25   12192
   12189      24   12195   12189      24   12195   12192      25   12201   12198
      24   12204   12198      24   12204   12201      25   12210   12207      24
   12213   12207      24   12213   12210      25   12219   12216      24   12222
   12216      24   12222   12219      25   12228   12225      24   12231   12225
      24   12231   12228      25   12237   12234      24   12240   12234      24
   12240   12237      25   12246   12243      24   12249   12243      24   12249
   12246      25   12255   12252      24   12258   12252      24   12258   12255
      25   12264   12261      24   12267   12261      24   12267   12264      25
   12273   12270      24   12276   12270      24   12276   12273      25   12282
   12279      24   12285   12279      24   12285   12282      25   12291   12288
      24   12294   12288      24   12294   12291      25   12300   12297      24
   12303   12297      24   12303   12300      25   12309   12306      24   12312
   12306      24   12312   12309      25   12318   12315      24   12321   12315
      24   12321   12318      25   12327   12324      24   12330   12324      24
   12330   12327      25   12336   12333      24   12339   12333      24   12339
   12336      25   12345   12342      24   12348   12342      24   12348   12345
      25   12354   12351      24   12357   12351      24   12357   12354      25
   12363   12360      24   12366   12360      24   12366   12363      25   12372
   12369      24   12375   12369      24   12375   12372      25   12381   12378
      24   12384   12378      24   12384   12381      25   12390   12387      24
   12393   12387      24   12393   12390      25   12399   12396      24   12402
   12396      24   12402   12399      25   12408   12405      24   12411   12405
      24   12411   12408      25   12417   12414      24   12420   12414      24
   12420   12417      25   12426   12423      24   12429   12423      24   12429
   12426      25   12435   12432      24   12438   12432      24   12438   12435
      25   12444   12441      24   12447   12441      24   12447   12444      25
   12453   12450      24   12456   12450      24   12456   12453      25   12462
   12459      24   12465   12459      24   12465   12462      25   12471   12468
      24   12474   12468      24   12474   12471      25   12480   12477      24
   12483   12477      24   12483   12480      25   12489   12486      24   12492
   12486      24   12492   12489      25   12498   12495      24   12501   12495
      24   12501   12498      25   12507   12504      24   12510   12504      24
   12510   12507      25   12516   12513      24   12519   12513      24   12519
   12516      25   12525   12522      24   12528   12522      24   12528   12525
      25   12534   12531      24   12537   12531      24   12537   12534      25
   12543   12540      24   12546   12540      24   12546   12543      25   12552
   12549      24   12555   12549      24   12555   12552      25   12561   12558
      24   12564   12558      24   12564   12561      25   12570   12567      24
   12573   12567      24   12573   12570      25   12579   12576      24   12582
   12576      24   12582   12579      25   12588   12585      24   12591   12585
      24   12591   12588      25   12597   12594      24   12600   12594      24
   12600   12597      25   12606   12603      24   12609   12603      24   12609
   12606      25   12615   12612      24   12618   12612      24   12618   12615
      25   12624   12621      24   12627   12621      24   12627   12624      25
   12633   12630      24   12636   12630      24   12636   12633      25   12642
   12639      24   12645   12639      24   12645   12642      25   12651   12648
      24   12654   12648      24   12654   12651      25   12660   12657      24
   12663   12657      24   12663   12660      25   12669   12666      24   12672
   12666      24   12672   12669      25   12678   12675      24   12681   12675
      24   12681   12678      25   12687   12684      24   12690   12684      24
   12690   12687      25   12696   12693      24   12699   12693      24   12699
   12696      25   12705   12702      24   12708   12702      24   12708   12705
      25   12714   12711      24   12717   12711      24   12717   12714      25
   12723   12720      24   12726   12720      24   12726   12723      25   12732
   12729      24   12735   12729      24   12735   12732      25   12741   12738
      24   12744   12738      24   12744   12741      25   12750   12747      24
   12753   12747      24   12753   12750      25   12759   12756      24   12762
   12756      24   12762   12759      25   12768   12765      24   12771   12765
      24   12771   12768      25   12777   12774      24   12780   12774      24
   12780   12777      25   12786   12783      24   12789   12783      24   12789
   12786      25   12795   12792      24   12798   12792      24   12798   12795
      25   12804   12801      24   12807   12801      24   12807   12804      25
   12813   12810      24   12816   12810      24   12816   12813      25   12822
   12819      24   12825   12819      24   12825   12822      25   12831   12828
      24   12834   12828      24   12834   12831      25   12840   12837      24
   12843   12837      24   12843   12840      25   12849   12846      24   12852
   12846      24   12852   12849      25   12858   12855      24   12861   12855
      24   12861   12858      25   12867   12864      24   12870   12864      24
   12870   12867      25   12876   12873      24   12879   12873      24   12879
   12876      25   12885   12882      24   12888   12882      24   12888   12885
      25   12894   12891      24   12897   12891      24   12897   12894      25
   12903   12900      24   12906   12900      24   12906   12903      25   12912
   12909      24   12915   12909      24   12915   12912      25   12921   12918
      24   12924   12918      24   12924   12921      25   12930   12927      24
   12933   12927      24   12933   12930      25   12939   12936      24   12942
   12936      24   12942   12939      25   12948   12945      24   12951   12945
      24   12951   12948      25   12957   12954      24   12960   12954      24
   12960   12957      25   12966   12963      24   12969   12963      24   12969
   12966      25   12975   12972      24   12978   12972      24   12978   12975
      25   12984   12981      24   12987   12981      24   12987   12984      25
   12993   12990      24   12996   12990      24   12996   12993      25   13002
   12999      24   13005   12999      24   13005   13002      25   13011   13008
      24   13014   13008      24   13014   13011      25   13020   13017      24
   13023   13017      24   13023   13020      25   13029   13026      24   13032
   13026      24   13032   13029      25   13038   13035      24   13041   13035
      24   13041   13038      25   13047   13044      24   13050   13044      24
   13050   13047      25   13056   13053      24   13059   13053      24   13059
   13056      25   13065   13062      24   13068   13062      24   13068   13065
      25   13074   13071      24   13077   13071      24   13077   13074      25
   13083   13080      24   13086   13080      24   13086   13083      25   13092
   13089      24   13095   13089      24   13095   13092      25   13101   13098
      24   13104   13098      24   13104   13101      25   13110   13107      24
   13113   13107      24   13113   13110      25   13119   13116      24   13122
   13116      24   13122   13119      25   13128   13125      24   13131   13125
      24   13131   13128      25   13137   13134      24   13140   13134      24
   13140   13137      25   13146   13143      24   13149   13143      24   13149
   13146      25   13155   13152      24   13158   13152      24   13158   13155
      25   13164   13161      24   13167   13161      24   13167   13164      25
   13173   13170      24   13176   13170      24   13176   13173      25   13182
   13179      24   13185   13179      24   13185   13182      25   13191   13188
      24   13194   13188      24   13194   13191      25   13200   13197      24
   13203   13197      24   13203   13200      25   13209   13206      24   13212
   13206      24   13212   13209      25   13218   13215      24   13221   13215
      24   13221   13218      25   13227   13224      24   13230   13224      24
   13230   13227      25   13236   13233      24   13239   13233      24   13239
   13236      25   13245   13242      24   13248   13242      24   13248   13245
      25   13254   13251      24   13257   13251      24   13257   13254      25
   13263   13260      24   13266   13260      24   13266   13263      25   13272
   13269      24   13275   13269      24   13275   13272      25   13281   13278
      24   13284   13278      24   13284   13281      25   13290   13287      24
   13293   13287      24   13293   13290      25   13299   13296      24   13302
   13296      24   13302   13299      25   13308   13305      24   13311   13305
      24   13311   13308      25   13317   13314      24   13320   13314      24
   13320   13317      25   13326   13323      24   13329   13323      24   13329
   13326      25   13335   13332      24   13338   13332      24   13338   13335
      25   13344   13341      24   13347   13341      24   13347   13344      25
   13353   13350      24   13356   13350      24   13356   13353      25   13362
   13359      24   13365   13359      24   13365   13362      25   13371   13368
      24   13374   13368      24   13374   13371      25   13380   13377      24
   13383   13377      24   13383   13380      25   13389   13386      24   13392
   13386      24   13392   13389      25   13398   13395      24   13401   13395
      24   13401   13398      25   13407   13404      24   13410   13404      24
   13410   13407      25   13416   13413      24   13419   13413      24   13419
   13416      25   13425   13422      24   13428   13422      24   13428   13425
      25   13434   13431      24   13437   13431      24   13437   13434      25
   13443   13440      24   13446   13440      24   13446   13443      25   13452
   13449      24   13455   13449      24   13455   13452      25   13461   13458
      24   13464   13458      24   13464   13461      25   13470   13467      24
   13473   13467      24   13473   13470      25   13479   13476      24   13482
   13476      24   13482   13479      25   13488   13485      24   13491   13485
      24   13491   13488      25   13497   13494      24   13500   13494      24
   13500   13497      25   13506   13503      24   13509   13503      24   13509
   13506      25   13515   13512      24   13518   13512      24   13518   13515
      25   13524   13521      24   13527   13521      24   13527   13524      25
   13533   13530      24   13536   13530      24   13536   13533      25   13542
   13539      24   13545   13539      24   13545   13542      25   13551   13548
      24   13554   13548      24   13554   13551      25   13560   13557      24
   13563   13557      24   13563   13560      25   13569   13566      24   13572
   13566      24   13572   13569      25   13578   13575      24   13581   13575
      24   13581   13578      25   13587   13584      24   13590   13584      24
   13590   13587      25   13596   13593      24   13599   13593      24   13599
   13596      25   13605   13602      24   13608   13602      24   13608   13605
      25   13614   13611      24   13617   13611      24   13617   13614      25
   13623   13620      24   13626   13620      24   13626   13623      25   13632
   13629      24   13635   13629      24   13635   13632      25   13641   13638
      24   13644   13638      24   13644   13641      25   13650   13647      24
   13653   13647      24   13653   13650      25   13659   13656      24   13662
   13656      24   13662   13659      25   13668   13665      24   13671   13665
      24   13671   13668      25   13677   13674      24   13680   13674      24
   13680   13677      25   13686   13683      24   13689   13683      24   13689
   13686      25   13695   13692      24   13698   13692      24   13698   13695
      25   13704   13701      24   13707   13701      24   13707   13704      25
   13713   13710      24   13716   13710      24   13716   13713      25   13722
   13719      24   13725   13719      24   13725   13722      25   13731   13728
      24   13734   13728      24   13734   13731      25   13740   13737      24
   13743   13737      24   13743   13740      25   13749   13746      24   13752
   13746      24   13752   13749      25   13758   13755      24   13761   13755
      24   13761   13758      25   13767   13764      24   13770   13764      24
   13770   13767      25   13776   13773      24   13779   13773      24   13779
   13776      25   13785   13782      24   13788   13782      24   13788   13785
      25   13794   13791      24   13797   13791      24   13797   13794      25
   13803   13800      24   13806   13800      24   13806   13803      25   13812
   13809      24   13815   13809      24   13815   13812      25   13821   13818
      24   13824   13818      24   13824   13821      25   13830   13827      24
   13833   13827      24   13833   13830      25   13839   13836      24   13842
   13836      24   13842   13839      25   13848   13845      24   13851   13845
      24   13851   13848      25   13857   13854      24   13860   13854      24
   13860   13857      25   13866   13863      24   13869   13863      24   13869
   13866      25   13875   13872      24   13878   13872      24   13878   13875
      25   13884   13881      24   13887   13881      24   13887   13884      25
   13893   13890      24   13896   13890      24   13896   13893      25   13902
   13899      24   13905   13899      24   13905   13902      25   13911   13908
      24   13914   13908      24   13914   13911      25   13920   13917      24
   13923   13917      24   13923   13920      25   13929   13926      24   13932
   13926      24   13932   13929      25   13938   13935      24   13941   13935
      24   13941   13938      25   13947   13944      24   13950   13944      24
   13950   13947      25   13956   13953      24   13959   13953      24   13959
   13956      25   13965   13962      24   13968   13962      24   13968   13965
      25   13974   13971      24   13977   13971      24   13977   13974      25
   13983   13980      24   13986   13980      24   13986   13983      25   13992
   13989      24   13995   13989      24   13995   13992      25   14001   13998
      24   14004   13998      24   14004   14001      25   14010   14007      24
   14013   14007      24   14013   14010      25   14019   14016      24   14022
   14016      24   14022   14019      25   14028   14025      24   14031   14025
      24   14031   14028      25   14037   14034      24   14040   14034      24
   14040   14037      25   14046   14043      24   14049   14043      24   14049
   14046      25   14055   14052      24   14058   14052      24   14058   14055
      25   14064   14061      24   14067   14061      24   14067   14064      25
   14073   14070      24   14076   14070      24   14076   14073      25   14082
   14079      24   14085   14079      24   14085   14082      25   14091   14088
      24   14094   14088      24   14094   14091      25   14100   14097      24
   14103   14097      24   14103   14100      25   14109   14106      24   14112
   14106      24   14112   14109      25   14118   14115      24   14121   14115
      24   14121   14118      25   14127   14124      24   14130   14124      24
   14130   14127      25   14136   14133      24   14139   14133      24   14139
   14136      25   14145   14142      24   14148   14142      24   14148   14145
      25   14154   14151      24   14157   14151      24   14157   14154      25
   14163   14160      24   14166   14160      24   14166   14163      25   14172
   14169      24   14175   14169      24   14175   14172      25   14181   14178
      24   14184   14178      24   14184   14181      25   14190   14187      24
   14193   14187      24   14193   14190      25   14199   14196      24   14202
   14196      24   14202   14199      25   14208   14205      24   14211   14205
      24   14211   14208      25   14217   14214      24   14220   14214      24
   14220   14217      25   14226   14223      24   14229   14223      24   14229
   14226      25   14235   14232      24   14238   14232      24   14238   14235
      25   14244   14241      24   14247   14241      24   14247   14244      25
   14253   14250      24   14256   14250      24   14256   14253      25   14262
   14259      24   14265   14259      24   14265   14262      25   14271   14268
      24   14274   14268      24   14274   14271      25   14280   14277      24
   14283   14277      24   14283   14280      25   14289   14286      24   14292
   14286      24   14292   14289      25   14298   14295      24   14301   14295
      24   14301   14298      25   14307   14304      24   14310   14304      24
   14310   14307      25   14316   14313      24   14319   14313      24   14319
   14316      25   14325   14322      24   14328   14322      24   14328   14325
      25   14334   14331      24   14337   14331      24   14337   14334      25
   14343   14340      24   14346   14340      24   14346   14343      25   14352
   14349      24   14355   14349      24   14355   14352      25   14361   14358
      24   14364   14358      24   14364   14361      25   14370   14367      24
   14373   14367      24   14373   14370      25   14379   14376      24   14382
   14376      24   14382   14379      25   14388   14385      24   14391   14385
      24   14391   14388      25   14397   14394      24   14400   14394      24
   14400   14397      25   14406   14403      24   14409   14403      24   14409
   14406      25   14415   14412      24   14418   14412      24   14418   14415
      25   14424   14421      24   14427   14421      24   14427   14424      25
   14433   14430      24   14436   14430      24   14436   14433      25   14442
   14439      24   14445   14439      24   14445   14442      25   14451   14448
      24   14454   14448      24   14454   14451      25   14460   14457      24
   14463   14457      24   14463   14460      25   14469   14466      24   14472
   14466      24   14472   14469      25   14478   14475      24   14481   14475
      24   14481   14478      25   14487   14484      24   14490   14484      24
   14490   14487      25   14496   14493      24   14499   14493      24   14499
   14496      25   14505   14502      24   14508   14502      24   14508   14505
      25   14514   14511      24   14517   14511      24   14517   14514      25
   14523   14520      24   14526   14520      24   14526   14523      25   14532
   14529      24   14535   14529      24   14535   14532      25   14541   14538
      24   14544   14538      24   14544   14541      25   14550   14547      24
   14553   14547      24   14553   14550      25   14559   14556      24   14562
   14556      24   14562   14559      25   14568   14565      24   14571   14565
      24   14571   14568      25   14577   14574      24   14580   14574      24
   14580   14577      25   14586   14583      24   14589   14583      24   14589
   14586      25   14595   14592      24   14598   14592      24   14598   14595
      25   14604   14601      24   14607   14601      24   14607   14604      25
   14613   14610      24   14616   14610      24   14616   14613      25   14622
   14619      24   14625   14619      24   14625   14622      25   14631   14628
      24   14634   14628      24   14634   14631      25   14640   14637      24
   14643   14637      24   14643   14640      25   14649   14646      24   14652
   14646      24   14652   14649      25   14658   14655      24   14661   14655
      24   14661   14658      25   14667   14664      24   14670   14664      24
   14670   14667      25   14676   14673      24   14679   14673      24   14679
   14676      25   14685   14682      24   14688   14682      24   14688   14685
      25   14694   14691      24   14697   14691      24   14697   14694      25
   14703   14700      24   14706   14700      24   14706   14703      25   14712
   14709      24   14715   14709      24   14715   14712      25   14721   14718
      24   14724   14718      24   14724   14721      25   14730   14727      24
   14733   14727      24   14733   14730      25   14739   14736      24   14742
   14736      24   14742   14739      25   14748   14745      24   14751   14745
      24   14751   14748      25   14757   14754      24   14760   14754      24
   14760   14757      25   14766   14763      24   14769   14763      24   14769
   14766      25   14775   14772      24   14778   14772      24   14778   14775
      25   14784   14781      24   14787   14781      24   14787   14784      25
   14793   14790      24   14796   14790      24   14796   14793      25   14802
   14799      24   14805   14799      24   14805   14802      25   14811   14808
      24   14814   14808      24   14814   14811      25   14820   14817      24
   14823   14817      24   14823   14820      25   14829   14826      24   14832
   14826      24   14832   14829      25   14838   14835      24   14841   14835
      24   14841   14838      25   14847   14844      24   14850   14844      24
   14850   14847      25   14856   14853      24   14859   14853      24   14859
   14856      25   14865   14862      24   14868   14862      24   14868   14865
      25   14874   14871      24   14877   14871      24   14877   14874      25
   14883   14880      24   14886   14880      24   14886   14883      25   14892
   14889      24   14895   14889      24   14895   14892      25   14901   14898
      24   14904   14898      24   14904   14901      25   14910   14907      24
   14913   14907      24   14913   14910      25   14919   14916      24   14922
   14916      24   14922   14919      25   14928   14925      24   14931   14925
      24   14931   14928      25   14937   14934      24   14940   14934      24
   14940   14937      25   14946   14943      24   14949   14943      24   14949
   14946      25   14955   14952      24   14958   14952      24   14958   14955
      25   14964   14961      24   14967   14961      24   14967   14964      25
   14973   14970      24   14976   14970      24   14976   14973      25   14982
   14979      24   14985   14979      24   14985   14982      25   14991   14988
      24   14994   14988      24   14994   14991      25   15000   14997      24
   15003   14997      24   15003   15000      25   15009   15006      24   15012
   15006      24   15012   15009      25   15018   15015      24   15021   15015
      24   15021   15018      25   15027   15024      24   15030   15024      24
   15030   15027      25   15036   15033      24   15039   15033      24   15039
   15036      25   15045   15042      24   15048   15042      24   15048   15045
      25   15054   15051      24   15057   15051      24   15057   15054      25
   15063   15060      24   15066   15060      24   15066   15063      25   15072
   15069      24   15075   15069      24   15075   15072      25   15081   15078
      24   15084   15078      24   15084   15081      25   15090   15087      24
   15093   15087      24   15093   15090      25   15099   15096      24   15102
   15096      24   15102   15099      25   15108   15105      24   15111   15105
      24   15111   15108      25   15117   15114      24   15120   15114      24
   15120   15117      25   15126   15123      24   15129   15123      24   15129
   15126      25   15135   15132      24   15138   15132      24   15138   15135
      25   15144   15141      24   15147   15141      24   15147   15144      25
   15153   15150      24   15156   15150      24   15156   15153      25   15162
   15159      24   15165   15159      24   15165   15162      25   15171   15168
      24   15174   15168      24   15174   15171      25   15180   15177      24
   15183   15177      24   15183   15180      25   15189   15186      24   15192
   15186      24   15192   15189      25   15198   15195      24   15201   15195
      24   15201   15198      25   15207   15204      24   15210   15204      24
   15210   15207      25   15216   15213      24   15219   15213      24   15219
   15216      25   15225   15222      24   15228   15222      24   15228   15225
      25   15234   15231      24   15237   15231      24   15237   15234      25
   15243   15240      24   15246   15240      24   15246   15243      25   15252
   15249      24   15255   15249      24   15255   15252      25   15261   15258
      24   15264   15258      24   15264   15261      25   15270   15267      24
   15273   15267      24   15273   15270      25   15279   15276      24   15282
   15276      24   15282   15279      25   15288   15285      24   15291   15285
      24   15291   15288      25   15297   15294      24   15300   15294      24
   15300   15297      25   15306   15303      24   15309   15303      24   15309
   15306      25   15315   15312      24   15318   15312      24   15318   15315
      25   15324   15321      24   15327   15321      24   15327   15324      25
   15333   15330      24   15336   15330      24   15336   15333      25   15342
   15339      24   15345   15339      24   15345   15342      25   15351   15348
      24   15354   15348      24   15354   15351      25   15360   15357      24
   15363   15357      24   15363   15360      25   15369   15366      24   15372
   15366      24   15372   15369      25   15378   15375      24   15381   15375
      24   15381   15378      25   15387   15384      24   15390   15384      24
   15390   15387      25   15396   15393      24   15399   15393      24   15399
   15396      25   15405   15402      24   15408   15402      24   15408   15405
      25   15414   15411      24   15417   15411      24   15417   15414      25
   15423   15420      24   15426   15420      24   15426   15423      25   15432
   15429      24   15435   15429      24   15435   15432      25   15441   15438
      24   15444   15438      24   15444   15441      25   15450   15447      24
   15453   15447      24   15453   15450      25   15459   15456      24   15462
   15456      24   15462   15459      25   15468   15465      24   15471   15465
      24   15471   15468      25   15477   15474      24   15480   15474      24
   15480   15477      25   15486   15483      24   15489   15483      24   15489
   15486      25   15495   15492      24   15498   15492      24   15498   15495
      25   15504   15501      24   15507   15501      24   15507   15504      25
   15513   15510      24   15516   15510      24   15516   15513      25   15522
   15519      24   15525   15519      24   15525   15522      25   15531   15528
      24   15534   15528      24   15534   15531      25   15540   15537      24
   15543   15537      24   15543   15540      25   15549   15546      24   15552
   15546      24   15552   15549      25   15558   15555      24   15561   15555
      24   15561   15558      25   15567   15564      24   15570   15564      24
   15570   15567      25   15576   15573      24   15579   15573      24   15579
   15576      25   15585   15582      24   15588   15582      24   15588   15585
      25   15594   15591      24   15597   15591      24   15597   15594      25
   15603   15600      24   15606   15600      24   15606   15603      25   15612
   15609      24   15615   15609      24   15615   15612      25   15621   15618
      24   15624   15618      24   15624   15621      25   15630   15627      24
   15633   15627      24   15633   15630      25   15639   15636      24   15642
   15636      24   15642   15639      25   15648   15645      24   15651   15645
      24   15651   15648      25   15657   15654      24   15660   15654      24
   15660   15657      25   15666   15663      24   15669   15663      24   15669
   15666      25   15675   15672      24   15678   15672      24   15678   15675
      25   15684   15681      24   15687   15681      24   15687   15684      25
   15693   15690      24   15696   15690      24   15696   15693      25   15702
   15699      24   15705   15699      24   15705   15702      25   15711   15708
      24   15714   15708      24   15714   15711      25   15720   15717      24
   15723   15717      24   15723   15720      25   15729   15726      24   15732
   15726      24   15732   15729      25   15738   15735      24   15741   15735
      24   15741   15738      25   15747   15744      24   15750   15744      24
   15750   15747      25   15756   15753      24   15759   15753      24   15759
   15756      25   15765   15762      24   15768   15762      24   15768   15765
      25   15774   15771      24   15777   15771      24   15777   15774      25
   15783   15780      24   15786   15780      24   15786   15783      25   15792
   15789      24   15795   15789      24   15795   15792      25   15801   15798
      24   15804   15798      24   15804   15801      25   15810   15807      24
   15813   15807      24   15813   15810      25   15819   15816      24   15822
   15816      24   15822   15819      25   15828   15825      24   15831   15825
      24   15831   15828      25   15837   15834      24   15840   15834      24
   15840   15837      25   15846   15843      24   15849   15843      24   15849
   15846      25   15855   15852      24   15858   15852      24   15858   15855
      25   15864   15861      24   15867   15861      24   15867   15864      25
   15873   15870      24   15876   15870      24   15876   15873      25   15882
   15879      24   15885   15879      24   15885   15882      25   15891   15888
      24   15894   15888      24   15894   15891      25   15900   15897      24
   15903   15897      24   15903   15900      25   15909   15906      24   15912
   15906      24   15912   15909      25   15918   15915      24   15921   15915
      24   15921   15918      25   15927   15924      24   15930   15924      24
   15930   15927      25   15936   15933      24   15939   15933      24   15939
   15936      25   15945   15942      24   15948   15942      24   15948   15945
      25   15954   15951      24   15957   15951      24   15957   15954      25
   15963   15960      24   15966   15960      24   15966   15963      25   15972
   15969      24   15975   15969      24   15975   15972      25   15981   15978
      24   15984   15978      24   15984   15981      25   15990   15987      24
   15993   15987      24   15993   15990      25   15999   15996      24   16002
   15996      24   16002   15999      25   16008   16005      24   16011   16005
      24   16011   16008      25   16017   16014      24   16020   16014      24
   16020   16017      25   16026   16023      24   16029   16023      24   16029
   16026      25   16035   16032      24   16038   16032      24   16038   16035
      25   16044   16041      24   16047   16041      24   16047   16044      25
   16053   16050      24   16056   16050      24   16056   16053      25   16062
   16059      24   16065   16059      24   16065   16062      25   16071   16068
      24   16074   16068      24   16074   16071      25   16080   16077      24
   16083   16077      24   16083   16080      25   16089   16086      24   16092
   16086      24   16092   16089      25   16098   16095      24   16101   16095
      24   16101   16098      25   16107   16104      24   16110   16104      24
   16110   16107      25   16116   16113      24   16119   16113      24   16119
   16116      25   16125   16122      24   16128   16122      24   16128   16125
      25   16134   16131      24   16137   16131      24   16137   16134      25
   16143   16140      24   16146   16140      24   16146   16143      25   16152
   16149      24   16155   16149      24   16155   16152      25   16161   16158
      24   16164   16158      24   16164   16161      25   16170   16167      24
   16173   16167      24   16173   16170      25   16179   16176      24   16182
   16176      24   16182   16179      25   16188   16185      24   16191   16185
      24   16191   16188      25   16197   16194      24   16200   16194      24
   16200   16197      25   16206   16203      24   16209   16203      24   16209
   16206      25   16215   16212      24   16218   16212      24   16218   16215
      25   16224   16221      24   16227   16221      24   16227   16224      25
   16233   16230      24   16236   16230      24   16236   16233      25   16242
   16239      24   16245   16239      24   16245   16242      25   16251   16248
      24   16254   16248      24   16254   16251      25   16260   16257      24
   16263   16257      24   16263   16260      25   16269   16266      24   16272
   16266      24   16272   16269      25   16278   16275      24   16281   16275
      24   16281   16278      25   16287   16284      24   16290   16284      24
   16290   16287      25   16296   16293      24   16299   16293      24   16299
   16296      25   16305   16302      24   16308   16302      24   16308   16305
      25   16314   16311      24   16317   16311      24   16317   16314      25
   16323   16320      24   16326   16320      24   16326   16323      25   16332
   16329      24   16335   16329      24   16335   16332      25   16341   16338
      24   16344   16338      24   16344   16341      25   16350   16347      24
   16353   16347      24   16353   16350      25   16359   16356      24   16362
   16356      24   16362   16359      25   16368   16365      24   16371   16365
      24   16371   16368      25   16377   16374      24   16380   16374      24
   16380   16377      25   16386   16383      24   16389   16383      24   16389
   16386      25   16395   16392      24   16398   16392      24   16398   16395
      25   16404   16401      24   16407   16401      24   16407   16404      25
   16413   16410      24   16416   16410      24   16416   16413      25   16422
   16419      24   16425   16419      24   16425   16422      25   16431   16428
      24   16434   16428      24   16434   16431      25   16440   16437      24
   16443   16437      24   16443   16440      25   16449   16446      24   16452
   16446      24   16452   16449      25   16458   16455      24   16461   16455
      24   16461   16458      25   16467   16464      24   16470   16464      24
   16470   16467      25   16476   16473      24   16479   16473      24   16479
   16476      25   16485   16482      24   16488   16482      24   16488   16485
      25   16494   16491      24   16497   16491      24   16497   16494      25
   16503   16500      24   16506   16500      24   16506   16503      25   16512
   16509      24   16515   16509      24   16515   16512      25   16521   16518
      24   16524   16518      24   16524   16521      25   16530   16527      24
   16533   16527      24   16533   16530      25   16539   16536      24   16542
   16536      24   16542   16539      25   16548   16545      24   16551   16545
      24   16551   16548      25   16557   16554      24   16560   16554      24
   16560   16557      25   16566   16563      24   16569   16563      24   16569
   16566      25   16575   16572      24   16578   16572      24   16578   16575
      25   16584   16581      24   16587   16581      24   16587   16584      25
   16593   16590      24   16596   16590      24   16596   16593      25   16602
   16599      24   16605   16599      24   16605   16602      25   16611   16608
      24   16614   16608      24   16614   16611      25   16620   16617      24
   16623   16617      24   16623   16620      25   16629   16626      24   16632
   16626      24   16632   16629      25   16638   16635      24   16641   16635
      24   16641   16638      25   16647   16644      24   16650   16644      24
   16650   16647      25   16656   16653      24   16659   16653      24   16659
   16656      25   16665   16662      24   16668   16662      24   16668   16665
      25   16674   16671      24   16677   16671      24   16677   16674      25
   16683   16680      24   16686   16680      24   16686   16683      25   16692
   16689      24   16695   16689      24   16695   16692      25   16701   16698
      24   16704   16698      24   16704   16701      25   16710   16707      24
   16713   16707      24   16713   16710      25   16719   16716      24   16722
   16716      24   16722   16719      25   16728   16725      24   16731   16725
      24   16731   16728      25   16737   16734      24   16740   16734      24
   16740   16737      25   16746   16743      24   16749   16743      24   16749
   16746      25   16755   16752      24   16758   16752      24   16758   16755
      25   16764   16761      24   16767   16761      24   16767   16764      25
   16773   16770      24   16776   16770      24   16776   16773      25   16782
   16779      24   16785   16779      24   16785   16782      25   16791   16788
      24   16794   16788      24   16794   16791      25   16800   16797      24
   16803   16797      24   16803   16800      25   16809   16806      24   16812
   16806      24   16812   16809      25   16818   16815      24   16821   16815
      24   16821   16818      25   16827   16824      24   16830   16824      24
   16830   16827      25   16836   16833      24   16839   16833      24   16839
   16836      25   16845   16842      24   16848   16842      24   16848   16845
      25   16854   16851      24   16857   16851      24   16857   16854      25
   16863   16860      24   16866   16860      24   16866   16863      25   16872
   16869      24   16875   16869      24   16875   16872      25   16881   16878
      24   16884   16878      24   16884   16881      25   16890   16887      24
   16893   16887      24   16893   16890      25   16899   16896      24   16902
   16896      24   16902   16899      25   16908   16905      24   16911   16905
      24   16911   16908      25   16917   16914      24   16920   16914      24
   16920   16917      25   16926   16923      24   16929   16923      24   16929
   16926      25   16935   16932      24   16938   16932      24   16938   16935
      25   16944   16941      24   16947   16941      24   16947   16944      25
   16953   16950      24   16956   16950      24   16956   16953      25   16962
   16959      24   16965   16959      24   16965   16962      25   16971   16968
      24   16974   16968      24   16974   16971      25   16980   16977      24
   16983   16977      24   16983   16980      25   16989   16986      24   16992
   16986      24   16992   16989      25   16998   16995      24   17001   16995
      24   17001   16998      25   17007   17004      24   17010   17004      24
   17010   17007      25   17016   17013      24   17019   17013      24   17019
   17016      25   17025   17022      24   17028   17022      24   17028   17025
      25   17034   17031      24   17037   17031      24   17037   17034      25
   17043   17040      24   17046   17040      24   17046   17043      25   17052
   17049      24   17055   17049      24   17055   17052      25   17061   17058
      24   17064   17058      24   17064   17061      25   17070   17067      24
   17073   17067      24   17073   17070      25   17079   17076      24   17082
   17076      24   17082   17079      25   17088   17085      24   17091   17085
      24   17091   17088      25   17097   17094      24   17100   17094      24
   17100   17097      25   17106   17103      24   17109   17103      24   17109
   17106      25   17115   17112      24   17118   17112      24   17118   17115
      25   17124   17121      24   17127   17121      24   17127   17124      25
   17133   17130      24   17136   17130      24   17136   17133      25   17142
   17139      24   17145   17139      24   17145   17142      25   17151   17148
      24   17154   17148      24   17154   17151      25   17160   17157      24
   17163   17157      24   17163   17160      25   17169   17166      24   17172
   17166      24   17172   17169      25   17178   17175      24   17181   17175
      24   17181   17178      25   17187   17184      24   17190   17184      24
   17190   17187      25   17196   17193      24   17199   17193      24   17199
   17196      25   17205   17202      24   17208   17202      24   17208   17205
      25   17214   17211      24   17217   17211      24   17217   17214      25
   17223   17220      24   17226   17220      24   17226   17223      25   17232
   17229      24   17235   17229      24   17235   17232      25   17241   17238
      24   17244   17238      24   17244   17241      25   17250   17247      24
   17253   17247      24   17253   17250      25   17259   17256      24   17262
   17256      24   17262   17259      25   17268   17265      24   17271   17265
      24   17271   17268      25   17277   17274      24   17280   17274      24
   17280   17277      25   17286   17283      24   17289   17283      24   17289
   17286      25   17295   17292      24   17298   17292      24   17298   17295
      25   17304   17301      24   17307   17301      24   17307   17304      25
   17313   17310      24   17316   17310      24   17316   17313      25   17322
   17319      24   17325   17319      24   17325   17322      25   17331   17328
      24   17334   17328      24   17334   17331      25   17340   17337      24
   17343   17337      24   17343   17340      25   17349   17346      24   17352
   17346      24   17352   17349      25   17358   17355      24   17361   17355
      24   17361   17358      25   17367   17364      24   17370   17364      24
   17370   17367      25   17376   17373      24   17379   17373      24   17379
   17376      25   17385   17382      24   17388   17382      24   17388   17385
      25   17394   17391      24   17397   17391      24   17397   17394      25
   17403   17400      24   17406   17400      24   17406   17403      25   17412
   17409      24   17415   17409      24   17415   17412      25   17421   17418
      24   17424   17418      24   17424   17421      25   17430   17427      24
   17433   17427      24   17433   17430      25   17439   17436      24   17442
   17436      24   17442   17439      25   17448   17445      24   17451   17445
      24   17451   17448      25   17457   17454      24   17460   17454      24
   17460   17457      25   17466   17463      24   17469   17463      24   17469
   17466      25   17475   17472      24   17478   17472      24   17478   17475
      25   17484   17481      24   17487   17481      24   17487   17484      25
   17493   17490      24   17496   17490      24   17496   17493      25   17502
   17499      24   17505   17499      24   17505   17502      25   17511   17508
      24   17514   17508      24   17514   17511      25   17520   17517      24
   17523   17517      24   17523   17520      25   17529   17526      24   17532
   17526      24   17532   17529      25   17538   17535      24   17541   17535
      24   17541   17538      25   17547   17544      24   17550   17544      24
   17550   17547      25   17556   17553      24   17559   17553      24   17559
   17556      25   17565   17562      24   17568   17562      24   17568   17565
      25   17574   17571      24   17577   17571      24   17577   17574      25
   17583   17580      24   17586   17580      24   17586   17583      25   17592
   17589      24   17595   17589      24   17595   17592      25   17601   17598
      24   17604   17598      24   17604   17601      25   17610   17607      24
   17613   17607      24   17613   17610      25   17619   17616      24   17622
   17616      24   17622   17619      25   17628   17625      24   17631   17625
      24   17631   17628      25   17637   17634      24   17640   17634      24
   17640   17637      25   17646   17643      24   17649   17643      24   17649
   17646      25   17655   17652      24   17658   17652      24   17658   17655
      25   17664   17661      24   17667   17661      24   17667   17664      25
   17673   17670      24   17676   17670      24   17676   17673      25   17682
   17679      24   17685   17679      24   17685   17682      25   17691   17688
      24   17694   17688      24   17694   17691      25   17700   17697      24
   17703   17697      24   17703   17700      25   17709   17706      24   17712
   17706      24   17712   17709      25   17718   17715      24   17721   17715
      24   17721   17718      25   17727   17724      24   17730   17724      24
   17730   17727      25   17736   17733      24   17739   17733      24   17739
   17736      25   17745   17742      24   17748   17742      24   17748   17745
      25   17754   17751      24   17757   17751      24   17757   17754      25
   17763   17760      24   17766   17760      24   17766   17763      25   17772
   17769      24   17775   17769      24   17775   17772      25   17781   17778
      24   17784   17778      24   17784   17781      25   17790   17787      24
   17793   17787      24   17793   17790      25   17799   17796      24   17802
   17796      24   17802   17799      25   17808   17805      24   17811   17805
      24   17811   17808      25   17817   17814      24   17820   17814      24
   17820   17817      25   17826   17823      24   17829   17823      24   17829
   17826      25   17835   17832      24   17838   17832      24   17838   17835
      25   17844   17841      24   17847   17841      24   17847   17844      25
   17853   17850      24   17856   17850      24   17856   17853      25   17862
   17859      24   17865   17859      24   17865   17862      25   17871   17868
      24   17874   17868      24   17874   17871      25   17880   17877      24
   17883   17877      24   17883   17880      25   17889   17886      24   17892
   17886      24   17892   17889      25   17898   17895      24   17901   17895
      24   17901   17898      25   17907   17904      24   17910   17904      24
   17910   17907      25   17916   17913      24   17919   17913      24   17919
   17916      25   17925   17922      24   17928   17922      24   17928   17925
      25   17934   17931      24   17937   17931      24   17937   17934      25
   17943   17940      24   17946   17940      24   17946   17943      25   17952
   17949      24   17955   17949      24   17955   17952      25   17961   17958
      24   17964   17958      24   17964   17961      25   17970   17967      24
   17973   17967      24   17973   17970      25   17979   17976      24   17982
   17976      24   17982   17979      25   17988   17985      24   17991   17985
      24   17991   17988      25   17997   17994      24   18000   17994      24
   18000   17997      25   18006   18003      24   18009   18003      24   18009
   18006      25   18015   18012      24   18018   18012      24   18018   18015
      25   18024   18021      24   18027   18021      24   18027   18024      25
   18033   18030      24   18036   18030      24   18036   18033      25   18042
   18039      24   18045   18039      24   18045   18042      25   18051   18048
      24   18054   18048      24   18054   18051      25   18060   18057      24
   18063   18057      24   18063   18060      25   18069   18066      24   18072
   18066      24   18072   18069      25   18078   18075      24   18081   18075
      24   18081   18078      25   18087   18084      24   18090   18084      24
   18090   18087      25   18096   18093      24   18099   18093      24   18099
   18096      25   18105   18102      24   18108   18102      24   18108   18105
      25   18114   18111      24   18117   18111      24   18117   18114      25
   18123   18120      24   18126   18120      24   18126   18123      25   18132
   18129      24   18135   18129      24   18135   18132      25   18141   18138
      24   18144   18138      24   18144   18141      25   18150   18147      24
   18153   18147      24   18153   18150      25   18159   18156      24   18162
   18156      24   18162   18159      25   18168   18165      24   18171   18165
      24   18171   18168      25   18177   18174      24   18180   18174      24
   18180   18177      25   18186   18183      24   18189   18183      24   18189
   18186      25   18195   18192      24   18198   18192      24   18198   18195
      25   18204   18201      24   18207   18201      24   18207   18204      25
   18213   18210      24   18216   18210      24   18216   18213      25   18222
   18219      24   18225   18219      24   18225   18222      25   18231   18228
      24   18234   18228      24   18234   18231      25   18240   18237      24
   18243   18237      24   18243   18240      25   18249   18246      24   18252
   18246      24   18252   18249      25   18258   18255      24   18261   18255
      24   18261   18258      25   18267   18264      24   18270   18264      24
   18270   18267      25   18276   18273      24   18279   18273      24   18279
   18276      25   18285   18282      24   18288   18282      24   18288   18285
      25   18294   18291      24   18297   18291      24   18297   18294      25
   18303   18300      24   18306   18300      24   18306   18303      25   18312
   18309      24   18315   18309      24   18315   18312      25   18321   18318
      24   18324   18318      24   18324   18321      25   18330   18327      24
   18333   18327      24   18333   18330      25   18339   18336      24   18342
   18336      24   18342   18339      25   18348   18345      24   18351   18345
      24   18351   18348      25   18357   18354      24   18360   18354      24
   18360   18357      25   18366   18363      24   18369   18363      24   18369
   18366      25   18375   18372      24   18378   18372      24   18378   18375
      25   18384   18381      24   18387   18381      24   18387   18384      25
   18393   18390      24   18396   18390      24   18396   18393      25   18402
   18399      24   18405   18399      24   18405   18402      25   18411   18408
      24   18414   18408      24   18414   18411      25   18420   18417      24
   18423   18417      24   18423   18420      25   18429   18426      24   18432
   18426      24   18432   18429      25   18438   18435      24   18441   18435
      24   18441   18438      25   18447   18444      24   18450   18444      24
   18450   18447      25   18456   18453      24   18459   18453      24   18459
   18456      25   18465   18462      24   18468   18462      24   18468   18465
      25   18474   18471      24   18477   18471      24   18477   18474      25
   18483   18480      24   18486   18480      24   18486   18483      25   18492
   18489      24   18495   18489      24   18495   18492      25   18501   18498
      24   18504   18498      24   18504   18501      25   18510   18507      24
   18513   18507      24   18513   18510      25   18519   18516      24   18522
   18516      24   18522   18519      25   18528   18525      24   18531   18525
      24   18531   18528      25   18537   18534      24   18540   18534      24
   18540   18537      25   18546   18543      24   18549   18543      24   18549
   18546      25   18555   18552      24   18558   18552      24   18558   18555
      25   18564   18561      24   18567   18561      24   18567   18564      25
   18573   18570      24   18576   18570      24   18576   18573      25   18582
   18579      24   18585   18579      24   18585   18582      25   18591   18588
      24   18594   18588      24   18594   18591      25   18600   18597      24
   18603   18597      24   18603   18600      25   18609   18606      24   18612
   18606      24   18612   18609      25   18618   18615      24   18621   18615
      24   18621   18618      25   18627   18624      24   18630   18624      24
   18630   18627      25   18636   18633      24   18639   18633      24   18639
   18636      25   18645   18642      24   18648   18642      24   18648   18645
      25   18654   18651      24   18657   18651      24   18657   18654      25
   18663   18660      24   18666   18660      24   18666   18663      25   18672
   18669      24   18675   18669      24   18675   18672      25   18681   18678
      24   18684   18678      24   18684   18681      25   18690   18687      24
   18693   18687      24   18693   18690      25   18699   18696      24   18702
   18696      24   18702   18699      25   18708   18705      24   18711   18705
      24   18711   18708      25   18717   18714      24   18720   18714      24
   18720   18717      25   18726   18723      24   18729   18723      24   18729
   18726      25   18735   18732      24   18738   18732      24   18738   18735
      25   18744   18741      24   18747   18741      24   18747   18744      25
   18753   18750      24   18756   18750      24   18756   18753      25   18762
   18759      24   18765   18759      24   18765   18762      25   18771   18768
      24   18774   18768      24   18774   18771      25   18780   18777      24
   18783   18777      24   18783   18780      25   18789   18786      24   18792
   18786      24   18792   18789      25   18798   18795      24   18801   18795
      24   18801   18798      25   18807   18804      24   18810   18804      24
   18810   18807      25   18816   18813      24   18819   18813      24   18819
   18816      25   18825   18822      24   18828   18822      24   18828   18825
      25   18834   18831      24   18837   18831      24   18837   18834      25
   18843   18840      24   18846   18840      24   18846   18843      25   18852
   18849      24   18855   18849      24   18855   18852      25   18861   18858
      24   18864   18858      24   18864   18861      25   18870   18867      24
   18873   18867      24   18873   18870      25   18879   18876      24   18882
   18876      24   18882   18879      25   18888   18885      24   18891   18885
      24   18891   18888      25   18897   18894      24   18900   18894      24
   18900   18897      25   18906   18903      24   18909   18903      24   18909
   18906      25   18915   18912      24   18918   18912      24   18918   18915
      25   18924   18921      24   18927   18921      24   18927   18924      25
   18933   18930      24   18936   18930      24   18936   18933      25   18942
   18939      24   18945   18939      24   18945   18942      25   18951   18948
      24   18954   18948      24   18954   18951      25   18960   18957      24
   18963   18957      24   18963   18960      25   18969   18966      24   18972
   18966      24   18972   18969      25   18978   18975      24   18981   18975
      24   18981   18978      25   18987   18984      24   18990   18984      24
   18990   18987      25   18996   18993      24   18999   18993      24   18999
   18996      25   19005   19002      24   19008   19002      24   19008   19005
      25   19014   19011      24   19017   19011      24   19017   19014      25
   19023   19020      24   19026   19020      24   19026   19023      25   19032
   19029      24   19035   19029      24   19035   19032      25   19041   19038
      24   19044   19038      24   19044   19041      25   19050   19047      24
   19053   19047      24   19053   19050      25   19059   19056      24   19062
   19056      24   19062   19059      25   19068   19065      24   19071   19065
      24   19071   19068      25   19077   19074      24   19080   19074      24
   19080   19077      25   19086   19083      24   19089   19083      24   19089
   19086      25   19095   19092      24   19098   19092      24   19098   19095
      25   19104   19101      24   19107   19101      24   19107   19104      25
   19113   19110      24   19116   19110      24   19116   19113      25   19122
   19119      24   19125   19119      24   19125   19122      25   19131   19128
      24   19134   19128      24   19134   19131      25   19140   19137      24
   19143   19137      24   19143   19140      25   19149   19146      24   19152
   19146      24   19152   19149      25   19158   19155      24   19161   19155
      24   19161   19158      25   19167   19164      24   19170   19164      24
   19170   19167      25   19176   19173      24   19179   19173      24   19179
   19176      25   19185   19182      24   19188   19182      24   19188   19185
      25   19194   19191      24   19197   19191      24   19197   19194      25
   19203   19200      24   19206   19200      24   19206   19203      25   19212
   19209      24   19215   19209      24   19215   19212      25   19221   19218
      24   19224   19218      24   19224   19221      25   19230   19227      24
   19233   19227      24   19233   19230      25   19239   19236      24   19242
   19236      24   19242   19239      25   19248   19245      24   19251   19245
      24   19251   19248      25   19257   19254      24   19260   19254      24
   19260   19257      25   19266   19263      24   19269   19263      24   19269
   19266      25   19275   19272      24   19278   19272      24   19278   19275
      25   19284   19281      24   19287   19281      24   19287   19284      25
   19293   19290      24   19296   19290      24   19296   19293      25   19302
   19299      24   19305   19299      24   19305   19302      25   19311   19308
      24   19314   19308      24   19314   19311      25   19320   19317      24
   19323   19317      24   19323   19320      25   19329   19326      24   19332
   19326      24   19332   19329      25   19338   19335      24   19341   19335
      24   19341   19338      25   19347   19344      24   19350   19344      24
   19350   19347      25   19356   19353      24   19359   19353      24   19359
   19356      25   19365   19362      24   19368   19362      24   19368   19365
      25   19374   19371      24   19377   19371      24   19377   19374      25
   19383   19380      24   19386   19380      24   19386   19383      25   19392
   19389      24   19395   19389      24   19395   19392      25   19401   19398
      24   19404   19398      24   19404   19401      25   19410   19407      24
   19413   19407      24   19413   19410      25   19419   19416      24   19422
   19416      24   19422   19419      25   19428   19425      24   19431   19425
      24   19431   19428      25   19437   19434      24   19440   19434      24
   19440   19437      25   19446   19443      24   19449   19443      24   19449
   19446      25   19455   19452      24   19458   19452      24   19458   19455
      25   19464   19461      24   19467   19461      24   19467   19464      25
   19473   19470      24   19476   19470      24   19476   19473      25   19482
   19479      24   19485   19479      24   19485   19482      25   19491   19488
      24   19494   19488      24   19494   19491      25   19500   19497      24
   19503   19497      24   19503   19500      25   19509   19506      24   19512
   19506      24   19512   19509      25   19518   19515      24   19521   19515
      24   19521   19518      25   19527   19524      24   19530   19524      24
   19530   19527      25   19536   19533      24   19539   19533      24   19539
   19536      25   19545   19542      24   19548   19542      24   19548   19545
      25   19554   19551      24   19557   19551      24   19557   19554      25
   19563   19560      24   19566   19560      24   19566   19563      25   19572
   19569      24   19575   19569      24   19575   19572      25   19581   19578
      24   19584   19578      24   19584   19581      25   19590   19587      24
   19593   19587      24   19593   19590      25   19599   19596      24   19602
   19596      24   19602   19599      25   19608   19605      24   19611   19605
      24   19611   19608      25   19617   19614      24   19620   19614      24
   19620   19617      25   19626   19623      24   19629   19623      24   19629
   19626      25   19635   19632      24   19638   19632      24   19638   19635
      25   19644   19641      24   19647   19641      24   19647   19644      25
   19653   19650      24   19656   19650      24   19656   19653      25   19662
   19659      24   19665   19659      24   19665   19662      25   19671   19668
      24   19674   19668      24   19674   19671      25   19680   19677      24
   19683   19677      24   19683   19680      25   19689   19686      24   19692
   19686      24   19692   19689      25   19698   19695      24   19701   19695
      24   19701   19698      25   19707   19704      24   19710   19704      24
   19710   19707      25   19716   19713      24   19719   19713      24   19719
   19716      25   19725   19722      24   19728   19722      24   19728   19725
      25   19734   19731      24   19737   19731      24   19737   19734      25
   19743   19740      24   19746   19740      24   19746   19743      25   19752
   19749      24   19755   19749      24   19755   19752      25   19761   19758
      24   19764   19758      24   19764   19761      25   19770   19767      24
   19773   19767      24   19773   19770      25   19779   19776      24   19782
   19776      24   19782   19779      25   19788   19785      24   19791   19785
      24   19791   19788      25   19797   19794      24   19800   19794      24
   19800   19797      25   19806   19803      24   19809   19803      24   19809
   19806      25   19815   19812      24   19818   19812      24   19818   19815
      25   19824   19821      24   19827   19821      24   19827   19824      25
   19833   19830      24   19836   19830      24   19836   19833      25   19842
   19839      24   19845   19839      24   19845   19842      25   19851   19848
      24   19854   19848      24   19854   19851      25   19860   19857      24
   19863   19857      24   19863   19860      25   19869   19866      24   19872
   19866      24   19872   19869      25   19878   19875      24   19881   19875
      24   19881   19878      25   19887   19884      24   19890   19884      24
   19890   19887      25   19896   19893      24   19899   19893      24   19899
   19896      25   19905   19902      24   19908   19902      24   19908   19905
      25   19914   19911      24   19917   19911      24   19917   19914      25
   19923   19920      24   19926   19920      24   19926   19923      25   19932
   19929      24   19935   19929      24   19935   19932      25   19941   19938
      24   19944   19938      24   19944   19941      25   19950   19947      24
   19953   19947      24   19953   19950      25   19959   19956      24   19962
   19956      24   19962   19959      25   19968   19965      24   19971   19965
      24   19971   19968      25   19977   19974      24   19980   19974      24
   19980   19977      25   19986   19983      24   19989   19983      24   19989
   19986      25   19995   19992      24   19998   19992      24   19998   19995
      25   20004   20001      24   20007   20001      24   20007   20004      25
   20013   20010      24   20016   20010      24   20016   20013      25   20022
   20019      24   20025   20019      24   20025   20022      25   20031   20028
      24   20034   20028      24   20034   20031      25   20040   20037      24
   20043   20037      24   20043   20040      25   20049   20046      24   20052
   20046      24   20052   20049      25   20058   20055      24   20061   20055
      24   20061   20058      25   20067   20064      24   20070   20064      24
   20070   20067      25   20076   20073      24   20079   20073      24   20079
   20076      25   20085   20082      24   20088   20082      24   20088   20085
      25   20094   20091      24   20097   20091      24   20097   20094      25
   20103   20100      24   20106   20100      24   20106   20103      25   20112
   20109      24   20115   20109      24   20115   20112      25   20121   20118
      24   20124   20118      24   20124   20121      25   20130   20127      24
   20133   20127      24   20133   20130      25   20139   20136      24   20142
   20136      24   20142   20139      25   20148   20145      24   20151   20145
      24   20151   20148      25   20157   20154      24   20160   20154      24
   20160   20157      25   20166   20163      24   20169   20163      24   20169
   20166      25   20175   20172      24   20178   20172      24   20178   20175
      25   20184   20181      24   20187   20181      24   20187   20184      25
   20193   20190      24   20196   20190      24   20196   20193      25   20202
   20199      24   20205   20199      24   20205   20202      25   20211   20208
      24   20214   20208      24   20214   20211      25   20220   20217      24
   20223   20217      24   20223   20220      25   20229   20226      24   20232
   20226      24   20232   20229      25   20238   20235      24   20241   20235
      24   20241   20238      25   20247   20244      24   20250   20244      24
   20250   20247      25   20256   20253      24   20259   20253      24   20259
   20256      25   20265   20262      24   20268   20262      24   20268   20265
      25   20274   20271      24   20277   20271      24   20277   20274      25
   20283   20280      24   20286   20280      24   20286   20283      25   20292
   20289      24   20295   20289      24   20295   20292      25   20301   20298
      24   20304   20298      24   20304   20301      25   20310   20307      24
   20313   20307      24   20313   20310      25   20319   20316      24   20322
   20316      24   20322   20319      25   20328   20325      24   20331   20325
      24   20331   20328      25   20337   20334      24   20340   20334      24
   20340   20337      25   20346   20343      24   20349   20343      24   20349
   20346      25   20355   20352      24   20358   20352      24   20358   20355
      25   20364   20361      24   20367   20361      24   20367   20364      25
   20373   20370      24   20376   20370      24   20376   20373      25   20382
   20379      24   20385   20379      24   20385   20382      25   20391   20388
      24   20394   20388      24   20394   20391      25   20400   20397      24
   20403   20397      24   20403   20400      25   20409   20406      24   20412
   20406      24   20412   20409      25   20418   20415      24   20421   20415
      24   20421   20418      25   20427   20424      24   20430   20424      24
   20430   20427      25   20436   20433      24   20439   20433      24   20439
   20436      25   20445   20442      24   20448   20442      24   20448   20445
      25   20454   20451      24   20457   20451      24   20457   20454      25
   20463   20460      24   20466   20460      24   20466   20463      25   20472
   20469      24   20475   20469      24   20475   20472      25   20481   20478
      24   20484   20478      24   20484   20481      25   20490   20487      24
   20493   20487      24   20493   20490      25   20499   20496      24   20502
   20496      24   20502   20499      25   20508   20505      24   20511   20505
      24   20511   20508      25   20517   20514      24   20520   20514      24
   20520   20517      25   20526   20523      24   20529   20523      24   20529
   20526      25   20535   20532      24   20538   20532      24   20538   20535
      25   20544   20541      24   20547   20541      24   20547   20544      25
   20553   20550      24   20556   20550      24   20556   20553      25   20562
   20559      24   20565   20559      24   20565   20562      25   20571   20568
      24   20574   20568      24   20574   20571      25   20580   20577      24
   20583   20577      24   20583   20580      25   20589   20586      24   20592
   20586      24   20592   20589      25   20598   20595      24   20601   20595
      24   20601   20598      25   20607   20604      24   20610   20604      24
   20610   20607      25   20616   20613      24   20619   20613      24   20619
   20616      25   20625   20622      24   20628   20622      24   20628   20625
      25   20634   20631      24   20637   20631      24   20637   20634      25
   20643   20640      24   20646   20640      24   20646   20643      25   20652
   20649      24   20655   20649      24   20655   20652      25   20661   20658
      24   20664   20658      24   20664   20661      25   20670   20667      24
   20673   20667      24   20673   20670      25   20679   20676      24   20682
   20676      24   20682   20679      25   20688   20685      24   20691   20685
      24   20691   20688      25   20697   20694      24   20700   20694      24
   20700   20697      25   20706   20703      24   20709   20703      24   20709
   20706      25   20715   20712      24   20718   20712      24   20718   20715
      25   20724   20721      24   20727   20721      24   20727   20724      25
   20733   20730      24   20736   20730      24   20736   20733      25   20742
   20739      24   20745   20739      24   20745   20742      25   20751   20748
      24   20754   20748      24   20754   20751      25   20760   20757      24
   20763   20757      24   20763   20760      25   20769   20766      24   20772
   20766      24   20772   20769      25   20778   20775      24   20781   20775
      24   20781   20778      25   20787   20784      24   20790   20784      24
   20790   20787      25   20796   20793      24   20799   20793      24   20799
   20796      25   20805   20802      24   20808   20802      24   20808   20805
      25   20814   20811      24   20817   20811      24   20817   20814      25
   20823   20820      24   20826   20820      24   20826   20823      25   20832
   20829      24   20835   20829      24   20835   20832      25   20841   20838
      24   20844   20838      24   20844   20841      25   20850   20847      24
   20853   20847      24   20853   20850      25   20859   20856      24   20862
   20856      24   20862   20859      25   20868   20865      24   20871   20865
      24   20871   20868      25   20877   20874      24   20880   20874      24
   20880   20877      25   20886   20883      24   20889   20883      24   20889
   20886      25   20895   20892      24   20898   20892      24   20898   20895
      25   20904   20901      24   20907   20901      24   20907   20904      25
   20913   20910      24   20916   20910      24   20916   20913      25   20922
   20919      24   20925   20919      24   20925   20922      25   20931   20928
      24   20934   20928      24   20934   20931      25   20940   20937      24
   20943   20937      24   20943   20940      25   20949   20946      24   20952
   20946      24   20952   20949      25   20958   20955      24   20961   20955
      24   20961   20958      25   20967   20964      24   20970   20964      24
   20970   20967      25   20976   20973      24   20979   20973      24   20979
   20976      25   20985   20982      24   20988   20982      24   20988   20985
      25   20994   20991      24   20997   20991      24   20997   20994      25
   21003   21000      24   21006   21000      24   21006   21003      25   21012
   21009      24   21015   21009      24   21015   21012      25   21021   21018
      24   21024   21018      24   21024   21021      25   21030   21027      24
   21033   21027      24   21033   21030      25   21039   21036      24   21042
   21036      24   21042   21039      25   21048   21045      24   21051   21045
      24   21051   21048      25   21057   21054      24   21060   21054      24
   21060   21057      25   21066   21063      24   21069   21063      24   21069
   21066      25   21075   21072      24   21078   21072      24   21078   21075
      25   21084   21081      24   21087   21081      24   21087   21084      25
   21093   21090      24   21096   21090      24   21096   21093      25   21102
   21099      24   21105   21099      24   21105   21102      25   21111   21108
      24   21114   21108      24   21114   21111      25   21120   21117      24
   21123   21117      24   21123   21120      25   21129   21126      24   21132
   21126      24   21132   21129      25   21138   21135      24   21141   21135
      24   21141   21138      25   21147   21144      24   21150   21144      24
   21150   21147      25   21156   21153      24   21159   21153      24   21159
   21156      25   21165   21162      24   21168   21162      24   21168   21165
      25   21174   21171      24   21177   21171      24   21177   21174      25
   21183   21180      24   21186   21180      24   21186   21183      25   21192
   21189      24   21195   21189      24   21195   21192      25   21201   21198
      24   21204   21198      24   21204   21201      25   21210   21207      24
   21213   21207      24   21213   21210      25   21219   21216      24   21222
   21216      24   21222   21219      25   21228   21225      24   21231   21225
      24   21231   21228      25   21237   21234      24   21240   21234      24
   21240   21237      25   21246   21243      24   21249   21243      24   21249
   21246      25   21255   21252      24   21258   21252      24   21258   21255
      25   21264   21261      24   21267   21261      24   21267   21264      25
   21273   21270      24   21276   21270      24   21276   21273      25   21282
   21279      24   21285   21279      24   21285   21282      25   21291   21288
      24   21294   21288      24   21294   21291      25   21300   21297      24
   21303   21297      24   21303   21300      25   21309   21306      24   21312
   21306      24   21312   21309      25   21318   21315      24   21321   21315
      24   21321   21318      25   21327   21324      24   21330   21324      24
   21330   21327      25   21336   21333      24   21339   21333      24   21339
   21336      25   21345   21342      24   21348   21342      24   21348   21345
      25   21354   21351      24   21357   21351      24   21357   21354      25
   21363   21360      24   21366   21360      24   21366   21363      25   21372
   21369      24   21375   21369      24   21375   21372      25   21381   21378
      24   21384   21378      24   21384   21381      25   21390   21387      24
   21393   21387      24   21393   21390      25   21399   21396      24   21402
   21396      24   21402   21399      25   21408   21405      24   21411   21405
      24   21411   21408      25   21417   21414      24   21420   21414      24
   21420   21417      25   21426   21423      24   21429   21423      24   21429
   21426      25   21435   21432      24   21438   21432      24   21438   21435
      25   21444   21441      24   21447   21441      24   21447   21444      25
   21453   21450      24   21456   21450      24   21456   21453      25   21462
   21459      24   21465   21459      24   21465   21462      25   21471   21468
      24   21474   21468      24   21474   21471      25   21480   21477      24
   21483   21477      24   21483   21480      25   21489   21486      24   21492
   21486      24   21492   21489      25   21498   21495      24   21501   21495
      24   21501   21498      25   21507   21504      24   21510   21504      24
   21510   21507      25   21516   21513      24   21519   21513      24   21519
   21516      25   21525   21522      24   21528   21522      24   21528   21525
      25   21534   21531      24   21537   21531      24   21537   21534      25
   21543   21540      24   21546   21540      24   21546   21543      25   21552
   21549      24   21555   21549      24   21555   21552      25   21561   21558
      24   21564   21558      24   21564   21561      25   21570   21567      24
   21573   21567      24   21573   21570      25   21579   21576      24   21582
   21576      24   21582   21579      25   21588   21585      24   21591   21585
      24   21591   21588      25   21597   21594      24   21600   21594      24
   21600   21597      25   21606   21603      24   21609   21603      24   21609
   21606      25   21615   21612      24   21618   21612      24   21618   21615
      25   21624   21621      24   21627   21621      24   21627   21624      25
   21633   21630      24   21636   21630      24   21636   21633      25   21642
   21639      24   21645   21639      24   21645   21642      25   21651   21648
      24   21654   21648      24   21654   21651      25   21660   21657      24
   21663   21657      24   21663   21660      25   21669   21666      24   21672
   21666      24   21672   21669      25   21678   21675      24   21681   21675
      24   21681   21678      25   21687   21684      24   21690   21684      24
   21690   21687      25   21696   21693      24   21699   21693      24   21699
   21696      25   21705   21702      24   21708   21702      24   21708   21705
      25   21714   21711      24   21717   21711      24   21717   21714      25
   21723   21720      24   21726   21720      24   21726   21723      25   21732
   21729      24   21735   21729      24   21735   21732      25   21741   21738
      24   21744   21738      24   21744   21741      25   21750   21747      24
   21753   21747      24   21753   21750      25   21759   21756      24   21762
   21756      24   21762   21759      25   21768   21765      24   21771   21765
      24   21771   21768      25   21777   21774      24   21780   21774      24
   21780   21777      25   21786   21783      24   21789   21783      24   21789
   21786      25   21795   21792      24   21798   21792      24   21798   21795
      25   21804   21801      24   21807   21801      24   21807   21804      25
   21813   21810      24   21816   21810      24   21816   21813      25   21822
   21819      24   21825   21819      24   21825   21822      25   21831   21828
      24   21834   21828      24   21834   21831      25   21840   21837      24
   21843   21837      24   21843   21840      25   21849   21846      24   21852
   21846      24   21852   21849      25   21858   21855      24   21861   21855
      24   21861   21858      25   21867   21864      24   21870   21864      24
   21870   21867      25   21876   21873      24   21879   21873      24   21879
   21876      25   21885   21882      24   21888   21882      24   21888   21885
      25   21894   21891      24   21897   21891      24   21897   21894      25
   21903   21900      24   21906   21900      24   21906   21903      25   21912
   21909      24   21915   21909      24   21915   21912      25   21921   21918
      24   21924   21918      24   21924   21921      25   21930   21927      24
   21933   21927      24   21933   21930      25   21939   21936      24   21942
   21936      24   21942   21939      25   21948   21945      24   21951   21945
      24   21951   21948      25   21957   21954      24   21960   21954      24
   21960   21957      25   21966   21963      24   21969   21963      24   21969
   21966      25   21975   21972      24   21978   21972      24   21978   21975
      25   21984   21981      24   21987   21981      24   21987   21984      25
   21993   21990      24   21996   21990      24   21996   21993      25   22002
   21999      24   22005   21999      24   22005   22002      25   22011   22008
      24   22014   22008      24   22014   22011      25   22020   22017      24
   22023   22017      24   22023   22020      25   22029   22026      24   22032
   22026      24   22032   22029      25   22038   22035      24   22041   22035
      24   22041   22038      25   22047   22044      24   22050   22044      24
   22050   22047      25   22056   22053      24   22059   22053      24   22059
   22056      25   22065   22062      24   22068   22062      24   22068   22065
      25   22074   22071      24   22077   22071      24   22077   22074      25
   22083   22080      24   22086   22080      24   22086   22083      25   22092
   22089      24   22095   22089      24   22095   22092      25   22101   22098
      24   22104   22098      24   22104   22101      25   22110   22107      24
   22113   22107      24   22113   22110      25   22119   22116      24   22122
   22116      24   22122   22119      25   22128   22125      24   22131   22125
      24   22131   22128      25   22137   22134      24   22140   22134      24
   22140   22137      25   22146   22143      24   22149   22143      24   22149
   22146      25   22155   22152      24   22158   22152      24   22158   22155
      25   22164   22161      24   22167   22161      24   22167   22164      25
   22173   22170      24   22176   22170      24   22176   22173      25   22182
   22179      24   22185   22179      24   22185   22182      25   22191   22188
      24   22194   22188      24   22194   22191      25   22200   22197      24
   22203   22197      24   22203   22200      25   22209   22206      24   22212
   22206      24   22212   22209      25   22218   22215      24   22221   22215
      24   22221   22218      25   22227   22224      24   22230   22224      24
   22230   22227      25   22236   22233      24   22239   22233      24   22239
   22236      25   22245   22242      24   22248   22242      24   22248   22245
      25   22254   22251      24   22257   22251      24   22257   22254      25
   22263   22260      24   22266   22260      24   22266   22263      25   22272
   22269      24   22275   22269      24   22275   22272      25   22281   22278
      24   22284   22278      24   22284   22281      25   22290   22287      24
   22293   22287      24   22293   22290      25   22299   22296      24   22302
   22296      24   22302   22299      25   22308   22305      24   22311   22305
      24   22311   22308      25   22317   22314      24   22320   22314      24
   22320   22317      25   22326   22323      24   22329   22323      24   22329
   22326      25   22335   22332      24   22338   22332      24   22338   22335
      25   22344   22341      24   22347   22341      24   22347   22344      25
   22353   22350      24   22356   22350      24   22356   22353      25   22362
   22359      24   22365   22359      24   22365   22362      25   22371   22368
      24   22374   22368      24   22374   22371      25   22380   22377      24
   22383   22377      24   22383   22380      25   22389   22386      24   22392
   22386      24   22392   22389      25   22398   22395      24   22401   22395
      24   22401   22398      25   22407   22404      24   22410   22404      24
   22410   22407      25   22416   22413      24   22419   22413      24   22419
   22416      25   22425   22422      24   22428   22422      24   22428   22425
      25   22434   22431      24   22437   22431      24   22437   22434      25
   22443   22440      24   22446   22440      24   22446   22443      25   22452
   22449      24   22455   22449      24   22455   22452      25   22461   22458
      24   22464   22458      24   22464   22461      25   22470   22467      24
   22473   22467      24   22473   22470      25   22479   22476      24   22482
   22476      24   22482   22479      25   22488   22485      24   22491   22485
      24   22491   22488      25   22497   22494      24   22500   22494      24
   22500   22497      25   22506   22503      24   22509   22503      24   22509
   22506      25   22515   22512      24   22518   22512      24   22518   22515
      25   22524   22521      24   22527   22521      24   22527   22524      25
   22533   22530      24   22536   22530      24   22536   22533      25   22542
   22539      24   22545   22539      24   22545   22542      25   22551   22548
      24   22554   22548      24   22554   22551      25   22560   22557      24
   22563   22557      24   22563   22560      25   22569   22566      24   22572
   22566      24   22572   22569      25   22578   22575      24   22581   22575
      24   22581   22578      25   22587   22584      24   22590   22584      24
   22590   22587      25   22596   22593      24   22599   22593      24   22599
   22596      25   22605   22602      24   22608   22602      24   22608   22605
      25   22614   22611      24   22617   22611      24   22617   22614      25
   22623   22620      24   22626   22620      24   22626   22623      25   22632
   22629      24   22635   22629      24   22635   22632      25   22641   22638
      24   22644   22638      24   22644   22641      25   22650   22647      24
   22653   22647      24   22653   22650      25   22659   22656      24   22662
   22656      24   22662   22659      25   22668   22665      24   22671   22665
      24   22671   22668      25   22677   22674      24   22680   22674      24
   22680   22677      25   22686   22683      24   22689   22683      24   22689
   22686      25   22695   22692      24   22698   22692      24   22698   22695
      25   22704   22701      24   22707   22701      24   22707   22704      25
   22713   22710      24   22716   22710      24   22716   22713      25   22722
   22719      24   22725   22719      24   22725   22722      25   22731   22728
      24   22734   22728      24   22734   22731      25   22740   22737      24
   22743   22737      24   22743   22740      25   22749   22746      24   22752
   22746      24   22752   22749      25   22758   22755      24   22761   22755
      24   22761   22758      25   22767   22764      24   22770   22764      24
   22770   22767      25   22776   22773      24   22779   22773      24   22779
   22776      25   22785   22782      24   22788   22782      24   22788   22785
      25   22794   22791      24   22797   22791      24   22797   22794      25
   22803   22800      24   22806   22800      24   22806   22803      25   22812
   22809      24   22815   22809      24   22815   22812      25   22821   22818
      24   22824   22818      24   22824   22821      25   22830   22827      24
   22833   22827      24   22833   22830      25   22839   22836      24   22842
   22836      24   22842   22839      25   22848   22845      24   22851   22845
      24   22851   22848      25   22857   22854      24   22860   22854      24
   22860   22857      25   22866   22863      24   22869   22863      24   22869
   22866      25   22875   22872      24   22878   22872      24   22878   22875
      25   22884   22881      24   22887   22881      24   22887   22884      25
   22893   22890      24   22896   22890      24   22896   22893      25   22902
   22899      24   22905   22899      24   22905   22902      25   22911   22908
      24   22914   22908      24   22914   22911      25   22920   22917      24
   22923   22917      24   22923   22920      25   22929   22926      24   22932
   22926      24   22932   22929      25   22938   22935      24   22941   22935
      24   22941   22938      25   22947   22944      24   22950   22944      24
   22950   22947      25   22956   22953      24   22959   22953      24   22959
   22956      25   22965   22962      24   22968   22962      24   22968   22965
      25   22974   22971      24   22977   22971      24   22977   22974      25
   22983   22980      24   22986   22980      24   22986   22983      25   22992
   22989      24   22995   22989      24   22995   22992      25   23001   22998
      24   23004   22998      24   23004   23001      25   23010   23007      24
   23013   23007      24   23013   23010      25   23019   23016      24   23022
   23016      24   23022   23019      25   23028   23025      24   23031   23025
      24   23031   23028      25   23037   23034      24   23040   23034      24
   23040   23037      25   23046   23043      24   23049   23043      24   23049
   23046      25   23055   23052      24   23058   23052      24   23058   23055
      25   23064   23061      24   23067   23061      24   23067   23064      25
   23073   23070      24   23076   23070      24   23076   23073      25   23082
   23079      24   23085   23079      24   23085   23082      25   23091   23088
      24   23094   23088      24   23094   23091      25   23100   23097      24
   23103   23097      24   23103   23100      25   23109   23106      24   23112
   23106      24   23112   23109      25   23118   23115      24   23121   23115
      24   23121   23118      25   23127   23124      24   23130   23124      24
   23130   23127      25   23136   23133      24   23139   23133      24   23139
   23136      25   23145   23142      24   23148   23142      24   23148   23145
      25   23154   23151      24   23157   23151      24   23157   23154      25
   23163   23160      24   23166   23160      24   23166   23163      25   23172
   23169      24   23175   23169      24   23175   23172      25   23181   23178
      24   23184   23178      24   23184   23181      25   23190   23187      24
   23193   23187      24   23193   23190      25   23199   23196      24   23202
   23196      24   23202   23199      25   23208   23205      24   23211   23205
      24   23211   23208      25   23217   23214      24   23220   23214      24
   23220   23217      25   23226   23223      24   23229   23223      24   23229
   23226      25   23235   23232      24   23238   23232      24   23238   23235
      25   23244   23241      24   23247   23241      24   23247   23244      25
   23253   23250      24   23256   23250      24   23256   23253      25   23262
   23259      24   23265   23259      24   23265   23262      25   23271   23268
      24   23274   23268      24   23274   23271      25   23280   23277      24
   23283   23277      24   23283   23280      25   23289   23286      24   23292
   23286      24   23292   23289      25   23298   23295      24   23301   23295
      24   23301   23298      25   23307   23304      24   23310   23304      24
   23310   23307      25   23316   23313      24   23319   23313      24   23319
   23316      25   23325   23322      24   23328   23322      24   23328   23325
      25   23334   23331      24   23337   23331      24   23337   23334      25
   23343   23340      24   23346   23340      24   23346   23343      25   23352
   23349      24   23355   23349      24   23355   23352      25   23361   23358
      24   23364   23358      24   23364   23361      25   23370   23367      24
   23373   23367      24   23373   23370      25   23379   23376      24   23382
   23376      24   23382   23379      25   23388   23385      24   23391   23385
      24   23391   23388      25   23397   23394      24   23400   23394      24
   23400   23397      25   23406   23403      24   23409   23403      24   23409
   23406      25   23415   23412      24   23418   23412      24   23418   23415
      25   23424   23421      24   23427   23421      24   23427   23424      25
   23433   23430      24   23436   23430      24   23436   23433      25   23442
   23439      24   23445   23439      24   23445   23442      25   23451   23448
      24   23454   23448      24   23454   23451      25   23460   23457      24
   23463   23457      24   23463   23460      25   23469   23466      24   23472
   23466      24   23472   23469      25   23478   23475      24   23481   23475
      24   23481   23478      25   23487   23484      24   23490   23484      24
   23490   23487      25   23496   23493      24   23499   23493      24   23499
   23496      25   23505   23502      24   23508   23502      24   23508   23505
      25   23514   23511      24   23517   23511      24   23517   23514      25
   23523   23520      24   23526   23520      24   23526   23523      25   23532
   23529      24   23535   23529      24   23535   23532      25   23541   23538
      24   23544   23538      24   23544   23541      25   23550   23547      24
   23553   23547      24   23553   23550      25   23559   23556      24   23562
   23556      24   23562   23559      25   23568   23565      24   23571   23565
      24   23571   23568      25   23577   23574      24   23580   23574      24
   23580   23577      25   23586   23583      24   23589   23583      24   23589
   23586      25   23595   23592      24   23598   23592      24   23598   23595
      25   23604   23601      24   23607   23601      24   23607   23604      25
   23613   23610      24   23616   23610      24   23616   23613      25   23622
   23619      24   23625   23619      24   23625   23622      25   23631   23628
      24   23634   23628      24   23634   23631      25   23640   23637      24
   23643   23637      24   23643   23640      25   23649   23646      24   23652
   23646      24   23652   23649      25   23658   23655      24   23661   23655
      24   23661   23658      25   23667   23664      24   23670   23664      24
   23670   23667      25   23676   23673      24   23679   23673      24   23679
   23676      25   23685   23682      24   23688   23682      24   23688   23685
      25   23694   23691      24   23697   23691      24   23697   23694      25
   23703   23700      24   23706   23700      24   23706   23703      25   23712
   23709      24   23715   23709      24   23715   23712      25   23721   23718
      24   23724   23718      24   23724   23721      25   23730   23727      24
   23733   23727      24   23733   23730      25   23739   23736      24   23742
   23736      24   23742   23739      25   23748   23745      24   23751   23745
      24   23751   23748      25   23757   23754      24   23760   23754      24
   23760   23757      25   23766   23763      24   23769   23763      24   23769
   23766      25   23775   23772      24   23778   23772      24   23778   23775
      25   23784   23781      24   23787   23781      24   23787   23784      25
   23793   23790      24   23796   23790      24   23796   23793      25   23802
   23799      24   23805   23799      24   23805   23802      25   23811   23808
      24   23814   23808      24   23814   23811      25   23820   23817      24
   23823   23817      24   23823   23820      25   23829   23826      24   23832
   23826      24   23832   23829      25   23838   23835      24   23841   23835
      24   23841   23838      25   23847   23844      24   23850   23844      24
   23850   23847      25   23856   23853      24   23859   23853      24   23859
   23856      25   23865   23862      24   23868   23862      24   23868   23865
      25   23874   23871      24   23877   23871      24   23877   23874      25
   23883   23880      24   23886   23880      24   23886   23883      25   23892
   23889      24   23895   23889      24   23895   23892      25   23901   23898
      24   23904   23898      24   23904   23901      25   23910   23907      24
   23913   23907      24   23913   23910      25   23919   23916      24   23922
   23916      24   23922   23919      25   23928   23925      24   23931   23925
      24   23931   23928      25   23937   23934      24   23940   23934      24
   23940   23937      25   23946   23943      24   23949   23943      24   23949
   23946      25   23955   23952      24   23958   23952      24   23958   23955
      25   23964   23961      24   23967   23961      24   23967   23964      25
   23973   23970      24   23976   23970      24   23976   23973      25   23982
   23979      24   23985   23979      24   23985   23982      25   23991   23988
      24   23994   23988      24   23994   23991      25   24000   23997      24
   24003   23997      24   24003   24000      25   24009   24006      24   24012
   24006      24   24012   24009      25   24018   24015      24   24021   24015
      24   24021   24018      25   24027   24024      24   24030   24024      24
   24030   24027      25   24036   24033      24   24039   24033      24   24039
   24036      25   24045   24042      24   24048   24042      24   24048   24045
      25   24054   24051      24   24057   24051      24   24057   24054      25
   24063   24060      24   24066   24060      24   24066   24063      25   24072
   24069      24   24075   24069      24   24075   24072      25   24081   24078
      24   24084   24078      24   24084   24081      25   24090   24087      24
   24093   24087      24   24093   24090      25   24099   24096      24   24102
   24096      24   24102   24099      25   24108   24105      24   24111   24105
      24   24111   24108      25   24117   24114      24   24120   24114      24
   24120   24117      25   24126   24123      24   24129   24123      24   24129
   24126      25   24135   24132      24   24138   24132      24   24138   24135
      25   24144   24141      24   24147   24141      24   24147   24144      25
   24153   24150      24   24156   24150      24   24156   24153      25   24162
   24159      24   24165   24159      24   24165   24162      25   24171   24168
      24   24174   24168      24   24174   24171      25   24180   24177      24
   24183   24177      24   24183   24180      25   24189   24186      24   24192
   24186      24   24192   24189      25   24198   24195      24   24201   24195
      24   24201   24198      25   24207   24204      24   24210   24204      24
   24210   24207      25   24216   24213      24   24219   24213      24   24219
   24216      25   24225   24222      24   24228   24222      24   24228   24225
      25   24234   24231      24   24237   24231      24   24237   24234      25
   24243   24240      24   24246   24240      24   24246   24243      25   24252
   24249      24   24255   24249      24   24255   24252      25   24261   24258
      24   24264   24258      24   24264   24261      25   24270   24267      24
   24273   24267      24   24273   24270      25   24279   24276      24   24282
   24276      24   24282   24279      25   24288   24285      24   24291   24285
      24   24291   24288      25   24297   24294      24   24300   24294      24
   24300   24297      25   24306   24303      24   24309   24303      24   24309
   24306      25   24315   24312      24   24318   24312      24   24318   24315
      25   24324   24321      24   24327   24321      24   24327   24324      25
   24333   24330      24   24336   24330      24   24336   24333      25   24342
   24339      24   24345   24339      24   24345   24342      25   24351   24348
      24   24354   24348      24   24354   24351      25   24360   24357      24
   24363   24357      24   24363   24360      25   24369   24366      24   24372
   24366      24   24372   24369      25   24378   24375      24   24381   24375
      24   24381   24378      25   24387   24384      24   24390   24384      24
   24390   24387      25   24396   24393      24   24399   24393      24   24399
   24396      25   24405   24402      24   24408   24402      24   24408   24405
      25   24414   24411      24   24417   24411      24   24417   24414      25
   24423   24420      24   24426   24420      24   24426   24423      25   24432
   24429      24   24435   24429      24   24435   24432      25   24441   24438
      24   24444   24438      24   24444   24441      25   24450   24447      24
   24453   24447      24   24453   24450      25   24459   24456      24   24462
   24456      24   24462   24459      25   24468   24465      24   24471   24465
      24   24471   24468      25   24477   24474      24   24480   24474      24
   24480   24477      25   24486   24483      24   24489   24483      24   24489
   24486      25   24495   24492      24   24498   24492      24   24498   24495
      25   24504   24501      24   24507   24501      24   24507   24504      25
   24513   24510      24   24516   24510      24   24516   24513      25   24522
   24519      24   24525   24519      24   24525   24522      25   24531   24528
      24   24534   24528      24   24534   24531      25   24540   24537      24
   24543   24537      24   24543   24540      25   24549   24546      24   24552
   24546      24   24552   24549      25   24558   24555      24   24561   24555
      24   24561   24558      25   24567   24564      24   24570   24564      24
   24570   24567      25   24576   24573      24   24579   24573      24   24579
   24576      25   24585   24582      24   24588   24582      24   24588   24585
      25   24594   24591      24   24597   24591      24   24597   24594      25
   24603   24600      24   24606   24600      24   24606   24603      25   24612
   24609      24   24615   24609      24   24615   24612      25   24621   24618
      24   24624   24618      24   24624   24621      25   24630   24627      24
   24633   24627      24   24633   24630      25   24639   24636      24   24642
   24636      24   24642   24639      25   24648   24645      24   24651   24645
      24   24651   24648      25   24657   24654      24   24660   24654      24
   24660   24657      25   24666   24663      24   24669   24663      24   24669
   24666      25   24675   24672      24   24678   24672      24   24678   24675
      25   24684   24681      24   24687   24681      24   24687   24684      25
   24693   24690      24   24696   24690      24   24696   24693      25   24702
   24699      24   24705   24699      24   24705   24702      25   24711   24708
      24   24714   24708      24   24714   24711      25   24720   24717      24
   24723   24717      24   24723   24720      25   24729   24726      24   24732
   24726      24   24732   24729      25   24738   24735      24   24741   24735
      24   24741   24738      25   24747   24744      24   24750   24744      24
   24750   24747      25   24756   24753      24   24759   24753      24   24759
   24756      25   24765   24762      24   24768   24762      24   24768   24765
      25   24774   24771      24   24777   24771      24   24777   24774      25
   24783   24780      24   24786   24780      24   24786   24783      25   24792
   24789      24   24795   24789      24   24795   24792      25   24801   24798
      24   24804   24798      24   24804   24801      25   24810   24807      24
   24813   24807      24   24813   24810      25   24819   24816      24   24822
   24816      24   24822   24819      25   24828   24825      24   24831   24825
      24   24831   24828      25   24837   24834      24   24840   24834      24
   24840   24837      25   24846   24843      24   24849   24843      24   24849
   24846      25   24855   24852      24   24858   24852      24   24858   24855
      25   24864   24861      24   24867   24861      24   24867   24864      25
   24873   24870      24   24876   24870      24   24876   24873      25   24882
   24879      24   24885   24879      24   24885   24882      25   24891   24888
      24   24894   24888      24   24894   24891      25   24900   24897      24
   24903   24897      24   24903   24900      25   24909   24906      24   24912
   24906      24   24912   24909      25   24918   24915      24   24921   24915
      24   24921   24918      25   24927   24924      24   24930   24924      24
   24930   24927      25   24936   24933      24   24939   24933      24   24939
   24936      25   24945   24942      24   24948   24942      24   24948   24945
      25   24954   24951      24   24957   24951      24   24957   24954      25
   24963   24960      24   24966   24960      24   24966   24963      25   24972
   24969      24   24975   24969      24   24975   24972      25   24981   24978
      24   24984   24978      24   24984   24981      25   24990   24987      24
   24993   24987      24   24993   24990      25   24999   24996      24   25002
   24996      24   25002   24999      25   25008   25005      24   25011   25005
      24   25011   25008      25   25017   25014      24   25020   25014      24
   25020   25017      25   25026   25023      24   25029   25023      24   25029
   25026      25   25035   25032      24   25038   25032      24   25038   25035
      25   25044   25041      24   25047   25041      24   25047   25044      25
   25053   25050      24   25056   25050      24   25056   25053      25   25062
   25059      24   25065   25059      24   25065   25062      25   25071   25068
      24   25074   25068      24   25074   25071      25   25080   25077      24
   25083   25077      24   25083   25080      25   25089   25086      24   25092
   25086      24   25092   25089      25   25098   25095      24   25101   25095
      24   25101   25098      25   25107   25104      24   25110   25104      24
   25110   25107      25   25116   25113      24   25119   25113      24   25119
   25116      25   25125   25122      24   25128   25122      24   25128   25125
      25   25134   25131      24   25137   25131      24   25137   25134      25
   25143   25140      24   25146   25140      24   25146   25143      25   25152
   25149      24   25155   25149      24   25155   25152      25   25161   25158
      24   25164   25158      24   25164   25161      25   25170   25167      24
   25173   25167      24   25173   25170      25   25179   25176      24   25182
   25176      24   25182   25179      25   25188   25185      24   25191   25185
      24   25191   25188      25   25197   25194      24   25200   25194      24
   25200   25197      25   25206   25203      24   25209   25203      24   25209
   25206      25   25215   25212      24   25218   25212      24   25218   25215
      25   25224   25221      24   25227   25221      24   25227   25224      25
   25233   25230      24   25236   25230      24   25236   25233      25   25242
   25239      24   25245   25239      24   25245   25242      25   25251   25248
      24   25254   25248      24   25254   25251      25   25260   25257      24
   25263   25257      24   25263   25260      25   25269   25266      24   25272
   25266      24   25272   25269      25   25278   25275      24   25281   25275
      24   25281   25278      25   25287   25284      24   25290   25284      24
   25290   25287      25   25296   25293      24   25299   25293      24   25299
   25296      25   25305   25302      24   25308   25302      24   25308   25305
      25   25314   25311      24   25317   25311      24   25317   25314      25
   25323   25320      24   25326   25320      24   25326   25323      25   25332
   25329      24   25335   25329      24   25335   25332      25   25341   25338
      24   25344   25338      24   25344   25341      25   25350   25347      24
   25353   25347      24   25353   25350      25   25359   25356      24   25362
   25356      24   25362   25359      25   25368   25365      24   25371   25365
      24   25371   25368      25   25377   25374      24   25380   25374      24
   25380   25377      25   25386   25383      24   25389   25383      24   25389
   25386      25   25395   25392      24   25398   25392      24   25398   25395
      25   25404   25401      24   25407   25401      24   25407   25404      25
   25413   25410      24   25416   25410      24   25416   25413      25   25422
   25419      24   25425   25419      24   25425   25422      25   25431   25428
      24   25434   25428      24   25434   25431      25   25440   25437      24
   25443   25437      24   25443   25440      25   25449   25446      24   25452
   25446      24   25452   25449      25   25458   25455      24   25461   25455
      24   25461   25458      25   25467   25464      24   25470   25464      24
   25470   25467      25   25476   25473      24   25479   25473      24   25479
   25476      25   25485   25482      24   25488   25482      24   25488   25485
      25   25494   25491      24   25497   25491      24   25497   25494      25
   25503   25500      24   25506   25500      24   25506   25503      25   25512
   25509      24   25515   25509      24   25515   25512      25   25521   25518
      24   25524   25518      24   25524   25521      25   25530   25527      24
   25533   25527      24   25533   25530      25   25539   25536      24   25542
   25536      24   25542   25539      25   25548   25545      24   25551   25545
      24   25551   25548      25   25557   25554      24   25560   25554      24
   25560   25557      25   25566   25563      24   25569   25563      24   25569
   25566      25   25575   25572      24   25578   25572      24   25578   25575
      25   25584   25581      24   25587   25581      24   25587   25584      25
   25593   25590      24   25596   25590      24   25596   25593      25   25602
   25599      24   25605   25599      24   25605   25602      25   25611   25608
      24   25614   25608      24   25614   25611      25   25620   25617      24
   25623   25617      24   25623   25620      25   25629   25626      24   25632
   25626      24   25632   25629      25   25638   25635      24   25641   25635
      24   25641   25638      25   25647   25644      24   25650   25644      24
   25650   25647      25   25656   25653      24   25659   25653      24   25659
   25656      25   25665   25662      24   25668   25662      24   25668   25665
      25   25674   25671      24   25677   25671      24   25677   25674      25
   25683   25680      24   25686   25680      24   25686   25683      25   25692
   25689      24   25695   25689      24   25695   25692      25   25701   25698
      24   25704   25698      24   25704   25701      25   25710   25707      24
   25713   25707      24   25713   25710      25   25719   25716      24   25722
   25716      24   25722   25719      25   25728   25725      24   25731   25725
      24   25731   25728      25   25737   25734      24   25740   25734      24
   25740   25737      25   25746   25743      24   25749   25743      24   25749
   25746      25   25755   25752      24   25758   25752      24   25758   25755
      25   25764   25761      24   25767   25761      24   25767   25764      25
   25773   25770      24   25776   25770      24   25776   25773      25   25782
   25779      24   25785   25779      24   25785   25782      25   25791   25788
      24   25794   25788      24   25794   25791      25   25800   25797      24
   25803   25797      24   25803   25800      25   25809   25806      24   25812
   25806      24   25812   25809      25   25818   25815      24   25821   25815
      24   25821   25818      25   25827   25824      24   25830   25824      24
   25830   25827      25   25836   25833      24   25839   25833      24   25839
   25836      25   25845   25842      24   25848   25842      24   25848   25845
      25   25854   25851      24   25857   25851      24   25857   25854      25
   25863   25860      24   25866   25860      24   25866   25863      25   25872
   25869      24   25875   25869      24   25875   25872      25   25881   25878
      24   25884   25878      24   25884   25881      25   25890   25887      24
   25893   25887      24   25893   25890      25   25899   25896      24   25902
   25896      24   25902   25899      25   25908   25905      24   25911   25905
      24   25911   25908      25   25917   25914      24   25920   25914      24
   25920   25917      25   25926   25923      24   25929   25923      24   25929
   25926      25   25935   25932      24   25938   25932      24   25938   25935
      25   25944   25941      24   25947   25941      24   25947   25944      25
   25953   25950      24   25956   25950      24   25956   25953      25   25962
   25959      24   25965   25959      24   25965   25962      25   25971   25968
      24   25974   25968      24   25974   25971      25   25980   25977      24
   25983   25977      24   25983   25980      25   25989   25986      24   25992
   25986      24   25992   25989      25   25998   25995      24   26001   25995
      24   26001   25998      25   26007   26004      24   26010   26004      24
   26010   26007      25   26016   26013      24   26019   26013      24   26019
   26016      25   26025   26022      24   26028   26022      24   26028   26025
      25   26034   26031      24   26037   26031      24   26037   26034      25
   26043   26040      24   26046   26040      24   26046   26043      25   26052
   26049      24   26055   26049      24   26055   26052      25   26061   26058
      24   26064   26058      24   26064   26061      25   26070   26067      24
   26073   26067      24   26073   26070      25   26079   26076      24   26082
   26076      24   26082   26079      25   26088   26085      24   26091   26085
      24   26091   26088      25   26097   26094      24   26100   26094      24
   26100   26097      25   26106   26103      24   26109   26103      24   26109
   26106      25   26115   26112      24   26118   26112      24   26118   26115
      25   26124   26121      24   26127   26121      24   26127   26124      25
   26133   26130      24   26136   26130      24   26136   26133      25   26142
   26139      24   26145   26139      24   26145   26142      25   26151   26148
      24   26154   26148      24   26154   26151      25   26160   26157      24
   26163   26157      24   26163   26160      25   26169   26166      24   26172
   26166      24   26172   26169      25   26178   26175      24   26181   26175
      24   26181   26178      25   26187   26184      24   26190   26184      24
   26190   26187      25   26196   26193      24   26199   26193      24   26199
   26196      25   26205   26202      24   26208   26202      24   26208   26205
      25   26214   26211      24   26217   26211      24   26217   26214      25
   26223   26220      24   26226   26220      24   26226   26223      25   26232
   26229      24   26235   26229      24   26235   26232      25   26241   26238
      24   26244   26238      24   26244   26241      25   26250   26247      24
   26253   26247      24   26253   26250      25   26259   26256      24   26262
   26256      24   26262   26259      25   26268   26265      24   26271   26265
      24   26271   26268      25   26277   26274      24   26280   26274      24
   26280   26277      25   26286   26283      24   26289   26283      24   26289
   26286      25   26295   26292      24   26298   26292      24   26298   26295
      25   26304   26301      24   26307   26301      24   26307   26304      25
   26313   26310      24   26316   26310      24   26316   26313      25   26322
   26319      24   26325   26319      24   26325   26322      25   26331   26328
      24   26334   26328      24   26334   26331      25   26340   26337      24
   26343   26337      24   26343   26340      25   26349   26346      24   26352
   26346      24   26352   26349      25   26358   26355      24   26361   26355
      24   26361   26358      25   26367   26364      24   26370   26364      24
   26370   26367      25   26376   26373      24   26379   26373      24   26379
   26376      25   26385   26382      24   26388   26382      24   26388   26385
      25   26394   26391      24   26397   26391      24   26397   26394      25
   26403   26400      24   26406   26400      24   26406   26403      25   26412
   26409      24   26415   26409      24   26415   26412      25   26421   26418
      24   26424   26418      24   26424   26421      25   26430   26427      24
   26433   26427      24   26433   26430      25   26439   26436      24   26442
   26436      24   26442   26439      25   26448   26445      24   26451   26445
      24   26451   26448      25   26457   26454      24   26460   26454      24
   26460   26457      25   26466   26463      24   26469   26463      24   26469
   26466      25   26475   26472      24   26478   26472      24   26478   26475
      25   26484   26481      24   26487   26481      24   26487   26484      25
   26493   26490      24   26496   26490      24   26496   26493      25   26502
   26499      24   26505   26499      24   26505   26502      25   26511   26508
      24   26514   26508      24   26514   26511      25   26520   26517      24
   26523   26517      24   26523   26520      25   26529   26526      24   26532
   26526      24   26532   26529      25   26538   26535      24   26541   26535
      24   26541   26538      25   26547   26544      24   26550   26544      24
   26550   26547      25   26556   26553      24   26559   26553      24   26559
   26556      25   26565   26562      24   26568   26562      24   26568   26565
      25   26574   26571      24   26577   26571      24   26577   26574      25
   26583   26580      24   26586   26580      24   26586   26583      25   26592
   26589      24   26595   26589      24   26595   26592      25   26601   26598
      24   26604   26598      24   26604   26601      25   26610   26607      24
   26613   26607      24   26613   26610      25   26619   26616      24   26622
   26616      24   26622   26619      25   26628   26625      24   26631   26625
      24   26631   26628      25   26637   26634      24   26640   26634      24
   26640   26637      25   26646   26643      24   26649   26643      24   26649
   26646      25   26655   26652      24   26658   26652      24   26658   26655
      25   26664   26661      24   26667   26661      24   26667   26664      25
   26673   26670      24   26676   26670      24   26676   26673      25   26682
   26679      24   26685   26679      24   26685   26682      25   26691   26688
      24   26694   26688      24   26694   26691      25   26700   26697      24
   26703   26697      24   26703   26700      25   26709   26706      24   26712
   26706      24   26712   26709      25   26718   26715      24   26721   26715
      24   26721   26718      25   26727   26724      24   26730   26724      24
   26730   26727      25   26736   26733      24   26739   26733      24   26739
   26736      25   26745   26742      24   26748   26742      24   26748   26745
      25   26754   26751      24   26757   26751      24   26757   26754      25
   26763   26760      24   26766   26760      24   26766   26763      25   26772
   26769      24   26775   26769      24   26775   26772      25   26781   26778
      24   26784   26778      24   26784   26781      25   26790   26787      24
   26793   26787      24   26793   26790      25   26799   26796      24   26802
   26796      24   26802   26799      25   26808   26805      24   26811   26805
      24   26811   26808      25   26817   26814      24   26820   26814      24
   26820   26817      25   26826   26823      24   26829   26823      24   26829
   26826      25   26835   26832      24   26838   26832      24   26838   26835
      25   26844   26841      24   26847   26841      24   26847   26844      25
   26853   26850      24   26856   26850      24   26856   26853      25   26862
   26859      24   26865   26859      24   26865   26862      25   26871   26868
      24   26874   26868      24   26874   26871      25   26880   26877      24
   26883   26877      24   26883   26880      25   26889   26886      24   26892
   26886      24   26892   26889      25   26898   26895      24   26901   26895
      24   26901   26898      25   26907   26904      24   26910   26904      24
   26910   26907      25   26916   26913      24   26919   26913      24   26919
   26916      25   26925   26922      24   26928   26922      24   26928   26925
      25   26934   26931      24   26937   26931      24   26937   26934      25
   26943   26940      24   26946   26940      24   26946   26943      25   26952
   26949      24   26955   26949      24   26955   26952      25   26961   26958
      24   26964   26958      24   26964   26961      25   26970   26967      24
   26973   26967      24   26973   26970      25   26979   26976      24   26982
   26976      24   26982   26979      25   26988   26985      24   26991   26985
      24   26991   26988      25   26997   26994      24   27000   26994      24
   27000   26997      25   27006   27003      24   27009   27003      24   27009
   27006      25   27015   27012      24   27018   27012      24   27018   27015
      25   27024   27021      24   27027   27021      24   27027   27024      25
   27033   27030      24   27036   27030      24   27036   27033      25   27042
   27039      24   27045   27039      24   27045   27042      25   27051   27048
      24   27054   27048      24   27054   27051      25   27060   27057      24
   27063   27057      24   27063   27060      25   27069   27066      24   27072
   27066      24   27072   27069      25   27078   27075      24   27081   27075
      24   27081   27078      25   27087   27084      24   27090   27084      24
   27090   27087      25   27096   27093      24   27099   27093      24   27099
   27096      25   27105   27102      24   27108   27102      24   27108   27105
      25   27114   27111      24   27117   27111      24   27117   27114      25
   27123   27120      24   27126   27120      24   27126   27123      25   27132
   27129      24   27135   27129      24   27135   27132      25   27141   27138
      24   27144   27138      24   27144   27141      25   27150   27147      24
   27153   27147      24   27153   27150      25   27159   27156      24   27162
   27156      24   27162   27159      25   27168   27165      24   27171   27165
      24   27171   27168      25   27177   27174      24   27180   27174      24
   27180   27177      25   27186   27183      24   27189   27183      24   27189
   27186      25   27195   27192      24   27198   27192      24   27198   27195
      25   27204   27201      24   27207   27201      24   27207   27204      25
   27213   27210      24   27216   27210      24   27216   27213      25   27222
   27219      24   27225   27219      24   27225   27222      25   27231   27228
      24   27234   27228      24   27234   27231      25   27240   27237      24
   27243   27237      24   27243   27240      25   27249   27246      24   27252
   27246      24   27252   27249      25   27258   27255      24   27261   27255
      24   27261   27258      25   27267   27264      24   27270   27264      24
   27270   27267      25   27276   27273      24   27279   27273      24   27279
   27276      25   27285   27282      24   27288   27282      24   27288   27285
      25   27294   27291      24   27297   27291      24   27297   27294      25
   27303   27300      24   27306   27300      24   27306   27303      25   27312
   27309      24   27315   27309      24   27315   27312      25   27321   27318
      24   27324   27318      24   27324   27321      25   27330   27327      24
   27333   27327      24   27333   27330      25   27339   27336      24   27342
   27336      24   27342   27339      25   27348   27345      24   27351   27345
      24   27351   27348      25   27357   27354      24   27360   27354      24
   27360   27357      25   27366   27363      24   27369   27363      24   27369
   27366      25   27375   27372      24   27378   27372      24   27378   27375
      25   27384   27381      24   27387   27381      24   27387   27384      25
   27393   27390      24   27396   27390      24   27396   27393      25   27402
   27399      24   27405   27399      24   27405   27402      25   27411   27408
      24   27414   27408      24   27414   27411      25   27420   27417      24
   27423   27417      24   27423   27420      25   27429   27426      24   27432
   27426      24   27432   27429      25   27438   27435      24   27441   27435
      24   27441   27438      25   27447   27444      24   27450   27444      24
   27450   27447      25   27456   27453      24   27459   27453      24   27459
   27456      25   27465   27462      24   27468   27462      24   27468   27465
      25   27474   27471      24   27477   27471      24   27477   27474      25
   27483   27480      24   27486   27480      24   27486   27483      25   27492
   27489      24   27495   27489      24   27495   27492      25   27501   27498
      24   27504   27498      24   27504   27501      25   27510   27507      24
   27513   27507      24   27513   27510      25   27519   27516      24   27522
   27516      24   27522   27519      25   27528   27525      24   27531   27525
      24   27531   27528      25   27537   27534      24   27540   27534      24
   27540   27537      25   27546   27543      24   27549   27543      24   27549
   27546      25   27555   27552      24   27558   27552      24   27558   27555
      25   27564   27561      24   27567   27561      24   27567   27564      25
   27573   27570      24   27576   27570      24   27576   27573      25   27582
   27579      24   27585   27579      24   27585   27582      25   27591   27588
      24   27594   27588      24   27594   27591      25   27600   27597      24
   27603   27597      24   27603   27600      25   27609   27606      24   27612
   27606      24   27612   27609      25   27618   27615      24   27621   27615
      24   27621   27618      25   27627   27624      24   27630   27624      24
   27630   27627      25   27636   27633      24   27639   27633      24   27639
   27636      25   27645   27642      24   27648   27642      24   27648   27645
      25   27654   27651      24   27657   27651      24   27657   27654      25
   27663   27660      24   27666   27660      24   27666   27663      25   27672
   27669      24   27675   27669      24   27675   27672      25   27681   27678
      24   27684   27678      24   27684   27681      25   27690   27687      24
   27693   27687      24   27693   27690      25   27699   27696      24   27702
   27696      24   27702   27699      25   27708   27705      24   27711   27705
      24   27711   27708      25   27717   27714      24   27720   27714      24
   27720   27717      25   27726   27723      24   27729   27723      24   27729
   27726      25   27735   27732      24   27738   27732      24   27738   27735
      25   27744   27741      24   27747   27741      24   27747   27744      25
   27753   27750      24   27756   27750      24   27756   27753      25   27762
   27759      24   27765   27759      24   27765   27762      25   27771   27768
      24   27774   27768      24   27774   27771      25   27780   27777      24
   27783   27777      24   27783   27780      25   27789   27786      24   27792
   27786      24   27792   27789      25   27798   27795      24   27801   27795
      24   27801   27798      25   27807   27804      24   27810   27804      24
   27810   27807      25   27816   27813      24   27819   27813      24   27819
   27816      25   27825   27822      24   27828   27822      24   27828   27825
      25   27834   27831      24   27837   27831      24   27837   27834      25
   27843   27840      24   27846   27840      24   27846   27843      25   27852
   27849      24   27855   27849      24   27855   27852      25   27861   27858
      24   27864   27858      24   27864   27861      25   27870   27867      24
   27873   27867      24   27873   27870      25   27879   27876      24   27882
   27876      24   27882   27879      25   27888   27885      24   27891   27885
      24   27891   27888      25   27897   27894      24   27900   27894      24
   27900   27897      25   27906   27903      24   27909   27903      24   27909
   27906      25   27915   27912      24   27918   27912      24   27918   27915
      25   27924   27921      24   27927   27921      24   27927   27924      25
   27933   27930      24   27936   27930      24   27936   27933      25   27942
   27939      24   27945   27939      24   27945   27942      25   27951   27948
      24   27954   27948      24   27954   27951      25   27960   27957      24
   27963   27957      24   27963   27960      25   27969   27966      24   27972
   27966      24   27972   27969      25   27978   27975      24   27981   27975
      24   27981   27978      25   27987   27984      24   27990   27984      24
   27990   27987      25   27996   27993      24   27999   27993      24   27999
   27996      25   28005   28002      24   28008   28002      24   28008   28005
      25   28014   28011      24   28017   28011      24   28017   28014      25
   28023   28020      24   28026   28020      24   28026   28023      25   28032
   28029      24   28035   28029      24   28035   28032      25   28041   28038
      24   28044   28038      24   28044   28041      25   28050   28047      24
   28053   28047      24   28053   28050      25   28059   28056      24   28062
   28056      24   28062   28059      25   28068   28065      24   28071   28065
      24   28071   28068      25   28077   28074      24   28080   28074      24
   28080   28077      25   28086   28083      24   28089   28083      24   28089
   28086      25   28095   28092      24   28098   28092      24   28098   28095
      25   28104   28101      24   28107   28101      24   28107   28104      25
   28113   28110      24   28116   28110      24   28116   28113      25   28122
   28119      24   28125   28119      24   28125   28122      25   28131   28128
      24   28134   28128      24   28134   28131      25   28140   28137      24
   28143   28137      24   28143   28140      25   28149   28146      24   28152
   28146      24   28152   28149      25   28158   28155      24   28161   28155
      24   28161   28158      25   28167   28164      24   28170   28164      24
   28170   28167      25   28176   28173      24   28179   28173      24   28179
   28176      25   28185   28182      24   28188   28182      24   28188   28185
      25   28194   28191      24   28197   28191      24   28197   28194      25
   28203   28200      24   28206   28200      24   28206   28203      25   28212
   28209      24   28215   28209      24   28215   28212      25   28221   28218
      24   28224   28218      24   28224   28221      25   28230   28227      24
   28233   28227      24   28233   28230      25   28239   28236      24   28242
   28236      24   28242   28239      25   28248   28245      24   28251   28245
      24   28251   28248      25   28257   28254      24   28260   28254      24
   28260   28257      25   28266   28263      24   28269   28263      24   28269
   28266      25   28275   28272      24   28278   28272      24   28278   28275
      25   28284   28281      24   28287   28281      24   28287   28284      25
   28293   28290      24   28296   28290      24   28296   28293      25   28302
   28299      24   28305   28299      24   28305   28302      25   28311   28308
      24   28314   28308      24   28314   28311      25   28320   28317      24
   28323   28317      24   28323   28320      25   28329   28326      24   28332
   28326      24   28332   28329      25   28338   28335      24   28341   28335
      24   28341   28338      25   28347   28344      24   28350   28344      24
   28350   28347      25   28356   28353      24   28359   28353      24   28359
   28356      25   28365   28362      24   28368   28362      24   28368   28365
      25   28374   28371      24   28377   28371      24   28377   28374      25
   28383   28380      24   28386   28380      24   28386   28383      25   28392
   28389      24   28395   28389      24   28395   28392      25   28401   28398
      24   28404   28398      24   28404   28401      25   28410   28407      24
   28413   28407      24   28413   28410      25   28419   28416      24   28422
   28416      24   28422   28419      25   28428   28425      24   28431   28425
      24   28431   28428      25   28437   28434      24   28440   28434      24
   28440   28437      25   28446   28443      24   28449   28443      24   28449
   28446      25   28455   28452      24   28458   28452      24   28458   28455
      25   28464   28461      24   28467   28461      24   28467   28464      25
   28473   28470      24   28476   28470      24   28476   28473      25   28482
   28479      24   28485   28479      24   28485   28482      25   28491   28488
      24   28494   28488      24   28494   28491      25   28500   28497      24
   28503   28497      24   28503   28500      25   28509   28506      24   28512
   28506      24   28512   28509      25   28518   28515      24   28521   28515
      24   28521   28518      25   28527   28524      24   28530   28524      24
   28530   28527      25   28536   28533      24   28539   28533      24   28539
   28536      25   28545   28542      24   28548   28542      24   28548   28545
      25   28554   28551      24   28557   28551      24   28557   28554      25
   28563   28560      24   28566   28560      24   28566   28563      25   28572
   28569      24   28575   28569      24   28575   28572      25   28581   28578
      24   28584   28578      24   28584   28581      25   28590   28587      24
   28593   28587      24   28593   28590      25   28599   28596      24   28602
   28596      24   28602   28599      25   28608   28605      24   28611   28605
      24   28611   28608      25   28617   28614      24   28620   28614      24
   28620   28617      25   28626   28623      24   28629   28623      24   28629
   28626      25   28635   28632      24   28638   28632      24   28638   28635
      25   28644   28641      24   28647   28641      24   28647   28644      25
   28653   28650      24   28656   28650      24   28656   28653      25   28662
   28659      24   28665   28659      24   28665   28662      25   28671   28668
      24   28674   28668      24   28674   28671      25   28680   28677      24
   28683   28677      24   28683   28680      25   28689   28686      24   28692
   28686      24   28692   28689      25   28698   28695      24   28701   28695
      24   28701   28698      25   28707   28704      24   28710   28704      24
   28710   28707      25   28716   28713      24   28719   28713      24   28719
   28716      25   28725   28722      24   28728   28722      24   28728   28725
      25   28734   28731      24   28737   28731      24   28737   28734      25
   28743   28740      24   28746   28740      24   28746   28743      25   28752
   28749      24   28755   28749      24   28755   28752      25   28761   28758
      24   28764   28758      24   28764   28761      25   28770   28767      24
   28773   28767      24   28773   28770      25   28779   28776      24   28782
   28776      24   28782   28779      25   28788   28785      24   28791   28785
      24   28791   28788      25   28797   28794      24   28800   28794      24
   28800   28797      25   28806   28803      24   28809   28803      24   28809
   28806      25   28815   28812      24   28818   28812      24   28818   28815
      25   28824   28821      24   28827   28821      24   28827   28824      25
   28833   28830      24   28836   28830      24   28836   28833      25   28842
   28839      24   28845   28839      24   28845   28842      25   28851   28848
      24   28854   28848      24   28854   28851      25   28860   28857      24
   28863   28857      24   28863   28860      25   28869   28866      24   28872
   28866      24   28872   28869      25   28878   28875      24   28881   28875
      24   28881   28878      25   28887   28884      24   28890   28884      24
   28890   28887      25   28896   28893      24   28899   28893      24   28899
   28896      25   28905   28902      24   28908   28902      24   28908   28905
      25   28914   28911      24   28917   28911      24   28917   28914      25
   28923   28920      24   28926   28920      24   28926   28923      25   28932
   28929      24   28935   28929      24   28935   28932      25   28941   28938
      24   28944   28938      24   28944   28941      25   28950   28947      24
   28953   28947      24   28953   28950      25   28959   28956      24   28962
   28956      24   28962   28959      25   28968   28965      24   28971   28965
      24   28971   28968      25   28977   28974      24   28980   28974      24
   28980   28977      25   28986   28983      24   28989   28983      24   28989
   28986      25   28995   28992      24   28998   28992      24   28998   28995
      25   29004   29001      24   29007   29001      24   29007   29004      25
   29013   29010      24   29016   29010      24   29016   29013      25   29022
   29019      24   29025   29019      24   29025   29022      25   29031   29028
      24   29034   29028      24   29034   29031      25   29040   29037      24
   29043   29037      24   29043   29040      25   29049   29046      24   29052
   29046      24   29052   29049      25   29058   29055      24   29061   29055
      24   29061   29058      25   29067   29064      24   29070   29064      24
   29070   29067      25   29076   29073      24   29079   29073      24   29079
   29076      25   29085   29082      24   29088   29082      24   29088   29085
      25   29094   29091      24   29097   29091      24   29097   29094      25
   29103   29100      24   29106   29100      24   29106   29103      25   29112
   29109      24   29115   29109      24   29115   29112      25   29121   29118
      24   29124   29118      24   29124   29121      25   29130   29127      24
   29133   29127      24   29133   29130      25   29139   29136      24   29142
   29136      24   29142   29139      25   29148   29145      24   29151   29145
      24   29151   29148      25   29157   29154      24   29160   29154      24
   29160   29157      25   29166   29163      24   29169   29163      24   29169
   29166      25   29175   29172      24   29178   29172      24   29178   29175
      25   29184   29181      24   29187   29181      24   29187   29184      25
   29193   29190      24   29196   29190      24   29196   29193      25   29202
   29199      24   29205   29199      24   29205   29202      25   29211   29208
      24   29214   29208      24   29214   29211      25   29220   29217      24
   29223   29217      24   29223   29220      25   29229   29226      24   29232
   29226      24   29232   29229      25   29238   29235      24   29241   29235
      24   29241   29238      25   29247   29244      24   29250   29244      24
   29250   29247      25   29256   29253      24   29259   29253      24   29259
   29256      25   29265   29262      24   29268   29262      24   29268   29265
      25   29274   29271      24   29277   29271      24   29277   29274      25
   29283   29280      24   29286   29280      24   29286   29283      25   29292
   29289      24   29295   29289      24   29295   29292      25   29301   29298
      24   29304   29298      24   29304   29301      25   29310   29307      24
   29313   29307      24   29313   29310      25   29319   29316      24   29322
   29316      24   29322   29319      25   29328   29325      24   29331   29325
      24   29331   29328      25   29337   29334      24   29340   29334      24
   29340   29337      25   29346   29343      24   29349   29343      24   29349
   29346      25   29355   29352      24   29358   29352      24   29358   29355
      25   29364   29361      24   29367   29361      24   29367   29364      25
   29373   29370      24   29376   29370      24   29376   29373      25   29382
   29379      24   29385   29379      24   29385   29382      25   29391   29388
      24   29394   29388      24   29394   29391      25   29400   29397      24
   29403   29397      24   29403   29400      25   29409   29406      24   29412
   29406      24   29412   29409      25   29418   29415      24   29421   29415
      24   29421   29418      25   29427   29424      24   29430   29424      24
   29430   29427      25   29436   29433      24   29439   29433      24   29439
   29436      25   29445   29442      24   29448   29442      24   29448   29445
      25   29454   29451      24   29457   29451      24   29457   29454      25
   29463   29460      24   29466   29460      24   29466   29463      25   29472
   29469      24   29475   29469      24   29475   29472      25   29481   29478
      24   29484   29478      24   29484   29481      25   29490   29487      24
   29493   29487      24   29493   29490      25   29499   29496      24   29502
   29496      24   29502   29499      25   29508   29505      24   29511   29505
      24   29511   29508      25   29517   29514      24   29520   29514      24
   29520   29517      25   29526   29523      24   29529   29523      24   29529
   29526      25   29535   29532      24   29538   29532      24   29538   29535
      25   29544   29541      24   29547   29541      24   29547   29544      25
   29553   29550      24   29556   29550      24   29556   29553      25   29562
   29559      24   29565   29559      24   29565   29562      25   29571   29568
      24   29574   29568      24   29574   29571      25   29580   29577      24
   29583   29577      24   29583   29580      25   29589   29586      24   29592
   29586      24   29592   29589      25   29598   29595      24   29601   29595
      24   29601   29598      25   29607   29604      24   29610   29604      24
   29610   29607      25   29616   29613      24   29619   29613      24   29619
   29616      25   29625   29622      24   29628   29622      24   29628   29625
      25   29634   29631      24   29637   29631      24   29637   29634      25
   29643   29640      24   29646   29640      24   29646   29643      25   29652
   29649      24   29655   29649      24   29655   29652      25   29661   29658
      24   29664   29658      24   29664   29661      25   29670   29667      24
   29673   29667      24   29673   29670      25   29679   29676      24   29682
   29676      24   29682   29679      25   29688   29685      24   29691   29685
      24   29691   29688      25   29697   29694      24   29700   29694      24
   29700   29697      25   29706   29703      24   29709   29703      24   29709
   29706      25   29715   29712      24   29718   29712      24   29718   29715
      25   29724   29721      24   29727   29721      24   29727   29724      25
   29733   29730      24   29736   29730      24   29736   29733      25   29742
   29739      24   29745   29739      24   29745   29742      25   29751   29748
      24   29754   29748      24   29754   29751      25   29760   29757      24
   29763   29757      24   29763   29760      25   29769   29766      24   29772
   29766      24   29772   29769      25   29778   29775      24   29781   29775
      24   29781   29778      25   29787   29784      24   29790   29784      24
   29790   29787      25   29796   29793      24   29799   29793      24   29799
   29796      25   29805   29802      24   29808   29802      24   29808   29805
      25   29814   29811      24   29817   29811      24   29817   29814      25
   29823   29820      24   29826   29820      24   29826   29823      25   29832
   29829      24   29835   29829      24   29835   29832      25   29841   29838
      24   29844   29838      24   29844   29841      25   29850   29847      24
   29853   29847      24   29853   29850      25   29859   29856      24   29862
   29856      24   29862   29859      25   29868   29865      24   29871   29865
      24   29871   29868      25   29877   29874      24   29880   29874      24
   29880   29877      25   29886   29883      24   29889   29883      24   29889
   29886      25   29895   29892      24   29898   29892      24   29898   29895
      25   29904   29901      24   29907   29901      24   29907   29904      25
   29913   29910      24   29916   29910      24   29916   29913      25   29922
   29919      24   29925   29919      24   29925   29922      25   29931   29928
      24   29934   29928      24   29934   29931      25   29940   29937      24
   29943   29937      24   29943   29940      25   29949   29946      24   29952
   29946      24   29952   29949      25   29958   29955      24   29961   29955
      24   29961   29958      25   29967   29964      24   29970   29964      24
   29970   29967      25   29976   29973      24   29979   29973      24   29979
   29976      25   29985   29982      24   29988   29982      24   29988   29985
      25   29994   29991      24   29997   29991      24   29997   29994      25
   30003   30000      24   30006   30000      24   30006   30003      25   30012
   30009      24   30015   30009      24   30015   30012      25   30021   30018
      24   30024   30018      24   30024   30021      25   30030   30027      24
   30033   30027      24   30033   30030      25   30039   30036      24   30042
   30036      24   30042   30039      25   30048   30045      24   30051   30045
      24   30051   30048      25   30057   30054      24   30060   30054      24
   30060   30057      25   30066   30063      24   30069   30063      24   30069
   30066      25   30075   30072      24   30078   30072      24   30078   30075
      25   30084   30081      24   30087   30081      24   30087   30084      25
   30093   30090      24   30096   30090      24   30096   30093      25   30102
   30099      24   30105   30099      24   30105   30102      25   30111   30108
      24   30114   30108      24   30114   30111      25   30120   30117      24
   30123   30117      24   30123   30120      25   30129   30126      24   30132
   30126      24   30132   30129      25   30138   30135      24   30141   30135
      24   30141   30138      25   30147   30144      24   30150   30144      24
   30150   30147      25   30156   30153      24   30159   30153      24   30159
   30156      25   30165   30162      24   30168   30162      24   30168   30165
      25   30174   30171      24   30177   30171      24   30177   30174      25
   30183   30180      24   30186   30180      24   30186   30183      25   30192
   30189      24   30195   30189      24   30195   30192      25   30201   30198
      24   30204   30198      24   30204   30201      25   30210   30207      24
   30213   30207      24   30213   30210      25   30219   30216      24   30222
   30216      24   30222   30219      25   30228   30225      24   30231   30225
      24   30231   30228      25   30237   30234      24   30240   30234      24
   30240   30237      25   30246   30243      24   30249   30243      24   30249
   30246      25   30255   30252      24   30258   30252      24   30258   30255
      25   30264   30261      24   30267   30261      24   30267   30264      25
   30273   30270      24   30276   30270      24   30276   30273      25   30282
   30279      24   30285   30279      24   30285   30282      25   30291   30288
      24   30294   30288      24   30294   30291      25   30300   30297      24
   30303   30297      24   30303   30300      25   30309   30306      24   30312
   30306      24   30312   30309      25   30318   30315      24   30321   30315
      24   30321   30318      25   30327   30324      24   30330   30324      24
   30330   30327      25   30336   30333      24   30339   30333      24   30339
   30336      25   30345   30342      24   30348   30342      24   30348   30345
      25   30354   30351      24   30357   30351      24   30357   30354      25
   30363   30360      24   30366   30360      24   30366   30363      25   30372
   30369      24   30375   30369      24   30375   30372      25   30381   30378
      24   30384   30378      24   30384   30381      25   30390   30387      24
   30393   30387      24   30393   30390      25   30399   30396      24   30402
   30396      24   30402   30399      25   30408   30405      24   30411   30405
      24   30411   30408      25   30417   30414      24   30420   30414      24
   30420   30417      25   30426   30423      24   30429   30423      24   30429
   30426      25   30435   30432      24   30438   30432      24   30438   30435
      25   30444   30441      24   30447   30441      24   30447   30444      25
   30453   30450      24   30456   30450      24   30456   30453      25   30462
   30459      24   30465   30459      24   30465   30462      25   30471   30468
      24   30474   30468      24   30474   30471      25   30480   30477      24
   30483   30477      24   30483   30480      25   30489   30486      24   30492
   30486      24   30492   30489      25   30498   30495      24   30501   30495
      24   30501   30498      25   30507   30504      24   30510   30504      24
   30510   30507      25   30516   30513      24   30519   30513      24   30519
   30516      25   30525   30522      24   30528   30522      24   30528   30525
      25   30534   30531      24   30537   30531      24   30537   30534      25
   30543   30540      24   30546   30540      24   30546   30543      25   30552
   30549      24   30555   30549      24   30555   30552      25   30561   30558
      24   30564   30558      24   30564   30561      25   30570   30567      24
   30573   30567      24   30573   30570      25   30579   30576      24   30582
   30576      24   30582   30579      25   30588   30585      24   30591   30585
      24   30591   30588      25   30597   30594      24   30600   30594      24
   30600   30597      25   30606   30603      24   30609   30603      24   30609
   30606      25   30615   30612      24   30618   30612      24   30618   30615
      25   30624   30621      24   30627   30621      24   30627   30624      25
   30633   30630      24   30636   30630      24   30636   30633      25   30642
   30639      24   30645   30639      24   30645   30642      25   30651   30648
      24   30654   30648      24   30654   30651      25   30660   30657      24
   30663   30657      24   30663   30660      25   30669   30666      24   30672
   30666      24   30672   30669      25   30678   30675      24   30681   30675
      24   30681   30678      25   30687   30684      24   30690   30684      24
   30690   30687      25   30696   30693      24   30699   30693      24   30699
   30696      25   30705   30702      24   30708   30702      24   30708   30705
      25   30714   30711      24   30717   30711      24   30717   30714      25
   30723   30720      24   30726   30720      24   30726   30723      25   30732
   30729      24   30735   30729      24   30735   30732      25   30741   30738
      24   30744   30738      24   30744   30741      25   30750   30747      24
   30753   30747      24   30753   30750      25   30759   30756      24   30762
   30756      24   30762   30759      25   30768   30765      24   30771   30765
      24   30771   30768      25   30777   30774      24   30780   30774      24
   30780   30777      25   30786   30783      24   30789   30783      24   30789
   30786      25   30795   30792      24   30798   30792      24   30798   30795
      25   30804   30801      24   30807   30801      24   30807   30804      25
   30813   30810      24   30816   30810      24   30816   30813      25   30822
   30819      24   30825   30819      24   30825   30822      25   30831   30828
      24   30834   30828      24   30834   30831      25   30840   30837      24
   30843   30837      24   30843   30840      25   30849   30846      24   30852
   30846      24   30852   30849      25   30858   30855      24   30861   30855
      24   30861   30858      25   30867   30864      24   30870   30864      24
   30870   30867      25   30876   30873      24   30879   30873      24   30879
   30876      25   30885   30882      24   30888   30882      24   30888   30885
      25   30894   30891      24   30897   30891      24   30897   30894      25
   30903   30900      24   30906   30900      24   30906   30903      25   30912
   30909      24   30915   30909      24   30915   30912      25   30921   30918
      24   30924   30918      24   30924   30921      25   30930   30927      24
   30933   30927      24   30933   30930      25   30939   30936      24   30942
   30936      24   30942   30939      25   30948   30945      24   30951   30945
      24   30951   30948      25   30957   30954      24   30960   30954      24
   30960   30957      25   30966   30963      24   30969   30963      24   30969
   30966      25   30975   30972      24   30978   30972      24   30978   30975
      25   30984   30981      24   30987   30981      24   30987   30984      25
   30993   30990      24   30996   30990      24   30996   30993      25   31002
   30999      24   31005   30999      24   31005   31002      25   31011   31008
      24   31014   31008      24   31014   31011      25   31020   31017      24
   31023   31017      24   31023   31020      25   31029   31026      24   31032
   31026      24   31032   31029      25   31038   31035      24   31041   31035
      24   31041   31038      25   31047   31044      24   31050   31044      24
   31050   31047      25   31056   31053      24   31059   31053      24   31059
   31056      25   31065   31062      24   31068   31062      24   31068   31065
      25   31074   31071      24   31077   31071      24   31077   31074      25
   31083   31080      24   31086   31080      24   31086   31083      25   31092
   31089      24   31095   31089      24   31095   31092      25   31101   31098
      24   31104   31098      24   31104   31101      25   31110   31107      24
   31113   31107      24   31113   31110      25   31119   31116      24   31122
   31116      24   31122   31119      25   31128   31125      24   31131   31125
      24   31131   31128      25   31137   31134      24   31140   31134      24
   31140   31137      25   31146   31143      24   31149   31143      24   31149
   31146      25   31155   31152      24   31158   31152      24   31158   31155
      25   31164   31161      24   31167   31161      24   31167   31164      25
   31173   31170      24   31176   31170      24   31176   31173      25   31182
   31179      24   31185   31179      24   31185   31182      25   31191   31188
      24   31194   31188      24   31194   31191      25   31200   31197      24
   31203   31197      24   31203   31200      25   31209   31206      24   31212
   31206      24   31212   31209      25   31218   31215      24   31221   31215
      24   31221   31218      25   31227   31224      24   31230   31224      24
   31230   31227      25   31236   31233      24   31239   31233      24   31239
   31236      25   31245   31242      24   31248   31242      24   31248   31245
      25   31254   31251      24   31257   31251      24   31257   31254      25
   31263   31260      24   31266   31260      24   31266   31263      25   31272
   31269      24   31275   31269      24   31275   31272      25   31281   31278
      24   31284   31278      24   31284   31281      25   31290   31287      24
   31293   31287      24   31293   31290      25   31299   31296      24   31302
   31296      24   31302   31299      25   31308   31305      24   31311   31305
      24   31311   31308      25   31317   31314      24   31320   31314      24
   31320   31317      25   31326   31323      24   31329   31323      24   31329
   31326      25   31335   31332      24   31338   31332      24   31338   31335
      25   31344   31341      24   31347   31341      24   31347   31344      25
   31353   31350      24   31356   31350      24   31356   31353      25   31362
   31359      24   31365   31359      24   31365   31362      25   31371   31368
      24   31374   31368      24   31374   31371      25   31380   31377      24
   31383   31377      24   31383   31380      25   31389   31386      24   31392
   31386      24   31392   31389      25   31398   31395      24   31401   31395
      24   31401   31398      25   31407   31404      24   31410   31404      24
   31410   31407      25   31416   31413      24   31419   31413      24   31419
   31416      25   31425   31422      24   31428   31422      24   31428   31425
      25   31434   31431      24   31437   31431      24   31437   31434      25
   31443   31440      24   31446   31440      24   31446   31443      25   31452
   31449      24   31455   31449      24   31455   31452      25   31461   31458
      24   31464   31458      24   31464   31461      25   31470   31467      24
   31473   31467      24   31473   31470      25   31479   31476      24   31482
   31476      24   31482   31479      25   31488   31485      24   31491   31485
      24   31491   31488      25   31497   31494      24   31500   31494      24
   31500   31497      25   31506   31503      24   31509   31503      24   31509
   31506      25   31515   31512      24   31518   31512      24   31518   31515
      25   31524   31521      24   31527   31521      24   31527   31524      25
   31533   31530      24   31536   31530      24   31536   31533      25   31542
   31539      24   31545   31539      24   31545   31542      25   31551   31548
      24   31554   31548      24   31554   31551      25   31560   31557      24
   31563   31557      24   31563   31560      25   31569   31566      24   31572
   31566      24   31572   31569      25   31578   31575      24   31581   31575
      24   31581   31578      25   31587   31584      24   31590   31584      24
   31590   31587      25   31596   31593      24   31599   31593      24   31599
   31596      25   31605   31602      24   31608   31602      24   31608   31605
      25   31614   31611      24   31617   31611      24   31617   31614      25
   31623   31620      24   31626   31620      24   31626   31623      25   31632
   31629      24   31635   31629      24   31635   31632      25   31641   31638
      24   31644   31638      24   31644   31641      25   31650   31647      24
   31653   31647      24   31653   31650      25   31659   31656      24   31662
   31656      24   31662   31659      25   31668   31665      24   31671   31665
      24   31671   31668      25   31677   31674      24   31680   31674      24
   31680   31677      25   31686   31683      24   31689   31683      24   31689
   31686      25   31695   31692      24   31698   31692      24   31698   31695
      25   31704   31701      24   31707   31701      24   31707   31704      25
   31713   31710      24   31716   31710      24   31716   31713      25   31722
   31719      24   31725   31719      24   31725   31722      25   31731   31728
      24   31734   31728      24   31734   31731      25   31740   31737      24
   31743   31737      24   31743   31740      25   31749   31746      24   31752
   31746      24   31752   31749      25   31758   31755      24   31761   31755
      24   31761   31758      25   31767   31764      24   31770   31764      24
   31770   31767      25   31776   31773      24   31779   31773      24   31779
   31776      25   31785   31782      24   31788   31782      24   31788   31785
      25   31794   31791      24   31797   31791      24   31797   31794      25
   31803   31800      24   31806   31800      24   31806   31803      25   31812
   31809      24   31815   31809      24   31815   31812      25   31821   31818
      24   31824   31818      24   31824   31821      25   31830   31827      24
   31833   31827      24   31833   31830      25   31839   31836      24   31842
   31836      24   31842   31839      25   31848   31845      24   31851   31845
      24   31851   31848      25   31857   31854      24   31860   31854      24
   31860   31857      25   31866   31863      24   31869   31863      24   31869
   31866      25   31875   31872      24   31878   31872      24   31878   31875
      25   31884   31881      24   31887   31881      24   31887   31884      25
   31893   31890      24   31896   31890      24   31896   31893      25   31902
   31899      24   31905   31899      24   31905   31902      25   31911   31908
      24   31914   31908      24   31914   31911      25   31920   31917      24
   31923   31917      24   31923   31920      25   31929   31926      24   31932
   31926      24   31932   31929      25   31938   31935      24   31941   31935
      24   31941   31938      25   31947   31944      24   31950   31944      24
   31950   31947      25   31956   31953      24   31959   31953      24   31959
   31956      25   31965   31962      24   31968   31962      24   31968   31965
      25   31974   31971      24   31977   31971      24   31977   31974      25
   31983   31980      24   31986   31980      24   31986   31983      25   31992
   31989      24   31995   31989      24   31995   31992      25   32001   31998
      24   32004   31998      24   32004   32001      25   32010   32007      24
   32013   32007      24   32013   32010      25   32019   32016      24   32022
   32016      24   32022   32019      25   32028   32025      24   32031   32025
      24   32031   32028      25   32037   32034      24   32040   32034      24
   32040   32037      25   32046   32043      24   32049   32043      24   32049
   32046      25   32055   32052      24   32058   32052      24   32058   32055
      25   32064   32061      24   32067   32061      24   32067   32064      25
   32073   32070      24   32076   32070      24   32076   32073      25   32082
   32079      24   32085   32079      24   32085   32082      25   32091   32088
      24   32094   32088      24   32094   32091      25   32100   32097      24
   32103   32097      24   32103   32100      25   32109   32106      24   32112
   32106      24   32112   32109      25   32118   32115      24   32121   32115
      24   32121   32118      25   32127   32124      24   32130   32124      24
   32130   32127      25   32136   32133      24   32139   32133      24   32139
   32136      25   32145   32142      24   32148   32142      24   32148   32145
      25   32154   32151      24   32157   32151      24   32157   32154      25
   32163   32160      24   32166   32160      24   32166   32163      25   32172
   32169      24   32175   32169      24   32175   32172      25   32181   32178
      24   32184   32178      24   32184   32181      25   32190   32187      24
   32193   32187      24   32193   32190      25   32199   32196      24   32202
   32196      24   32202   32199      25   32208   32205      24   32211   32205
      24   32211   32208      25   32217   32214      24   32220   32214      24
   32220   32217      25   32226   32223      24   32229   32223      24   32229
   32226      25   32235   32232      24   32238   32232      24   32238   32235
      25   32244   32241      24   32247   32241      24   32247   32244      25
   32253   32250      24   32256   32250      24   32256   32253      25   32262
   32259      24   32265   32259      24   32265   32262      25   32271   32268
      24   32274   32268      24   32274   32271      25   32280   32277      24
   32283   32277      24   32283   32280      25   32289   32286      24   32292
   32286      24   32292   32289      25   32298   32295      24   32301   32295
      24   32301   32298      25   32307   32304      24   32310   32304      24
   32310   32307      25   32316   32313      24   32319   32313      24   32319
   32316      25   32325   32322      24   32328   32322      24   32328   32325
      25   32334   32331      24   32337   32331      24   32337   32334      25
   32343   32340      24   32346   32340      24   32346   32343      25   32352
   32349      24   32355   32349      24   32355   32352      25   32361   32358
      24   32364   32358      24   32364   32361      25   32370   32367      24
   32373   32367      24   32373   32370      25   32379   32376      24   32382
   32376      24   32382   32379      25   32388   32385      24   32391   32385
      24   32391   32388      25   32397   32394      24   32400   32394      24
   32400   32397      25   32406   32403      24   32409   32403      24   32409
   32406      25   32415   32412      24   32418   32412      24   32418   32415
      25   32424   32421      24   32427   32421      24   32427   32424      25
   32433   32430      24   32436   32430      24   32436   32433      25   32442
   32439      24   32445   32439      24   32445   32442      25   32451   32448
      24   32454   32448      24   32454   32451      25   32460   32457      24
   32463   32457      24   32463   32460      25   32469   32466      24   32472
   32466      24   32472   32469      25   32478   32475      24   32481   32475
      24   32481   32478      25   32487   32484      24   32490   32484      24
   32490   32487      25   32496   32493      24   32499   32493      24   32499
   32496      25   32505   32502      24   32508   32502      24   32508   32505
      25   32514   32511      24   32517   32511      24   32517   32514      25
   32523   32520      24   32526   32520      24   32526   32523      25   32532
   32529      24   32535   32529      24   32535   32532      25   32541   32538
      24   32544   32538      24   32544   32541      25   32550   32547      24
   32553   32547      24   32553   32550      25   32559   32556      24   32562
   32556      24   32562   32559      25   32568   32565      24   32571   32565
      24   32571   32568      25   32577   32574      24   32580   32574      24
   32580   32577      25   32586   32583      24   32589   32583      24   32589
   32586      25   32595   32592      24   32598   32592      24   32598   32595
      25   32604   32601      24   32607   32601      24   32607   32604      25
   32613   32610      24   32616   32610      24   32616   32613      25   32622
   32619      24   32625   32619      24   32625   32622      25   32631   32628
      24   32634   32628      24   32634   32631      25   32640   32637      24
   32643   32637      24   32643   32640      25   32649   32646      24   32652
   32646      24   32652   32649      25   32658   32655      24   32661   32655
      24   32661   32658      25   32667   32664      24   32670   32664      24
   32670   32667      25   32676   32673      24   32679   32673      24   32679
   32676      25   32685   32682      24   32688   32682      24   32688   32685
      25   32694   32691      24   32697   32691      24   32697   32694      25
   32703   32700      24   32706   32700      24   32706   32703      25   32712
   32709      24   32715   32709      24   32715   32712      25   32721   32718
      24   32724   32718      24   32724   32721      25   32730   32727      24
   32733   32727      24   32733   32730      25   32739   32736      24   32742
   32736      24   32742   32739      25   32748   32745      24   32751   32745
      24   32751   32748      25   32757   32754      24   32760   32754      24
   32760   32757      25   32766   32763      24   32769   32763      24   32769
   32766      25   32775   32772      24   32778   32772      24   32778   32775
      25   32784   32781      24   32787   32781      24   32787   32784      25
   32793   32790      24   32796   32790      24   32796   32793      25   32802
   32799      24   32805   32799      24   32805   32802      25   32811   32808
      24   32814   32808      24   32814   32811      25   32820   32817      24
   32823   32817      24   32823   32820      25   32829   32826      24   32832
   32826      24   32832   32829      25   32838   32835      24   32841   32835
      24   32841   32838      25   32847   32844      24   32850   32844      24
   32850   32847      25   32856   32853      24   32859   32853      24   32859
   32856      25   32865   32862      24   32868   32862      24   32868   32865
      25   32874   32871      24   32877   32871      24   32877   32874      25
   32883   32880      24   32886   32880      24   32886   32883      25   32892
   32889      24   32895   32889      24   32895   32892      25   32901   32898
      24   32904   32898      24   32904   32901      25   32910   32907      24
   32913   32907      24   32913   32910      25   32919   32916      24   32922
   32916      24   32922   32919      25   32928   32925      24   32931   32925
      24   32931   32928      25   32937   32934      24   32940   32934      24
   32940   32937      25   32946   32943      24   32949   32943      24   32949
   32946      25   32955   32952      24   32958   32952      24   32958   32955
      25   32964   32961      24   32967   32961      24   32967   32964      25
   32973   32970      24   32976   32970      24   32976   32973      25   32982
   32979      24   32985   32979      24   32985   32982      25   32991   32988
      24   32994   32988      24   32994   32991      25   33000   32997      24
   33003   32997      24   33003   33000      25   33009   33006      24   33012
   33006      24   33012   33009      25   33018   33015      24   33021   33015
      24   33021   33018      25   33027   33024      24   33030   33024      24
   33030   33027      25   33036   33033      24   33039   33033      24   33039
   33036      25   33045   33042      24   33048   33042      24   33048   33045
      25   33054   33051      24   33057   33051      24   33057   33054      25
   33063   33060      24   33066   33060      24   33066   33063      25   33072
   33069      24   33075   33069      24   33075   33072      25   33081   33078
      24   33084   33078      24   33084   33081      25   33090   33087      24
   33093   33087      24   33093   33090      25   33099   33096      24   33102
   33096      24   33102   33099      25   33108   33105      24   33111   33105
      24   33111   33108      25   33117   33114      24   33120   33114      24
   33120   33117      25   33126   33123      24   33129   33123      24   33129
   33126      25   33135   33132      24   33138   33132      24   33138   33135
      25   33144   33141      24   33147   33141      24   33147   33144      25
   33153   33150      24   33156   33150      24   33156   33153      25   33162
   33159      24   33165   33159      24   33165   33162      25   33171   33168
      24   33174   33168      24   33174   33171      25   33180   33177      24
   33183   33177      24   33183   33180      25   33189   33186      24   33192
   33186      24   33192   33189      25   33198   33195      24   33201   33195
      24   33201   33198      25   33207   33204      24   33210   33204      24
   33210   33207      25   33216   33213      24   33219   33213      24   33219
   33216      25   33225   33222      24   33228   33222      24   33228   33225
      25   33234   33231      24   33237   33231      24   33237   33234      25
   33243   33240      24   33246   33240      24   33246   33243      25   33252
   33249      24   33255   33249      24   33255   33252      25   33261   33258
      24   33264   33258      24   33264   33261      25   33270   33267      24
   33273   33267      24   33273   33270      25   33279   33276      24   33282
   33276      24   33282   33279      25   33288   33285      24   33291   33285
      24   33291   33288      25   33297   33294      24   33300   33294      24
   33300   33297      25   33306   33303      24   33309   33303      24   33309
   33306      25   33315   33312      24   33318   33312      24   33318   33315
      25   33324   33321      24   33327   33321      24   33327   33324      25
   33333   33330      24   33336   33330      24   33336   33333      25   33342
   33339      24   33345   33339      24   33345   33342      25   33351   33348
      24   33354   33348      24   33354   33351      25   33360   33357      24
   33363   33357      24   33363   33360      25   33369   33366      24   33372
   33366      24   33372   33369      25   33378   33375      24   33381   33375
      24   33381   33378      25   33387   33384      24   33390   33384      24
   33390   33387      25   33396   33393      24   33399   33393      24   33399
   33396      25   33405   33402      24   33408   33402      24   33408   33405
      25   33414   33411      24   33417   33411      24   33417   33414      25
   33423   33420      24   33426   33420      24   33426   33423      25   33432
   33429      24   33435   33429      24   33435   33432      25   33441   33438
      24   33444   33438      24   33444   33441      25   33450   33447      24
   33453   33447      24   33453   33450      25   33459   33456      24   33462
   33456      24   33462   33459      25   33468   33465      24   33471   33465
      24   33471   33468      25   33477   33474      24   33480   33474      24
   33480   33477      25   33486   33483      24   33489   33483      24   33489
   33486      25   33495   33492      24   33498   33492      24   33498   33495
      25   33504   33501      24   33507   33501      24   33507   33504      25
   33513   33510      24   33516   33510      24   33516   33513      25   33522
   33519      24   33525   33519      24   33525   33522      25   33531   33528
      24   33534   33528      24   33534   33531      25   33540   33537      24
   33543   33537      24   33543   33540      25   33549   33546      24   33552
   33546      24   33552   33549      25   33558   33555      24   33561   33555
      24   33561   33558      25   33567   33564      24   33570   33564      24
   33570   33567      25   33576   33573      24   33579   33573      24   33579
   33576      25   33585   33582      24   33588   33582      24   33588   33585
      25   33594   33591      24   33597   33591      24   33597   33594      25
   33603   33600      24   33606   33600      24   33606   33603      25   33612
   33609      24   33615   33609      24   33615   33612      25   33621   33618
      24   33624   33618      24   33624   33621      25   33630   33627      24
   33633   33627      24   33633   33630      25   33639   33636      24   33642
   33636      24   33642   33639      25   33648   33645      24   33651   33645
      24   33651   33648      25   33657   33654      24   33660   33654      24
   33660   33657      25   33666   33663      24   33669   33663      24   33669
   33666      25   33675   33672      24   33678   33672      24   33678   33675
      25   33684   33681      24   33687   33681      24   33687   33684      25
   33693   33690      24   33696   33690      24   33696   33693      25   33702
   33699      24   33705   33699      24   33705   33702      25   33711   33708
      24   33714   33708      24   33714   33711      25   33720   33717      24
   33723   33717      24   33723   33720      25   33729   33726      24   33732
   33726      24   33732   33729      25   33738   33735      24   33741   33735
      24   33741   33738      25   33747   33744      24   33750   33744      24
   33750   33747      25   33756   33753      24   33759   33753      24   33759
   33756      25   33765   33762      24   33768   33762      24   33768   33765
      25   33774   33771      24   33777   33771      24   33777   33774      25
   33783   33780      24   33786   33780      24   33786   33783      25   33792
   33789      24   33795   33789      24   33795   33792      25   33801   33798
      24   33804   33798      24   33804   33801      25   33810   33807      24
   33813   33807      24   33813   33810      25   33819   33816      24   33822
   33816      24   33822   33819      25   33828   33825      24   33831   33825
      24   33831   33828      25   33837   33834      24   33840   33834      24
   33840   33837      25   33846   33843      24   33849   33843      24   33849
   33846      25   33855   33852      24   33858   33852      24   33858   33855
      25   33864   33861      24   33867   33861      24   33867   33864      25
   33873   33870      24   33876   33870      24   33876   33873      25   33882
   33879      24   33885   33879      24   33885   33882      25   33891   33888
      24   33894   33888      24   33894   33891      25   33900   33897      24
   33903   33897      24   33903   33900      25   33909   33906      24   33912
   33906      24   33912   33909      25   33918   33915      24   33921   33915
      24   33921   33918      25   33927   33924      24   33930   33924      24
   33930   33927      25   33936   33933      24   33939   33933      24   33939
   33936      25   33945   33942      24   33948   33942      24   33948   33945
      25   33954   33951      24   33957   33951      24   33957   33954      25
   33963   33960      24   33966   33960      24   33966   33963      25   33972
   33969      24   33975   33969      24   33975   33972      25   33981   33978
      24   33984   33978      24   33984   33981      25   33990   33987      24
   33993   33987      24   33993   33990      25   33999   33996      24   34002
   33996      24   34002   33999      25   34008   34005      24   34011   34005
      24   34011   34008      25   34017   34014      24   34020   34014      24
   34020   34017      25   34026   34023      24   34029   34023      24   34029
   34026      25   34035   34032      24   34038   34032      24   34038   34035
      25   34044   34041      24   34047   34041      24   34047   34044      25
   34053   34050      24   34056   34050      24   34056   34053      25   34062
   34059      24   34065   34059      24   34065   34062      25   34071   34068
      24   34074   34068      24   34074   34071      25   34080   34077      24
   34083   34077      24   34083   34080      25   34089   34086      24   34092
   34086      24   34092   34089      25   34098   34095      24   34101   34095
      24   34101   34098      25   34107   34104      24   34110   34104      24
   34110   34107      25   34116   34113      24   34119   34113      24   34119
   34116      25   34125   34122      24   34128   34122      24   34128   34125
      25   34134   34131      24   34137   34131      24   34137   34134      25
   34143   34140      24   34146   34140      24   34146   34143      25   34152
   34149      24   34155   34149      24   34155   34152      25   34161   34158
      24   34164   34158      24   34164   34161      25   34170   34167      24
   34173   34167      24   34173   34170      25   34179   34176      24   34182
   34176      24   34182   34179      25   34188   34185      24   34191   34185
      24   34191   34188      25   34197   34194      24   34200   34194      24
   34200   34197      25   34206   34203      24   34209   34203      24   34209
   34206      25   34215   34212      24   34218   34212      24   34218   34215
      25   34224   34221      24   34227   34221      24   34227   34224      25
   34233   34230      24   34236   34230      24   34236   34233      25   34242
   34239      24   34245   34239      24   34245   34242      25   34251   34248
      24   34254   34248      24   34254   34251      25   34260   34257      24
   34263   34257      24   34263   34260      25   34269   34266      24   34272
   34266      24   34272   34269      25   34278   34275      24   34281   34275
      24   34281   34278      25   34287   34284      24   34290   34284      24
   34290   34287      25   34296   34293      24   34299   34293      24   34299
   34296      25   34305   34302      24   34308   34302      24   34308   34305
      25   34314   34311      24   34317   34311      24   34317   34314      25
   34323   34320      24   34326   34320      24   34326   34323      25   34332
   34329      24   34335   34329      24   34335   34332      25   34341   34338
      24   34344   34338      24   34344   34341      25   34350   34347      24
   34353   34347      24   34353   34350      25   34359   34356      24   34362
   34356      24   34362   34359      25   34368   34365      24   34371   34365
      24   34371   34368      25   34377   34374      24   34380   34374      24
   34380   34377      25   34386   34383      24   34389   34383      24   34389
   34386      25   34395   34392      24   34398   34392      24   34398   34395
      25   34404   34401      24   34407   34401      24   34407   34404      25
   34413   34410      24   34416   34410      24   34416   34413      25   34422
   34419      24   34425   34419      24   34425   34422      25   34431   34428
      24   34434   34428      24   34434   34431      25   34440   34437      24
   34443   34437      24   34443   34440      25   34449   34446      24   34452
   34446      24   34452   34449      25   34458   34455      24   34461   34455
      24   34461   34458      25   34467   34464      24   34470   34464      24
   34470   34467      25   34476   34473      24   34479   34473      24   34479
   34476      25   34485   34482      24   34488   34482      24   34488   34485
      25   34494   34491      24   34497   34491      24   34497   34494      25
   34503   34500      24   34506   34500      24   34506   34503      25   34512
   34509      24   34515   34509      24   34515   34512      25   34521   34518
      24   34524   34518      24   34524   34521      25   34530   34527      24
   34533   34527      24   34533   34530      25   34539   34536      24   34542
   34536      24   34542   34539      25   34548   34545      24   34551   34545
      24   34551   34548      25   34557   34554      24   34560   34554      24
   34560   34557      25   34566   34563      24   34569   34563      24   34569
   34566      25   34575   34572      24   34578   34572      24   34578   34575
      25   34584   34581      24   34587   34581      24   34587   34584      25
   34593   34590      24   34596   34590      24   34596   34593      25   34602
   34599      24   34605   34599      24   34605   34602      25   34611   34608
      24   34614   34608      24   34614   34611      25   34620   34617      24
   34623   34617      24   34623   34620      25   34629   34626      24   34632
   34626      24   34632   34629      25   34638   34635      24   34641   34635
      24   34641   34638      25   34647   34644      24   34650   34644      24
   34650   34647      25   34656   34653      24   34659   34653      24   34659
   34656      25   34665   34662      24   34668   34662      24   34668   34665
      25   34674   34671      24   34677   34671      24   34677   34674      25
   34683   34680      24   34686   34680      24   34686   34683      25   34692
   34689      24   34695   34689      24   34695   34692      25   34701   34698
      24   34704   34698      24   34704   34701      25   34710   34707      24
   34713   34707      24   34713   34710      25   34719   34716      24   34722
   34716      24   34722   34719      25   34728   34725      24   34731   34725
      24   34731   34728      25   34737   34734      24   34740   34734      24
   34740   34737      25   34746   34743      24   34749   34743      24   34749
   34746      25   34755   34752      24   34758   34752      24   34758   34755
      25   34764   34761      24   34767   34761      24   34767   34764      25
   34773   34770      24   34776   34770      24   34776   34773      25   34782
   34779      24   34785   34779      24   34785   34782      25   34791   34788
      24   34794   34788      24   34794   34791      25   34800   34797      24
   34803   34797      24   34803   34800      25   34809   34806      24   34812
   34806      24   34812   34809      25   34818   34815      24   34821   34815
      24   34821   34818      25   34827   34824      24   34830   34824      24
   34830   34827      25   34836   34833      24   34839   34833      24   34839
   34836      25   34845   34842      24   34848   34842      24   34848   34845
      25   34854   34851      24   34857   34851      24   34857   34854      25
   34863   34860      24   34866   34860      24   34866   34863      25   34872
   34869      24   34875   34869      24   34875   34872      25   34881   34878
      24   34884   34878      24   34884   34881      25   34890   34887      24
   34893   34887      24   34893   34890      25   34899   34896      24   34902
   34896      24   34902   34899      25   34908   34905      24   34911   34905
      24   34911   34908      25   34917   34914      24   34920   34914      24
   34920   34917      25   34926   34923      24   34929   34923      24   34929
   34926      25   34935   34932      24   34938   34932      24   34938   34935
      25   34944   34941      24   34947   34941      24   34947   34944      25
   34953   34950      24   34956   34950      24   34956   34953      25   34962
   34959      24   34965   34959      24   34965   34962      25   34971   34968
      24   34974   34968      24   34974   34971      25   34980   34977      24
   34983   34977      24   34983   34980      25   34989   34986      24   34992
   34986      24   34992   34989      25   34998   34995      24   35001   34995
      24   35001   34998      25   35007   35004      24   35010   35004      24
   35010   35007      25   35016   35013      24   35019   35013      24   35019
   35016      25   35025   35022      24   35028   35022      24   35028   35025
      25   35034   35031      24   35037   35031      24   35037   35034      25
   35043   35040      24   35046   35040      24   35046   35043      25   35052
   35049      24   35055   35049      24   35055   35052      25   35061   35058
      24   35064   35058      24   35064   35061      25   35070   35067      24
   35073   35067      24   35073   35070      25   35079   35076      24   35082
   35076      24   35082   35079      25   35088   35085      24   35091   35085
      24   35091   35088      25   35097   35094      24   35100   35094      24
   35100   35097      25   35106   35103      24   35109   35103      24   35109
   35106      25   35115   35112      24   35118   35112      24   35118   35115
      25   35124   35121      24   35127   35121      24   35127   35124      25
   35133   35130      24   35136   35130      24   35136   35133      25   35142
   35139      24   35145   35139      24   35145   35142      25   35151   35148
      24   35154   35148      24   35154   35151      25   35160   35157      24
   35163   35157      24   35163   35160      25   35169   35166      24   35172
   35166      24   35172   35169      25   35178   35175      24   35181   35175
      24   35181   35178      25   35187   35184      24   35190   35184      24
   35190   35187      25   35196   35193      24   35199   35193      24   35199
   35196      25   35205   35202      24   35208   35202      24   35208   35205
      25   35214   35211      24   35217   35211      24   35217   35214      25
   35223   35220      24   35226   35220      24   35226   35223      25   35232
   35229      24   35235   35229      24   35235   35232      25   35241   35238
      24   35244   35238      24   35244   35241      25   35250   35247      24
   35253   35247      24   35253   35250      25   35259   35256      24   35262
   35256      24   35262   35259      25   35268   35265      24   35271   35265
      24   35271   35268      25   35277   35274      24   35280   35274      24
   35280   35277      25   35286   35283      24   35289   35283      24   35289
   35286      25   35295   35292      24   35298   35292      24   35298   35295
      25   35304   35301      24   35307   35301      24   35307   35304      25
   35313   35310      24   35316   35310      24   35316   35313      25   35322
   35319      24   35325   35319      24   35325   35322      25   35331   35328
      24   35334   35328      24   35334   35331      25   35340   35337      24
   35343   35337      24   35343   35340      25   35349   35346      24   35352
   35346      24   35352   35349      25   35358   35355      24   35361   35355
      24   35361   35358      25   35367   35364      24   35370   35364      24
   35370   35367      25   35376   35373      24   35379   35373      24   35379
   35376      25   35385   35382      24   35388   35382      24   35388   35385
      25   35394   35391      24   35397   35391      24   35397   35394      25
   35403   35400      24   35406   35400      24   35406   35403      25   35412
   35409      24   35415   35409      24   35415   35412      25   35421   35418
      24   35424   35418      24   35424   35421      25   35430   35427      24
   35433   35427      24   35433   35430      25   35439   35436      24   35442
   35436      24   35442   35439      25   35448   35445      24   35451   35445
      24   35451   35448      25   35457   35454      24   35460   35454      24
   35460   35457      25   35466   35463      24   35469   35463      24   35469
   35466      25   35475   35472      24   35478   35472      24   35478   35475
      25   35484   35481      24   35487   35481      24   35487   35484      25
   35493   35490      24   35496   35490      24   35496   35493      25   35502
   35499      24   35505   35499      24   35505   35502      25   35511   35508
      24   35514   35508      24   35514   35511      25   35520   35517      24
   35523   35517      24   35523   35520      25   35529   35526      24   35532
   35526      24   35532   35529      25   35538   35535      24   35541   35535
      24   35541   35538      25   35547   35544      24   35550   35544      24
   35550   35547      25   35556   35553      24   35559   35553      24   35559
   35556      25   35565   35562      24   35568   35562      24   35568   35565
      25   35574   35571      24   35577   35571      24   35577   35574      25
   35583   35580      24   35586   35580      24   35586   35583      25   35592
   35589      24   35595   35589      24   35595   35592      25   35601   35598
      24   35604   35598      24   35604   35601      25   35610   35607      24
   35613   35607      24   35613   35610      25   35619   35616      24   35622
   35616      24   35622   35619      25   35628   35625      24   35631   35625
      24   35631   35628      25   35637   35634      24   35640   35634      24
   35640   35637      25   35646   35643      24   35649   35643      24   35649
   35646      25   35655   35652      24   35658   35652      24   35658   35655
      25   35664   35661      24   35667   35661      24   35667   35664      25
   35673   35670      24   35676   35670      24   35676   35673      25   35682
   35679      24   35685   35679      24   35685   35682      25   35691   35688
      24   35694   35688      24   35694   35691      25   35700   35697      24
   35703   35697      24   35703   35700      25   35709   35706      24   35712
   35706      24   35712   35709      25   35718   35715      24   35721   35715
      24   35721   35718      25   35727   35724      24   35730   35724      24
   35730   35727      25   35736   35733      24   35739   35733      24   35739
   35736      25   35745   35742      24   35748   35742      24   35748   35745
      25   35754   35751      24   35757   35751      24   35757   35754      25
   35763   35760      24   35766   35760      24   35766   35763      25   35772
   35769      24   35775   35769      24   35775   35772      25   35781   35778
      24   35784   35778      24   35784   35781      25   35790   35787      24
   35793   35787      24   35793   35790      25   35799   35796      24   35802
   35796      24   35802   35799      25   35808   35805      24   35811   35805
      24   35811   35808      25   35817   35814      24   35820   35814      24
   35820   35817      25   35826   35823      24   35829   35823      24   35829
   35826      25   35835   35832      24   35838   35832      24   35838   35835
      25   35844   35841      24   35847   35841      24   35847   35844      25
   35853   35850      24   35856   35850      24   35856   35853      25   35862
   35859      24   35865   35859      24   35865   35862      25   35871   35868
      24   35874   35868      24   35874   35871      25   35880   35877      24
   35883   35877      24   35883   35880      25   35889   35886      24   35892
   35886      24   35892   35889      25   35898   35895      24   35901   35895
      24   35901   35898      25   35907   35904      24   35910   35904      24
   35910   35907      25   35916   35913      24   35919   35913      24   35919
   35916      25   35925   35922      24   35928   35922      24   35928   35925
      25   35934   35931      24   35937   35931      24   35937   35934      25
   35943   35940      24   35946   35940      24   35946   35943      25   35952
   35949      24   35955   35949      24   35955   35952      25   35961   35958
      24   35964   35958      24   35964   35961      25   35970   35967      24
   35973   35967      24   35973   35970      25   35979   35976      24   35982
   35976      24   35982   35979      25   35988   35985      24   35991   35985
      24   35991   35988      25   35997   35994      24   36000   35994      24
   36000   35997      25   36006   36003      24   36009   36003      24   36009
   36006      25   36015   36012      24   36018   36012      24   36018   36015
      25   36024   36021      24   36027   36021      24   36027   36024      25
   36033   36030      24   36036   36030      24   36036   36033      25   36042
   36039      24   36045   36039      24   36045   36042      25   36051   36048
      24   36054   36048      24   36054   36051      25   36060   36057      24
   36063   36057      24   36063   36060      25   36069   36066      24   36072
   36066      24   36072   36069      25   36078   36075      24   36081   36075
      24   36081   36078      25   36087   36084      24   36090   36084      24
   36090   36087      25   36096   36093      24   36099   36093      24   36099
   36096      25   36105   36102      24   36108   36102      24   36108   36105
      25   36114   36111      24   36117   36111      24   36117   36114      25
   36123   36120      24   36126   36120      24   36126   36123      25   36132
   36129      24   36135   36129      24   36135   36132      25   36141   36138
      24   36144   36138      24   36144   36141      25   36150   36147      24
   36153   36147      24   36153   36150      25   36159   36156      24   36162
   36156      24   36162   36159      25   36168   36165      24   36171   36165
      24   36171   36168      25   36177   36174      24   36180   36174      24
   36180   36177      25   36186   36183      24   36189   36183      24   36189
   36186      25   36195   36192      24   36198   36192      24   36198   36195
      25   36204   36201      24   36207   36201      24   36207   36204      25
   36213   36210      24   36216   36210      24   36216   36213      25   36222
   36219      24   36225   36219      24   36225   36222      25   36231   36228
      24   36234   36228      24   36234   36231      25   36240   36237      24
   36243   36237      24   36243   36240      25   36249   36246      24   36252
   36246      24   36252   36249      25   36258   36255      24   36261   36255
      24   36261   36258      25   36267   36264      24   36270   36264      24
   36270   36267      25   36276   36273      24   36279   36273      24   36279
   36276      25   36285   36282      24   36288   36282      24   36288   36285
      25   36294   36291      24   36297   36291      24   36297   36294      25
   36303   36300      24   36306   36300      24   36306   36303      25   36312
   36309      24   36315   36309      24   36315   36312      25   36321   36318
      24   36324   36318      24   36324   36321      25   36330   36327      24
   36333   36327      24   36333   36330      25   36339   36336      24   36342
   36336      24   36342   36339      25   36348   36345      24   36351   36345
      24   36351   36348      25   36357   36354      24   36360   36354      24
   36360   36357      25   36366   36363      24   36369   36363      24   36369
   36366      25   36375   36372      24   36378   36372      24   36378   36375
      25   36384   36381      24   36387   36381      24   36387   36384      25
   36393   36390      24   36396   36390      24   36396   36393      25   36402
   36399      24   36405   36399      24   36405   36402      25   36411   36408
      24   36414   36408      24   36414   36411      25   36420   36417      24
   36423   36417      24   36423   36420      25   36429   36426      24   36432
   36426      24   36432   36429      25   36438   36435      24   36441   36435
      24   36441   36438      25   36447   36444      24   36450   36444      24
   36450   36447      25   36456   36453      24   36459   36453      24   36459
   36456      25   36465   36462      24   36468   36462      24   36468   36465
      25   36474   36471      24   36477   36471      24   36477   36474      25
   36483   36480      24   36486   36480      24   36486   36483      25   36492
   36489      24   36495   36489      24   36495   36492      25   36501   36498
      24   36504   36498      24   36504   36501      25   36510   36507      24
   36513   36507      24   36513   36510      25   36519   36516      24   36522
   36516      24   36522   36519      25   36528   36525      24   36531   36525
      24   36531   36528      25   36537   36534      24   36540   36534      24
   36540   36537      25   36546   36543      24   36549   36543      24   36549
   36546      25   36555   36552      24   36558   36552      24   36558   36555
      25   36564   36561      24   36567   36561      24   36567   36564      25
   36573   36570      24   36576   36570      24   36576   36573      25   36582
   36579      24   36585   36579      24   36585   36582      25   36591   36588
      24   36594   36588      24   36594   36591      25   36600   36597      24
   36603   36597      24   36603   36600      25   36609   36606      24   36612
   36606      24   36612   36609      25   36618   36615      24   36621   36615
      24   36621   36618      25   36627   36624      24   36630   36624      24
   36630   36627      25   36636   36633      24   36639   36633      24   36639
   36636      25   36645   36642      24   36648   36642      24   36648   36645
      25   36654   36651      24   36657   36651      24   36657   36654      25
   36663   36660      24   36666   36660      24   36666   36663      25   36672
   36669      24   36675   36669      24   36675   36672      25   36681   36678
      24   36684   36678      24   36684   36681      25   36690   36687      24
   36693   36687      24   36693   36690      25   36699   36696      24   36702
   36696      24   36702   36699      25   36708   36705      24   36711   36705
      24   36711   36708      25   36717   36714      24   36720   36714      24
   36720   36717      25   36726   36723      24   36729   36723      24   36729
   36726      25   36735   36732      24   36738   36732      24   36738   36735
      25   36744   36741      24   36747   36741      24   36747   36744      25
   36753   36750      24   36756   36750      24   36756   36753      25   36762
   36759      24   36765   36759      24   36765   36762      25   36771   36768
      24   36774   36768      24   36774   36771      25   36780   36777      24
   36783   36777      24   36783   36780      25   36789   36786      24   36792
   36786      24   36792   36789      25   36798   36795      24   36801   36795
      24   36801   36798      25   36807   36804      24   36810   36804      24
   36810   36807      25   36816   36813      24   36819   36813      24   36819
   36816      25   36825   36822      24   36828   36822      24   36828   36825
      25   36834   36831      24   36837   36831      24   36837   36834      25
   36843   36840      24   36846   36840      24   36846   36843      25   36852
   36849      24   36855   36849      24   36855   36852      25   36861   36858
      24   36864   36858      24   36864   36861      25   36870   36867      24
   36873   36867      24   36873   36870      25   36879   36876      24   36882
   36876      24   36882   36879      25   36888   36885      24   36891   36885
      24   36891   36888      25   36897   36894      24   36900   36894      24
   36900   36897      25   36906   36903      24   36909   36903      24   36909
   36906      25   36915   36912      24   36918   36912      24   36918   36915
      25   36924   36921      24   36927   36921      24   36927   36924      25
   36933   36930      24   36936   36930      24   36936   36933      25   36942
   36939      24   36945   36939      24   36945   36942      25   36951   36948
      24   36954   36948      24   36954   36951      25   36960   36957      24
   36963   36957      24   36963   36960      25   36969   36966      24   36972
   36966      24   36972   36969      25   36978   36975      24   36981   36975
      24   36981   36978      25   36987   36984      24   36990   36984      24
   36990   36987      25   36996   36993      24   36999   36993      24   36999
   36996      25   37005   37002      24   37008   37002      24   37008   37005
      25   37014   37011      24   37017   37011      24   37017   37014      25
   37023   37020      24   37026   37020      24   37026   37023      25   37032
   37029      24   37035   37029      24   37035   37032      25   37041   37038
      24   37044   37038      24   37044   37041      25   37050   37047      24
   37053   37047      24   37053   37050      25   37059   37056      24   37062
   37056      24   37062   37059      25   37068   37065      24   37071   37065
      24   37071   37068      25   37077   37074      24   37080   37074      24
   37080   37077      25   37086   37083      24   37089   37083      24   37089
   37086      25   37095   37092      24   37098   37092      24   37098   37095
      25   37104   37101      24   37107   37101      24   37107   37104      25
   37113   37110      24   37116   37110      24   37116   37113      25   37122
   37119      24   37125   37119      24   37125   37122      25   37131   37128
      24   37134   37128      24   37134   37131      25   37140   37137      24
   37143   37137      24   37143   37140      25   37149   37146      24   37152
   37146      24   37152   37149      25   37158   37155      24   37161   37155
      24   37161   37158      25   37167   37164      24   37170   37164      24
   37170   37167      25   37176   37173      24   37179   37173      24   37179
   37176      25   37185   37182      24   37188   37182      24   37188   37185
      25   37194   37191      24   37197   37191      24   37197   37194      25
   37203   37200      24   37206   37200      24   37206   37203      25   37212
   37209      24   37215   37209      24   37215   37212      25   37221   37218
      24   37224   37218      24   37224   37221      25   37230   37227      24
   37233   37227      24   37233   37230      25   37239   37236      24   37242
   37236      24   37242   37239      25   37248   37245      24   37251   37245
      24   37251   37248      25   37257   37254      24   37260   37254      24
   37260   37257      25   37266   37263      24   37269   37263      24   37269
   37266      25   37275   37272      24   37278   37272      24   37278   37275
      25   37284   37281      24   37287   37281      24   37287   37284      25
   37293   37290      24   37296   37290      24   37296   37293      25   37302
   37299      24   37305   37299      24   37305   37302      25   37311   37308
      24   37314   37308      24   37314   37311      25   37320   37317      24
   37323   37317      24   37323   37320      25   37329   37326      24   37332
   37326      24   37332   37329      25   37338   37335      24   37341   37335
      24   37341   37338      25   37347   37344      24   37350   37344      24
   37350   37347      25   37356   37353      24   37359   37353      24   37359
   37356      25   37365   37362      24   37368   37362      24   37368   37365
      25   37374   37371      24   37377   37371      24   37377   37374      25
   37383   37380      24   37386   37380      24   37386   37383      25   37392
   37389      24   37395   37389      24   37395   37392      25   37401   37398
      24   37404   37398      24   37404   37401      25   37410   37407      24
   37413   37407      24   37413   37410      25   37419   37416      24   37422
   37416      24   37422   37419      25   37428   37425      24   37431   37425
      24   37431   37428      25   37437   37434      24   37440   37434      24
   37440   37437      25   37446   37443      24   37449   37443      24   37449
   37446      25   37455   37452      24   37458   37452      24   37458   37455
      25   37464   37461      24   37467   37461      24   37467   37464      25
   37473   37470      24   37476   37470      24   37476   37473      25   37482
   37479      24   37485   37479      24   37485   37482      25   37491   37488
      24   37494   37488      24   37494   37491      25   37500   37497      24
   37503   37497      24   37503   37500      25   37509   37506      24   37512
   37506      24   37512   37509      25   37518   37515      24   37521   37515
      24   37521   37518      25   37527   37524      24   37530   37524      24
   37530   37527      25   37536   37533      24   37539   37533      24   37539
   37536      25   37545   37542      24   37548   37542      24   37548   37545
      25   37554   37551      24   37557   37551      24   37557   37554      25
   37563   37560      24   37566   37560      24   37566   37563      25   37572
   37569      24   37575   37569      24   37575   37572      25   37581   37578
      24   37584   37578      24   37584   37581      25   37590   37587      24
   37593   37587      24   37593   37590      25   37599   37596      24   37602
   37596      24   37602   37599      25   37608   37605      24   37611   37605
      24   37611   37608      25   37617   37614      24   37620   37614      24
   37620   37617      25   37626   37623      24   37629   37623      24   37629
   37626      25   37635   37632      24   37638   37632      24   37638   37635
      25   37644   37641      24   37647   37641      24   37647   37644      25
   37653   37650      24   37656   37650      24   37656   37653      25   37662
   37659      24   37665   37659      24   37665   37662      25   37671   37668
      24   37674   37668      24   37674   37671      25   37680   37677      24
   37683   37677      24   37683   37680      25   37689   37686      24   37692
   37686      24   37692   37689      25   37698   37695      24   37701   37695
      24   37701   37698      25   37707   37704      24   37710   37704      24
   37710   37707      25   37716   37713      24   37719   37713      24   37719
   37716      25   37725   37722      24   37728   37722      24   37728   37725
      25   37734   37731      24   37737   37731      24   37737   37734      25
   37743   37740      24   37746   37740      24   37746   37743      25   37752
   37749      24   37755   37749      24   37755   37752      25   37761   37758
      24   37764   37758      24   37764   37761      25   37770   37767      24
   37773   37767      24   37773   37770      25   37779   37776      24   37782
   37776      24   37782   37779      25   37788   37785      24   37791   37785
      24   37791   37788      25   37797   37794      24   37800   37794      24
   37800   37797      25   37806   37803      24   37809   37803      24   37809
   37806      25   37815   37812      24   37818   37812      24   37818   37815
      25   37824   37821      24   37827   37821      24   37827   37824      25
   37833   37830      24   37836   37830      24   37836   37833      25   37842
   37839      24   37845   37839      24   37845   37842      25   37851   37848
      24   37854   37848      24   37854   37851      25   37860   37857      24
   37863   37857      24   37863   37860      25   37869   37866      24   37872
   37866      24   37872   37869      25   37878   37875      24   37881   37875
      24   37881   37878      25   37887   37884      24   37890   37884      24
   37890   37887      25   37896   37893      24   37899   37893      24   37899
   37896      25   37905   37902      24   37908   37902      24   37908   37905
      25   37914   37911      24   37917   37911      24   37917   37914      25
   37923   37920      24   37926   37920      24   37926   37923      25   37932
   37929      24   37935   37929      24   37935   37932      25   37941   37938
      24   37944   37938      24   37944   37941      25   37950   37947      24
   37953   37947      24   37953   37950      25   37959   37956      24   37962
   37956      24   37962   37959      25   37968   37965      24   37971   37965
      24   37971   37968      25   37977   37974      24   37980   37974      24
   37980   37977      25   37986   37983      24   37989   37983      24   37989
   37986      25   37995   37992      24   37998   37992      24   37998   37995
      25   38004   38001      24   38007   38001      24   38007   38004      25
   38013   38010      24   38016   38010      24   38016   38013      25   38022
   38019      24   38025   38019      24   38025   38022      25   38031   38028
      24   38034   38028      24   38034   38031      25   38040   38037      24
   38043   38037      24   38043   38040      25   38049   38046      24   38052
   38046      24   38052   38049      25   38058   38055      24   38061   38055
      24   38061   38058      25   38067   38064      24   38070   38064      24
   38070   38067      25   38076   38073      24   38079   38073      24   38079
   38076      25   38085   38082      24   38088   38082      24   38088   38085
      25   38094   38091      24   38097   38091      24   38097   38094      25
   38103   38100      24   38106   38100      24   38106   38103      25   38112
   38109      24   38115   38109      24   38115   38112      25   38121   38118
      24   38124   38118      24   38124   38121      25   38130   38127      24
   38133   38127      24   38133   38130      25   38139   38136      24   38142
   38136      24   38142   38139      25   38148   38145      24   38151   38145
      24   38151   38148      25   38157   38154      24   38160   38154      24
   38160   38157      25   38166   38163      24   38169   38163      24   38169
   38166      25   38175   38172      24   38178   38172      24   38178   38175
      25   38184   38181      24   38187   38181      24   38187   38184      25
   38193   38190      24   38196   38190      24   38196   38193      25   38202
   38199      24   38205   38199      24   38205   38202      25   38211   38208
      24   38214   38208      24   38214   38211      25   38220   38217      24
   38223   38217      24   38223   38220      25   38229   38226      24   38232
   38226      24   38232   38229      25   38238   38235      24   38241   38235
      24   38241   38238      25   38247   38244      24   38250   38244      24
   38250   38247      25   38256   38253      24   38259   38253      24   38259
   38256      25   38265   38262      24   38268   38262      24   38268   38265
      25   38274   38271      24   38277   38271      24   38277   38274      25
   38283   38280      24   38286   38280      24   38286   38283      25   38292
   38289      24   38295   38289      24   38295   38292      25   38301   38298
      24   38304   38298      24   38304   38301      25   38310   38307      24
   38313   38307      24   38313   38310      25   38319   38316      24   38322
   38316      24   38322   38319      25   38328   38325      24   38331   38325
      24   38331   38328      25   38337   38334      24   38340   38334      24
   38340   38337      25   38346   38343      24   38349   38343      24   38349
   38346      25   38355   38352      24   38358   38352      24   38358   38355
      25   38364   38361      24   38367   38361      24   38367   38364      25
   38373   38370      24   38376   38370      24   38376   38373      25   38382
   38379      24   38385   38379      24   38385   38382      25   38391   38388
      24   38394   38388      24   38394   38391      25   38400   38397      24
   38403   38397      24   38403   38400      25   38409   38406      24   38412
   38406      24   38412   38409      25   38418   38415      24   38421   38415
      24   38421   38418      25   38427   38424      24   38430   38424      24
   38430   38427      25   38436   38433      24   38439   38433      24   38439
   38436      25   38445   38442      24   38448   38442      24   38448   38445
      25   38454   38451      24   38457   38451      24   38457   38454      25
   38463   38460      24   38466   38460      24   38466   38463      25   38472
   38469      24   38475   38469      24   38475   38472      25   38481   38478
      24   38484   38478      24   38484   38481      25   38490   38487      24
   38493   38487      24   38493   38490      25   38499   38496      24   38502
   38496      24   38502   38499      25   38508   38505      24   38511   38505
      24   38511   38508      25   38517   38514      24   38520   38514      24
   38520   38517      25   38526   38523      24   38529   38523      24   38529
   38526      25   38535   38532      24   38538   38532      24   38538   38535
      25   38544   38541      24   38547   38541      24   38547   38544      25
   38553   38550      24   38556   38550      24   38556   38553      25   38562
   38559      24   38565   38559      24   38565   38562      25   38571   38568
      24   38574   38568      24   38574   38571      25   38580   38577      24
   38583   38577      24   38583   38580      25   38589   38586      24   38592
   38586      24   38592   38589      25   38598   38595      24   38601   38595
      24   38601   38598      25   38607   38604      24   38610   38604      24
   38610   38607      25   38616   38613      24   38619   38613      24   38619
   38616      25   38625   38622      24   38628   38622      24   38628   38625
      25   38634   38631      24   38637   38631      24   38637   38634      25
   38643   38640      24   38646   38640      24   38646   38643      25   38652
   38649      24   38655   38649      24   38655   38652      25   38661   38658
      24   38664   38658      24   38664   38661      25   38670   38667      24
   38673   38667      24   38673   38670      25   38679   38676      24   38682
   38676      24   38682   38679      25   38688   38685      24   38691   38685
      24   38691   38688      25   38697   38694      24   38700   38694      24
   38700   38697      25   38706   38703      24   38709   38703      24   38709
   38706      25   38715   38712      24   38718   38712      24   38718   38715
      25   38724   38721      24   38727   38721      24   38727   38724      25
   38733   38730      24   38736   38730      24   38736   38733      25   38742
   38739      24   38745   38739      24   38745   38742      25   38751   38748
      24   38754   38748      24   38754   38751      25   38760   38757      24
   38763   38757      24   38763   38760      25   38769   38766      24   38772
   38766      24   38772   38769      25   38778   38775      24   38781   38775
      24   38781   38778      25   38787   38784      24   38790   38784      24
   38790   38787      25   38796   38793      24   38799   38793      24   38799
   38796      25   38805   38802      24   38808   38802      24   38808   38805
      25   38814   38811      24   38817   38811      24   38817   38814      25
   38823   38820      24   38826   38820      24   38826   38823      25   38832
   38829      24   38835   38829      24   38835   38832      25   38841   38838
      24   38844   38838      24   38844   38841      25   38850   38847      24
   38853   38847      24   38853   38850      25   38859   38856      24   38862
   38856      24   38862   38859      25   38868   38865      24   38871   38865
      24   38871   38868      25   38877   38874      24   38880   38874      24
   38880   38877      25   38886   38883      24   38889   38883      24   38889
   38886      25   38895   38892      24   38898   38892      24   38898   38895
      25   38904   38901      24   38907   38901      24   38907   38904      25
   38913   38910      24   38916   38910      24   38916   38913      25   38922
   38919      24   38925   38919      24   38925   38922      25   38931   38928
      24   38934   38928      24   38934   38931      25   38940   38937      24
   38943   38937      24   38943   38940      25   38949   38946      24   38952
   38946      24   38952   38949      25   38958   38955      24   38961   38955
      24   38961   38958      25   38967   38964      24   38970   38964      24
   38970   38967      25   38976   38973      24   38979   38973      24   38979
   38976      25   38985   38982      24   38988   38982      24   38988   38985
      25   38994   38991      24   38997   38991      24   38997   38994      25
   39003   39000      24   39006   39000      24   39006   39003      25   39012
   39009      24   39015   39009      24   39015   39012      25   39021   39018
      24   39024   39018      24   39024   39021      25   39030   39027      24
   39033   39027      24   39033   39030      25   39039   39036      24   39042
   39036      24   39042   39039      25   39048   39045      24   39051   39045
      24   39051   39048      25   39057   39054      24   39060   39054      24
   39060   39057      25   39066   39063      24   39069   39063      24   39069
   39066      25   39075   39072      24   39078   39072      24   39078   39075
      25   39084   39081      24   39087   39081      24   39087   39084      25
   39093   39090      24   39096   39090      24   39096   39093      25   39102
   39099      24   39105   39099      24   39105   39102      25   39111   39108
      24   39114   39108      24   39114   39111      25   39120   39117      24
   39123   39117      24   39123   39120      25   39129   39126      24   39132
   39126      24   39132   39129      25   39138   39135      24   39141   39135
      24   39141   39138      25   39147   39144      24   39150   39144      24
   39150   39147      25   39156   39153      24   39159   39153      24   39159
   39156      25   39165   39162      24   39168   39162      24   39168   39165
      25   39174   39171      24   39177   39171      24   39177   39174      25
   39183   39180      24   39186   39180      24   39186   39183      25   39192
   39189      24   39195   39189      24   39195   39192      25   39201   39198
      24   39204   39198      24   39204   39201      25   39210   39207      24
   39213   39207      24   39213   39210      25   39219   39216      24   39222
   39216      24   39222   39219      25   39228   39225      24   39231   39225
      24   39231   39228      25   39237   39234      24   39240   39234      24
   39240   39237      25   39246   39243      24   39249   39243      24   39249
   39246      25   39255   39252      24   39258   39252      24   39258   39255
      25   39264   39261      24   39267   39261      24   39267   39264      25
   39273   39270      24   39276   39270      24   39276   39273      25   39282
   39279      24   39285   39279      24   39285   39282      25   39291   39288
      24   39294   39288      24   39294   39291      25   39300   39297      24
   39303   39297      24   39303   39300      25   39309   39306      24   39312
   39306      24   39312   39309      25   39318   39315      24   39321   39315
      24   39321   39318      25   39327   39324      24   39330   39324      24
   39330   39327      25   39336   39333      24   39339   39333      24   39339
   39336      25   39345   39342      24   39348   39342      24   39348   39345
      25   39354   39351      24   39357   39351      24   39357   39354      25
   39363   39360      24   39366   39360      24   39366   39363      25   39372
   39369      24   39375   39369      24   39375   39372      25   39381   39378
      24   39384   39378      24   39384   39381      25   39390   39387      24
   39393   39387      24   39393   39390      25   39399   39396      24   39402
   39396      24   39402   39399      25   39408   39405      24   39411   39405
      24   39411   39408      25   39417   39414      24   39420   39414      24
   39420   39417      25   39426   39423      24   39429   39423      24   39429
   39426      25   39435   39432      24   39438   39432      24   39438   39435
      25   39444   39441      24   39447   39441      24   39447   39444      25
   39453   39450      24   39456   39450      24   39456   39453      25   39462
   39459      24   39465   39459      24   39465   39462      25   39471   39468
      24   39474   39468      24   39474   39471      25   39480   39477      24
   39483   39477      24   39483   39480      25   39489   39486      24   39492
   39486      24   39492   39489      25   39498   39495      24   39501   39495
      24   39501   39498      25   39507   39504      24   39510   39504      24
   39510   39507      25   39516   39513      24   39519   39513      24   39519
   39516      25   39525   39522      24   39528   39522      24   39528   39525
      25   39534   39531      24   39537   39531      24   39537   39534      25
   39543   39540      24   39546   39540      24   39546   39543      25   39552
   39549      24   39555   39549      24   39555   39552      25   39561   39558
      24   39564   39558      24   39564   39561      25   39570   39567      24
   39573   39567      24   39573   39570      25   39579   39576      24   39582
   39576      24   39582   39579      25   39588   39585      24   39591   39585
      24   39591   39588      25   39597   39594      24   39600   39594      24
   39600   39597      25   39606   39603      24   39609   39603      24   39609
   39606      25   39615   39612      24   39618   39612      24   39618   39615
      25   39624   39621      24   39627   39621      24   39627   39624      25
   39633   39630      24   39636   39630      24   39636   39633      25   39642
   39639      24   39645   39639      24   39645   39642      25   39651   39648
      24   39654   39648      24   39654   39651      25   39660   39657      24
   39663   39657      24   39663   39660      25   39669   39666      24   39672
   39666      24   39672   39669      25   39678   39675      24   39681   39675
      24   39681   39678      25   39687   39684      24   39690   39684      24
   39690   39687      25   39696   39693      24   39699   39693      24   39699
   39696      25   39705   39702      24   39708   39702      24   39708   39705
      25   39714   39711      24   39717   39711      24   39717   39714      25
   39723   39720      24   39726   39720      24   39726   39723      25   39732
   39729      24   39735   39729      24   39735   39732      25   39741   39738
      24   39744   39738      24   39744   39741      25   39750   39747      24
   39753   39747      24   39753   39750      25   39759   39756      24   39762
   39756      24   39762   39759      25   39768   39765      24   39771   39765
      24   39771   39768      25   39777   39774      24   39780   39774      24
   39780   39777      25   39786   39783      24   39789   39783      24   39789
   39786      25   39795   39792      24   39798   39792      24   39798   39795
      25   39804   39801      24   39807   39801      24   39807   39804      25
   39813   39810      24   39816   39810      24   39816   39813      25   39822
   39819      24   39825   39819      24   39825   39822      25   39831   39828
      24   39834   39828      24   39834   39831      25   39840   39837      24
   39843   39837      24   39843   39840      25   39849   39846      24   39852
   39846      24   39852   39849      25   39858   39855      24   39861   39855
      24   39861   39858      25   39867   39864      24   39870   39864      24
   39870   39867      25   39876   39873      24   39879   39873      24   39879
   39876      25   39885   39882      24   39888   39882      24   39888   39885
      25   39894   39891      24   39897   39891      24   39897   39894      25
   39903   39900      24   39906   39900      24   39906   39903      25   39912
   39909      24   39915   39909      24   39915   39912      25   39921   39918
      24   39924   39918      24   39924   39921      25   39930   39927      24
   39933   39927      24   39933   39930      25   39939   39936      24   39942
   39936      24   39942   39939      25   39948   39945      24   39951   39945
      24   39951   39948      25   39957   39954      24   39960   39954      24
   39960   39957      25   39966   39963      24   39969   39963      24   39969
   39966      25   39975   39972      24   39978   39972      24   39978   39975
      25   39984   39981      24   39987   39981      24   39987   39984      25
   39993   39990      24   39996   39990      24   39996   39993      25   40002
   39999      24   40005   39999      24   40005   40002      25   40011   40008
      24   40014   40008      24   40014   40011      25   40020   40017      24
   40023   40017      24   40023   40020      25   40029   40026      24   40032
   40026      24   40032   40029      25   40038   40035      24   40041   40035
      24   40041   40038      25   40047   40044      24   40050   40044      24
   40050   40047      25   40056   40053      24   40059   40053      24   40059
   40056      25   40065   40062      24   40068   40062      24   40068   40065
      25   40074   40071      24   40077   40071      24   40077   40074      25
   40083   40080      24   40086   40080      24   40086   40083      25   40092
   40089      24   40095   40089      24   40095   40092      25   40101   40098
      24   40104   40098      24   40104   40101      25   40110   40107      24
   40113   40107      24   40113   40110      25   40119   40116      24   40122
   40116      24   40122   40119      25   40128   40125      24   40131   40125
      24   40131   40128      25   40137   40134      24   40140   40134      24
   40140   40137      25   40146   40143      24   40149   40143      24   40149
   40146      25   40155   40152      24   40158   40152      24   40158   40155
      25   40164   40161      24   40167   40161      24   40167   40164      25
   40173   40170      24   40176   40170      24   40176   40173      25   40182
   40179      24   40185   40179      24   40185   40182      25   40191   40188
      24   40194   40188      24   40194   40191      25   40200   40197      24
   40203   40197      24   40203   40200      25   40209   40206      24   40212
   40206      24   40212   40209      25   40218   40215      24   40221   40215
      24   40221   40218      25   40227   40224      24   40230   40224      24
   40230   40227      25   40236   40233      24   40239   40233      24   40239
   40236      25   40245   40242      24   40248   40242      24   40248   40245
      25   40254   40251      24   40257   40251      24   40257   40254      25
   40263   40260      24   40266   40260      24   40266   40263      25   40272
   40269      24   40275   40269      24   40275   40272      25   40281   40278
      24   40284   40278      24   40284   40281      25   40290   40287      24
   40293   40287      24   40293   40290      25   40299   40296      24   40302
   40296      24   40302   40299      25   40308   40305      24   40311   40305
      24   40311   40308      25   40317   40314      24   40320   40314      24
   40320   40317      25   40326   40323      24   40329   40323      24   40329
   40326      25   40335   40332      24   40338   40332      24   40338   40335
      25   40344   40341      24   40347   40341      24   40347   40344      25
   40353   40350      24   40356   40350      24   40356   40353      25   40362
   40359      24   40365   40359      24   40365   40362      25   40371   40368
      24   40374   40368      24   40374   40371      25   40380   40377      24
   40383   40377      24   40383   40380      25   40389   40386      24   40392
   40386      24   40392   40389      25   40398   40395      24   40401   40395
      24   40401   40398      25   40407   40404      24   40410   40404      24
   40410   40407      25   40416   40413      24   40419   40413      24   40419
   40416      25   40425   40422      24   40428   40422      24   40428   40425
      25   40434   40431      24   40437   40431      24   40437   40434      25
   40443   40440      24   40446   40440      24   40446   40443      25   40452
   40449      24   40455   40449      24   40455   40452      25   40461   40458
      24   40464   40458      24   40464   40461      25   40470   40467      24
   40473   40467      24   40473   40470      25   40479   40476      24   40482
   40476      24   40482   40479      25   40488   40485      24   40491   40485
      24   40491   40488      25   40497   40494      24   40500   40494      24
   40500   40497      25   40506   40503      24   40509   40503      24   40509
   40506      25   40515   40512      24   40518   40512      24   40518   40515
      25   40524   40521      24   40527   40521      24   40527   40524      25
   40533   40530      24   40536   40530      24   40536   40533      25   40542
   40539      24   40545   40539      24   40545   40542      25   40551   40548
      24   40554   40548      24   40554   40551      25   40560   40557      24
   40563   40557      24   40563   40560      25   40569   40566      24   40572
   40566      24   40572   40569      25   40578   40575      24   40581   40575
      24   40581   40578      25   40587   40584      24   40590   40584      24
   40590   40587      25   40596   40593      24   40599   40593      24   40599
   40596      25   40605   40602      24   40608   40602      24   40608   40605
      25   40614   40611      24   40617   40611      24   40617   40614      25
   40623   40620      24   40626   40620      24   40626   40623      25   40632
   40629      24   40635   40629      24   40635   40632      25   40641   40638
      24   40644   40638      24   40644   40641      25   40650   40647      24
   40653   40647      24   40653   40650      25   40659   40656      24   40662
   40656      24   40662   40659      25   40668   40665      24   40671   40665
      24   40671   40668      25   40677   40674      24   40680   40674      24
   40680   40677      25   40686   40683      24   40689   40683      24   40689
   40686      25   40695   40692      24   40698   40692      24   40698   40695
      25   40704   40701      24   40707   40701      24   40707   40704      25
   40713   40710      24   40716   40710      24   40716   40713      25   40722
   40719      24   40725   40719      24   40725   40722      25   40731   40728
      24   40734   40728      24   40734   40731      25   40740   40737      24
   40743   40737      24   40743   40740      25   40749   40746      24   40752
   40746      24   40752   40749      25   40758   40755      24   40761   40755
      24   40761   40758      25   40767   40764      24   40770   40764      24
   40770   40767      25   40776   40773      24   40779   40773      24   40779
   40776      25   40785   40782      24   40788   40782      24   40788   40785
      25   40794   40791      24   40797   40791      24   40797   40794      25
   40803   40800      24   40806   40800      24   40806   40803      25   40812
   40809      24   40815   40809      24   40815   40812      25   40821   40818
      24   40824   40818      24   40824   40821      25   40830   40827      24
   40833   40827      24   40833   40830      25   40839   40836      24   40842
   40836      24   40842   40839      25   40848   40845      24   40851   40845
      24   40851   40848      25   40857   40854      24   40860   40854      24
   40860   40857      25   40866   40863      24   40869   40863      24   40869
   40866      25   40875   40872      24   40878   40872      24   40878   40875
      25   40884   40881      24   40887   40881      24   40887   40884      25
   40893   40890      24   40896   40890      24   40896   40893      25   40902
   40899      24   40905   40899      24   40905   40902      25   40911   40908
      24   40914   40908      24   40914   40911      25   40920   40917      24
   40923   40917      24   40923   40920      25   40929   40926      24   40932
   40926      24   40932   40929      25   40938   40935      24   40941   40935
      24   40941   40938      25   40947   40944      24   40950   40944      24
   40950   40947      25   40956   40953      24   40959   40953      24   40959
   40956      25   40965   40962      24   40968   40962      24   40968   40965
      25   40974   40971      24   40977   40971      24   40977   40974      25
   40983   40980      24   40986   40980      24   40986   40983      25   40992
   40989      24   40995   40989      24   40995   40992      25   41001   40998
      24   41004   40998      24   41004   41001      25   41010   41007      24
   41013   41007      24   41013   41010      25   41019   41016      24   41022
   41016      24   41022   41019      25   41028   41025      24   41031   41025
      24   41031   41028      25   41037   41034      24   41040   41034      24
   41040   41037      25   41046   41043      24   41049   41043      24   41049
   41046      25   41055   41052      24   41058   41052      24   41058   41055
      25   41064   41061      24   41067   41061      24   41067   41064      25
   41073   41070      24   41076   41070      24   41076   41073      25   41082
   41079      24   41085   41079      24   41085   41082      25   41091   41088
      24   41094   41088      24   41094   41091      25   41100   41097      24
   41103   41097      24   41103   41100      25   41109   41106      24   41112
   41106      24   41112   41109      25   41118   41115      24   41121   41115
      24   41121   41118      25   41127   41124      24   41130   41124      24
   41130   41127      25   41136   41133      24   41139   41133      24   41139
   41136      25   41145   41142      24   41148   41142      24   41148   41145
      25   41154   41151      24   41157   41151      24   41157   41154      25
   41163   41160      24   41166   41160      24   41166   41163      25   41172
   41169      24   41175   41169      24   41175   41172      25   41181   41178
      24   41184   41178      24   41184   41181      25   41190   41187      24
   41193   41187      24   41193   41190      25   41199   41196      24   41202
   41196      24   41202   41199      25   41208   41205      24   41211   41205
      24   41211   41208      25   41217   41214      24   41220   41214      24
   41220   41217      25   41226   41223      24   41229   41223      24   41229
   41226      25   41235   41232      24   41238   41232      24   41238   41235
      25   41244   41241      24   41247   41241      24   41247   41244      25
   41253   41250      24   41256   41250      24   41256   41253      25   41262
   41259      24   41265   41259      24   41265   41262      25   41271   41268
      24   41274   41268      24   41274   41271      25   41280   41277      24
   41283   41277      24   41283   41280      25   41289   41286      24   41292
   41286      24   41292   41289      25   41298   41295      24   41301   41295
      24   41301   41298      25   41307   41304      24   41310   41304      24
   41310   41307      25   41316   41313      24   41319   41313      24   41319
   41316      25   41325   41322      24   41328   41322      24   41328   41325
      25   41334   41331      24   41337   41331      24   41337   41334      25
   41343   41340      24   41346   41340      24   41346   41343      25   41352
   41349      24   41355   41349      24   41355   41352      25   41361   41358
      24   41364   41358      24   41364   41361      25   41370   41367      24
   41373   41367      24   41373   41370      25   41379   41376      24   41382
   41376      24   41382   41379      25   41388   41385      24   41391   41385
      24   41391   41388      25   41397   41394      24   41400   41394      24
   41400   41397      25   41406   41403      24   41409   41403      24   41409
   41406      25   41415   41412      24   41418   41412      24   41418   41415
      25   41424   41421      24   41427   41421      24   41427   41424      25
   41433   41430      24   41436   41430      24   41436   41433      25   41442
   41439      24   41445   41439      24   41445   41442      25   41451   41448
      24   41454   41448      24   41454   41451      25   41460   41457      24
   41463   41457      24   41463   41460      25   41469   41466      24   41472
   41466      24   41472   41469      25   41478   41475      24   41481   41475
      24   41481   41478      25   41487   41484      24   41490   41484      24
   41490   41487      25   41496   41493      24   41499   41493      24   41499
   41496      25   41505   41502      24   41508   41502      24   41508   41505
      25   41514   41511      24   41517   41511      24   41517   41514      25
   41523   41520      24   41526   41520      24   41526   41523      25   41532
   41529      24   41535   41529      24   41535   41532      25   41541   41538
      24   41544   41538      24   41544   41541      25   41550   41547      24
   41553   41547      24   41553   41550      25   41559   41556      24   41562
   41556      24   41562   41559      25   41568   41565      24   41571   41565
      24   41571   41568      25   41577   41574      24   41580   41574      24
   41580   41577      25   41586   41583      24   41589   41583      24   41589
   41586      25   41595   41592      24   41598   41592      24   41598   41595
      25   41604   41601      24   41607   41601      24   41607   41604      25
   41613   41610      24   41616   41610      24   41616   41613      25   41622
   41619      24   41625   41619      24   41625   41622      25   41631   41628
      24   41634   41628      24   41634   41631      25   41640   41637      24
   41643   41637      24   41643   41640      25   41649   41646      24   41652
   41646      24   41652   41649      25   41658   41655      24   41661   41655
      24   41661   41658      25   41667   41664      24   41670   41664      24
   41670   41667      25   41676   41673      24   41679   41673      24   41679
   41676      25   41685   41682      24   41688   41682      24   41688   41685
      25   41694   41691      24   41697   41691      24   41697   41694      25
   41703   41700      24   41706   41700      24   41706   41703      25   41712
   41709      24   41715   41709      24   41715   41712      25   41721   41718
      24   41724   41718      24   41724   41721      25   41730   41727      24
   41733   41727      24   41733   41730      25   41739   41736      24   41742
   41736      24   41742   41739      25   41748   41745      24   41751   41745
      24   41751   41748      25   41757   41754      24   41760   41754      24
   41760   41757      25   41766   41763      24   41769   41763      24   41769
   41766      25   41775   41772      24   41778   41772      24   41778   41775
      25   41784   41781      24   41787   41781      24   41787   41784      25
   41793   41790      24   41796   41790      24   41796   41793      25   41802
   41799      24   41805   41799      24   41805   41802      25   41811   41808
      24   41814   41808      24   41814   41811      25   41820   41817      24
   41823   41817      24   41823   41820      25   41829   41826      24   41832
   41826      24   41832   41829      25   41838   41835      24   41841   41835
      24   41841   41838      25   41847   41844      24   41850   41844      24
   41850   41847      25   41856   41853      24   41859   41853      24   41859
   41856      25   41865   41862      24   41868   41862      24   41868   41865
      25   41874   41871      24   41877   41871      24   41877   41874      25
   41883   41880      24   41886   41880      24   41886   41883      25   41892
   41889      24   41895   41889      24   41895   41892      25   41901   41898
      24   41904   41898      24   41904   41901      25   41910   41907      24
   41913   41907      24   41913   41910      25   41919   41916      24   41922
   41916      24   41922   41919      25   41928   41925      24   41931   41925
      24   41931   41928      25   41937   41934      24   41940   41934      24
   41940   41937      25   41946   41943      24   41949   41943      24   41949
   41946      25   41955   41952      24   41958   41952      24   41958   41955
      25   41964   41961      24   41967   41961      24   41967   41964      25
   41973   41970      24   41976   41970      24   41976   41973      25   41982
   41979      24   41985   41979      24   41985   41982      25   41991   41988
      24   41994   41988      24   41994   41991      25   42000   41997      24
   42003   41997      24   42003   42000      25   42009   42006      24   42012
   42006      24   42012   42009      25   42018   42015      24   42021   42015
      24   42021   42018      25   42027   42024      24   42030   42024      24
   42030   42027      25   42036   42033      24   42039   42033      24   42039
   42036      25   42045   42042      24   42048   42042      24   42048   42045
      25   42054   42051      24   42057   42051      24   42057   42054      25
   42063   42060      24   42066   42060      24   42066   42063      25   42072
   42069      24   42075   42069      24   42075   42072      25   42081   42078
      24   42084   42078      24   42084   42081      25   42090   42087      24
   42093   42087      24   42093   42090      25   42099   42096      24   42102
   42096      24   42102   42099      25   42108   42105      24   42111   42105
      24   42111   42108      25   42117   42114      24   42120   42114      24
   42120   42117      25   42126   42123      24   42129   42123      24   42129
   42126      25   42135   42132      24   42138   42132      24   42138   42135
      25   42144   42141      24   42147   42141      24   42147   42144      25
   42153   42150      24   42156   42150      24   42156   42153      25   42162
   42159      24   42165   42159      24   42165   42162      25   42171   42168
      24   42174   42168      24   42174   42171      25   42180   42177      24
   42183   42177      24   42183   42180      25   42189   42186      24   42192
   42186      24   42192   42189      25   42198   42195      24   42201   42195
      24   42201   42198      25   42207   42204      24   42210   42204      24
   42210   42207      25   42216   42213      24   42219   42213      24   42219
   42216      25   42225   42222      24   42228   42222      24   42228   42225
      25   42234   42231      24   42237   42231      24   42237   42234      25
   42243   42240      24   42246   42240      24   42246   42243      25   42252
   42249      24   42255   42249      24   42255   42252      25   42261   42258
      24   42264   42258      24   42264   42261      25   42270   42267      24
   42273   42267      24   42273   42270      25   42279   42276      24   42282
   42276      24   42282   42279      25   42288   42285      24   42291   42285
      24   42291   42288      25   42297   42294      24   42300   42294      24
   42300   42297      25   42306   42303      24   42309   42303      24   42309
   42306      25   42315   42312      24   42318   42312      24   42318   42315
      25   42324   42321      24   42327   42321      24   42327   42324      25
   42333   42330      24   42336   42330      24   42336   42333      25   42342
   42339      24   42345   42339      24   42345   42342      25   42351   42348
      24   42354   42348      24   42354   42351      25   42360   42357      24
   42363   42357      24   42363   42360      25   42369   42366      24   42372
   42366      24   42372   42369      25   42378   42375      24   42381   42375
      24   42381   42378      25   42387   42384      24   42390   42384      24
   42390   42387      25   42396   42393      24   42399   42393      24   42399
   42396      25   42405   42402      24   42408   42402      24   42408   42405
      25   42414   42411      24   42417   42411      24   42417   42414      25
   42423   42420      24   42426   42420      24   42426   42423      25   42432
   42429      24   42435   42429      24   42435   42432      25   42441   42438
      24   42444   42438      24   42444   42441      25   42450   42447      24
   42453   42447      24   42453   42450      25   42459   42456      24   42462
   42456      24   42462   42459      25   42468   42465      24   42471   42465
      24   42471   42468      25   42477   42474      24   42480   42474      24
   42480   42477      25   42486   42483      24   42489   42483      24   42489
   42486      25   42495   42492      24   42498   42492      24   42498   42495
      25   42504   42501      24   42507   42501      24   42507   42504      25
   42513   42510      24   42516   42510      24   42516   42513      25   42522
   42519      24   42525   42519      24   42525   42522      25   42531   42528
      24   42534   42528      24   42534   42531      25   42540   42537      24
   42543   42537      24   42543   42540      25   42549   42546      24   42552
   42546      24   42552   42549      25   42558   42555      24   42561   42555
      24   42561   42558      25   42567   42564      24   42570   42564      24
   42570   42567      25   42576   42573      24   42579   42573      24   42579
   42576      25   42585   42582      24   42588   42582      24   42588   42585
      25   42594   42591      24   42597   42591      24   42597   42594      25
   42603   42600      24   42606   42600      24   42606   42603      25   42612
   42609      24   42615   42609      24   42615   42612      25   42621   42618
      24   42624   42618      24   42624   42621      25   42630   42627      24
   42633   42627      24   42633   42630      25   42639   42636      24   42642
   42636      24   42642   42639      25   42648   42645      24   42651   42645
      24   42651   42648      25   42657   42654      24   42660   42654      24
   42660   42657      25   42666   42663      24   42669   42663      24   42669
   42666      25   42675   42672      24   42678   42672      24   42678   42675
      25   42684   42681      24   42687   42681      24   42687   42684      25
   42693   42690      24   42696   42690      24   42696   42693      25   42702
   42699      24   42705   42699      24   42705   42702      25   42711   42708
      24   42714   42708      24   42714   42711      25   42720   42717      24
   42723   42717      24   42723   42720      25   42729   42726      24   42732
   42726      24   42732   42729      25   42738   42735      24   42741   42735
      24   42741   42738      25   42747   42744      24   42750   42744      24
   42750   42747      25   42756   42753      24   42759   42753      24   42759
   42756      25   42765   42762      24   42768   42762      24   42768   42765
      25   42774   42771      24   42777   42771      24   42777   42774      25
   42783   42780      24   42786   42780      24   42786   42783      25   42792
   42789      24   42795   42789      24   42795   42792      25   42801   42798
      24   42804   42798      24   42804   42801      25   42810   42807      24
   42813   42807      24   42813   42810      25   42819   42816      24   42822
   42816      24   42822   42819      25   42828   42825      24   42831   42825
      24   42831   42828      25   42837   42834      24   42840   42834      24
   42840   42837      25   42846   42843      24   42849   42843      24   42849
   42846      25   42855   42852      24   42858   42852      24   42858   42855
      25   42864   42861      24   42867   42861      24   42867   42864      25
   42873   42870      24   42876   42870      24   42876   42873      25   42882
   42879      24   42885   42879      24   42885   42882      25   42891   42888
      24   42894   42888      24   42894   42891      25   42900   42897      24
   42903   42897      24   42903   42900      25   42909   42906      24   42912
   42906      24   42912   42909      25   42918   42915      24   42921   42915
      24   42921   42918      25   42927   42924      24   42930   42924      24
   42930   42927      25   42936   42933      24   42939   42933      24   42939
   42936      25   42945   42942      24   42948   42942      24   42948   42945
      25   42954   42951      24   42957   42951      24   42957   42954      25
   42963   42960      24   42966   42960      24   42966   42963      25   42972
   42969      24   42975   42969      24   42975   42972      25   42981   42978
      24   42984   42978      24   42984   42981      25   42990   42987      24
   42993   42987      24   42993   42990      25   42999   42996      24   43002
   42996      24   43002   42999      25   43008   43005      24   43011   43005
      24   43011   43008      25   43017   43014      24   43020   43014      24
   43020   43017      25   43026   43023      24   43029   43023      24   43029
   43026      25   43035   43032      24   43038   43032      24   43038   43035
      25   43044   43041      24   43047   43041      24   43047   43044      25
   43053   43050      24   43056   43050      24   43056   43053      25   43062
   43059      24   43065   43059      24   43065   43062      25   43071   43068
      24   43074   43068      24   43074   43071      25   43080   43077      24
   43083   43077      24   43083   43080      25   43089   43086      24   43092
   43086      24   43092   43089      25   43098   43095      24   43101   43095
      24   43101   43098      25   43107   43104      24   43110   43104      24
   43110   43107      25   43116   43113      24   43119   43113      24   43119
   43116      25   43125   43122      24   43128   43122      24   43128   43125
      25   43134   43131      24   43137   43131      24   43137   43134      25
   43143   43140      24   43146   43140      24   43146   43143      25   43152
   43149      24   43155   43149      24   43155   43152      25   43161   43158
      24   43164   43158      24   43164   43161      25   43170   43167      24
   43173   43167      24   43173   43170      25   43179   43176      24   43182
   43176      24   43182   43179      25   43188   43185      24   43191   43185
      24   43191   43188      25   43197   43194      24   43200   43194      24
   43200   43197      25   43206   43203      24   43209   43203      24   43209
   43206      25   43215   43212      24   43218   43212      24   43218   43215
      25   43224   43221      24   43227   43221      24   43227   43224      25
   43233   43230      24   43236   43230      24   43236   43233      25   43242
   43239      24   43245   43239      24   43245   43242      25   43251   43248
      24   43254   43248      24   43254   43251      25   43260   43257      24
   43263   43257      24   43263   43260      25   43269   43266      24   43272
   43266      24   43272   43269      25   43278   43275      24   43281   43275
      24   43281   43278      25   43287   43284      24   43290   43284      24
   43290   43287      25   43296   43293      24   43299   43293      24   43299
   43296      25   43305   43302      24   43308   43302      24   43308   43305
      25   43314   43311      24   43317   43311      24   43317   43314      25
   43323   43320      24   43326   43320      24   43326   43323      25   43332
   43329      24   43335   43329      24   43335   43332      25   43341   43338
      24   43344   43338      24   43344   43341      25   43350   43347      24
   43353   43347      24   43353   43350      25   43359   43356      24   43362
   43356      24   43362   43359      25   43368   43365      24   43371   43365
      24   43371   43368      25   43377   43374      24   43380   43374      24
   43380   43377      25   43386   43383      24   43389   43383      24   43389
   43386      25   43395   43392      24   43398   43392      24   43398   43395
      25   43404   43401      24   43407   43401      24   43407   43404      25
   43413   43410      24   43416   43410      24   43416   43413      25   43422
   43419      24   43425   43419      24   43425   43422      25   43431   43428
      24   43434   43428      24   43434   43431      25   43440   43437      24
   43443   43437      24   43443   43440      25   43449   43446      24   43452
   43446      24   43452   43449      25   43458   43455      24   43461   43455
      24   43461   43458      25   43467   43464      24   43470   43464      24
   43470   43467      25   43476   43473      24   43479   43473      24   43479
   43476      25   43485   43482      24   43488   43482      24   43488   43485
      25   43494   43491      24   43497   43491      24   43497   43494      25
   43503   43500      24   43506   43500      24   43506   43503      25   43512
   43509      24   43515   43509      24   43515   43512      25   43521   43518
      24   43524   43518      24   43524   43521      25   43530   43527      24
   43533   43527      24   43533   43530      25   43539   43536      24   43542
   43536      24   43542   43539      25   43548   43545      24   43551   43545
      24   43551   43548      25   43557   43554      24   43560   43554      24
   43560   43557      25   43566   43563      24   43569   43563      24   43569
   43566      25   43575   43572      24   43578   43572      24   43578   43575
      25   43584   43581      24   43587   43581      24   43587   43584      25
   43593   43590      24   43596   43590      24   43596   43593      25   43602
   43599      24   43605   43599      24   43605   43602      25   43611   43608
      24   43614   43608      24   43614   43611      25   43620   43617      24
   43623   43617      24   43623   43620      25   43629   43626      24   43632
   43626      24   43632   43629      25   43638   43635      24   43641   43635
      24   43641   43638      25   43647   43644      24   43650   43644      24
   43650   43647      25   43656   43653      24   43659   43653      24   43659
   43656      25   43665   43662      24   43668   43662      24   43668   43665
      25   43674   43671      24   43677   43671      24   43677   43674      25
   43683   43680      24   43686   43680      24   43686   43683      25   43692
   43689      24   43695   43689      24   43695   43692      25   43701   43698
      24   43704   43698      24   43704   43701      25   43710   43707      24
   43713   43707      24   43713   43710      25   43719   43716      24   43722
   43716      24   43722   43719      25   43728   43725      24   43731   43725
      24   43731   43728      25   43737   43734      24   43740   43734      24
   43740   43737      25   43746   43743      24   43749   43743      24   43749
   43746      25   43755   43752      24   43758   43752      24   43758   43755
      25   43764   43761      24   43767   43761      24   43767   43764      25
   43773   43770      24   43776   43770      24   43776   43773      25   43782
   43779      24   43785   43779      24   43785   43782      25   43791   43788
      24   43794   43788      24   43794   43791      25   43800   43797      24
   43803   43797      24   43803   43800      25   43809   43806      24   43812
   43806      24   43812   43809      25   43818   43815      24   43821   43815
      24   43821   43818      25   43827   43824      24   43830   43824      24
   43830   43827      25   43836   43833      24   43839   43833      24   43839
   43836      25   43845   43842      24   43848   43842      24   43848   43845
      25   43854   43851      24   43857   43851      24   43857   43854      25
   43863   43860      24   43866   43860      24   43866   43863      25   43872
   43869      24   43875   43869      24   43875   43872      25   43881   43878
      24   43884   43878      24   43884   43881      25   43890   43887      24
   43893   43887      24   43893   43890      25   43899   43896      24   43902
   43896      24   43902   43899      25   43908   43905      24   43911   43905
      24   43911   43908      25   43917   43914      24   43920   43914      24
   43920   43917      25   43926   43923      24   43929   43923      24   43929
   43926      25   43935   43932      24   43938   43932      24   43938   43935
      25   43944   43941      24   43947   43941      24   43947   43944      25
   43953   43950      24   43956   43950      24   43956   43953      25   43962
   43959      24   43965   43959      24   43965   43962      25   43971   43968
      24   43974   43968      24   43974   43971      25   43980   43977      24
   43983   43977      24   43983   43980      25   43989   43986      24   43992
   43986      24   43992   43989      25   43998   43995      24   44001   43995
      24   44001   43998      25   44007   44004      24   44010   44004      24
   44010   44007      25   44016   44013      24   44019   44013      24   44019
   44016      25   44025   44022      24   44028   44022      24   44028   44025
      25   44034   44031      24   44037   44031      24   44037   44034      25
   44043   44040      24   44046   44040      24   44046   44043      25   44052
   44049      24   44055   44049      24   44055   44052      25   44061   44058
      24   44064   44058      24   44064   44061      25   44070   44067      24
   44073   44067      24   44073   44070      25   44079   44076      24   44082
   44076      24   44082   44079      25   44088   44085      24   44091   44085
      24   44091   44088      25   44097   44094      24   44100   44094      24
   44100   44097      25   44106   44103      24   44109   44103      24   44109
   44106      25   44115   44112      24   44118   44112      24   44118   44115
      25   44124   44121      24   44127   44121      24   44127   44124      25
   44133   44130      24   44136   44130      24   44136   44133      25   44142
   44139      24   44145   44139      24   44145   44142      25   44151   44148
      24   44154   44148      24   44154   44151      25   44160   44157      24
   44163   44157      24   44163   44160      25   44169   44166      24   44172
   44166      24   44172   44169      25   44178   44175      24   44181   44175
      24   44181   44178      25   44187   44184      24   44190   44184      24
   44190   44187      25   44196   44193      24   44199   44193      24   44199
   44196      25   44205   44202      24   44208   44202      24   44208   44205
      25   44214   44211      24   44217   44211      24   44217   44214      25
   44223   44220      24   44226   44220      24   44226   44223      25   44232
   44229      24   44235   44229      24   44235   44232      25   44241   44238
      24   44244   44238      24   44244   44241      25   44250   44247      24
   44253   44247      24   44253   44250      25   44259   44256      24   44262
   44256      24   44262   44259      25   44268   44265      24   44271   44265
      24   44271   44268      25   44277   44274      24   44280   44274      24
   44280   44277      25   44286   44283      24   44289   44283      24   44289
   44286      25   44295   44292      24   44298   44292      24   44298   44295
      25   44304   44301      24   44307   44301      24   44307   44304      25
   44313   44310      24   44316   44310      24   44316   44313      25   44322
   44319      24   44325   44319      24   44325   44322      25   44331   44328
      24   44334   44328      24   44334   44331      25   44340   44337      24
   44343   44337      24   44343   44340      25   44349   44346      24   44352
   44346      24   44352   44349      25   44358   44355      24   44361   44355
      24   44361   44358      25   44367   44364      24   44370   44364      24
   44370   44367      25   44376   44373      24   44379   44373      24   44379
   44376      25   44385   44382      24   44388   44382      24   44388   44385
      25   44394   44391      24   44397   44391      24   44397   44394      25
   44403   44400      24   44406   44400      24   44406   44403      25   44412
   44409      24   44415   44409      24   44415   44412      25   44421   44418
      24   44424   44418      24   44424   44421      25   44430   44427      24
   44433   44427      24   44433   44430      25   44439   44436      24   44442
   44436      24   44442   44439      25   44448   44445      24   44451   44445
      24   44451   44448      25   44457   44454      24   44460   44454      24
   44460   44457      25   44466   44463      24   44469   44463      24   44469
   44466      25   44475   44472      24   44478   44472      24   44478   44475
      25   44484   44481      24   44487   44481      24   44487   44484      25
   44493   44490      24   44496   44490      24   44496   44493      25   44502
   44499      24   44505   44499      24   44505   44502      25   44511   44508
      24   44514   44508      24   44514   44511      25   44520   44517      24
   44523   44517      24   44523   44520      25   44529   44526      24   44532
   44526      24   44532   44529      25   44538   44535      24   44541   44535
      24   44541   44538      25   44547   44544      24   44550   44544      24
   44550   44547      25   44556   44553      24   44559   44553      24   44559
   44556      25   44565   44562      24   44568   44562      24   44568   44565
      25   44574   44571      24   44577   44571      24   44577   44574      25
   44583   44580      24   44586   44580      24   44586   44583      25   44592
   44589      24   44595   44589      24   44595   44592      25   44601   44598
      24   44604   44598      24   44604   44601      25   44610   44607      24
   44613   44607      24   44613   44610      25   44619   44616      24   44622
   44616      24   44622   44619      25   44628   44625      24   44631   44625
      24   44631   44628      25   44637   44634      24   44640   44634      24
   44640   44637      25   44646   44643      24   44649   44643      24   44649
   44646      25   44655   44652      24   44658   44652      24   44658   44655
      25   44664   44661      24   44667   44661      24   44667   44664      25
   44673   44670      24   44676   44670      24   44676   44673      25   44682
   44679      24   44685   44679      24   44685   44682      25   44691   44688
      24   44694   44688      24   44694   44691      25   44700   44697      24
   44703   44697      24   44703   44700      25   44709   44706      24   44712
   44706      24   44712   44709      25   44718   44715      24   44721   44715
      24   44721   44718      25   44727   44724      24   44730   44724      24
   44730   44727      25   44736   44733      24   44739   44733      24   44739
   44736      25   44745   44742      24   44748   44742      24   44748   44745
      25   44754   44751      24   44757   44751      24   44757   44754      25
   44763   44760      24   44766   44760      24   44766   44763      25   44772
   44769      24   44775   44769      24   44775   44772      25   44781   44778
      24   44784   44778      24   44784   44781      25   44790   44787      24
   44793   44787      24   44793   44790      25   44799   44796      24   44802
   44796      24   44802   44799      25   44808   44805      24   44811   44805
      24   44811   44808      25   44817   44814      24   44820   44814      24
   44820   44817      25   44826   44823      24   44829   44823      24   44829
   44826      25   44835   44832      24   44838   44832      24   44838   44835
      25   44844   44841      24   44847   44841      24   44847   44844      25
   44853   44850      24   44856   44850      24   44856   44853      25   44862
   44859      24   44865   44859      24   44865   44862      25   44871   44868
      24   44874   44868      24   44874   44871      25   44880   44877      24
   44883   44877      24   44883   44880      25   44889   44886      24   44892
   44886      24   44892   44889      25   44898   44895      24   44901   44895
      24   44901   44898      25   44907   44904      24   44910   44904      24
   44910   44907      25   44916   44913      24   44919   44913      24   44919
   44916      25   44925   44922      24   44928   44922      24   44928   44925
      25   44934   44931      24   44937   44931      24   44937   44934      25
   44943   44940      24   44946   44940      24   44946   44943      25   44952
   44949      24   44955   44949      24   44955   44952      25   44961   44958
      24   44964   44958      24   44964   44961      25   44970   44967      24
   44973   44967      24   44973   44970      25   44979   44976      24   44982
   44976      24   44982   44979      25   44988   44985      24   44991   44985
      24   44991   44988      25   44997   44994      24   45000   44994      24
   45000   44997      25   45006   45003      24   45009   45003      24   45009
   45006      25   45015   45012      24   45018   45012      24   45018   45015
      25   45024   45021      24   45027   45021      24   45027   45024      25
   45033   45030      24   45036   45030      24   45036   45033      25   45042
   45039      24   45045   45039      24   45045   45042      25   45051   45048
      24   45054   45048      24   45054   45051      25   45060   45057      24
   45063   45057      24   45063   45060      25   45069   45066      24   45072
   45066      24   45072   45069      25   45078   45075      24   45081   45075
      24   45081   45078      25   45087   45084      24   45090   45084      24
   45090   45087      25   45096   45093      24   45099   45093      24   45099
   45096      25   45105   45102      24   45108   45102      24   45108   45105
      25   45114   45111      24   45117   45111      24   45117   45114      25
   45123   45120      24   45126   45120      24   45126   45123      25   45132
   45129      24   45135   45129      24   45135   45132      25   45141   45138
      24   45144   45138      24   45144   45141      25   45150   45147      24
   45153   45147      24   45153   45150      25   45159   45156      24   45162
   45156      24   45162   45159      25   45168   45165      24   45171   45165
      24   45171   45168      25   45177   45174      24   45180   45174      24
   45180   45177      25   45186   45183      24   45189   45183      24   45189
   45186      25   45195   45192      24   45198   45192      24   45198   45195
      25   45204   45201      24   45207   45201      24   45207   45204      25
   45213   45210      24   45216   45210      24   45216   45213      25   45222
   45219      24   45225   45219      24   45225   45222      25   45231   45228
      24   45234   45228      24   45234   45231      25   45240   45237      24
   45243   45237      24   45243   45240      25   45249   45246      24   45252
   45246      24   45252   45249      25   45258   45255      24   45261   45255
      24   45261   45258      25   45267   45264      24   45270   45264      24
   45270   45267      25   45276   45273      24   45279   45273      24   45279
   45276      25   45285   45282      24   45288   45282      24   45288   45285
      25   45294   45291      24   45297   45291      24   45297   45294      25
   45303   45300      24   45306   45300      24   45306   45303      25   45312
   45309      24   45315   45309      24   45315   45312      25   45321   45318
      24   45324   45318      24   45324   45321      25   45330   45327      24
   45333   45327      24   45333   45330      25   45339   45336      24   45342
   45336      24   45342   45339      25   45348   45345      24   45351   45345
      24   45351   45348      25   45357   45354      24   45360   45354      24
   45360   45357      25   45366   45363      24   45369   45363      24   45369
   45366      25   45375   45372      24   45378   45372      24   45378   45375
      25   45384   45381      24   45387   45381      24   45387   45384      25
   45393   45390      24   45396   45390      24   45396   45393      25   45402
   45399      24   45405   45399      24   45405   45402      25   45411   45408
      24   45414   45408      24   45414   45411      25   45420   45417      24
   45423   45417      24   45423   45420      25   45429   45426      24   45432
   45426      24   45432   45429      25   45438   45435      24   45441   45435
      24   45441   45438      25   45447   45444      24   45450   45444      24
   45450   45447      25   45456   45453      24   45459   45453      24   45459
   45456      25   45465   45462      24   45468   45462      24   45468   45465
      25   45474   45471      24   45477   45471      24   45477   45474      25
   45483   45480      24   45486   45480      24   45486   45483      25   45492
   45489      24   45495   45489      24   45495   45492      25   45501   45498
      24   45504   45498      24   45504   45501      25   45510   45507      24
   45513   45507      24   45513   45510      25   45519   45516      24   45522
   45516      24   45522   45519      25   45528   45525      24   45531   45525
      24   45531   45528      25   45537   45534      24   45540   45534      24
   45540   45537      25   45546   45543      24   45549   45543      24   45549
   45546      25   45555   45552      24   45558   45552      24   45558   45555
      25   45564   45561      24   45567   45561      24   45567   45564      25
   45573   45570      24   45576   45570      24   45576   45573      25   45582
   45579      24   45585   45579      24   45585   45582      25   45591   45588
      24   45594   45588      24   45594   45591      25   45600   45597      24
   45603   45597      24   45603   45600      25   45609   45606      24   45612
   45606      24   45612   45609      25   45618   45615      24   45621   45615
      24   45621   45618      25   45627   45624      24   45630   45624      24
   45630   45627      25   45636   45633      24   45639   45633      24   45639
   45636      25   45645   45642      24   45648   45642      24   45648   45645
      25   45654   45651      24   45657   45651      24   45657   45654      25
   45663   45660      24   45666   45660      24   45666   45663      25   45672
   45669      24   45675   45669      24   45675   45672      25   45681   45678
      24   45684   45678      24   45684   45681      25   45690   45687      24
   45693   45687      24   45693   45690      25   45699   45696      24   45702
   45696      24   45702   45699      25   45708   45705      24   45711   45705
      24   45711   45708      25   45717   45714      24   45720   45714      24
   45720   45717      25   45726   45723      24   45729   45723      24   45729
   45726      25   45735   45732      24   45738   45732      24   45738   45735
      25   45744   45741      24   45747   45741      24   45747   45744      25
   45753   45750      24   45756   45750      24   45756   45753      25   45762
   45759      24   45765   45759      24   45765   45762      25   45771   45768
      24   45774   45768      24   45774   45771      25   45780   45777      24
   45783   45777      24   45783   45780      25   45789   45786      24   45792
   45786      24   45792   45789      25   45798   45795      24   45801   45795
      24   45801   45798      25   45807   45804      24   45810   45804      24
   45810   45807      25   45816   45813      24   45819   45813      24   45819
   45816      25   45825   45822      24   45828   45822      24   45828   45825
      25   45834   45831      24   45837   45831      24   45837   45834      25
   45843   45840      24   45846   45840      24   45846   45843      25   45852
   45849      24   45855   45849      24   45855   45852      25   45861   45858
      24   45864   45858      24   45864   45861      25   45870   45867      24
   45873   45867      24   45873   45870      25   45879   45876      24   45882
   45876      24   45882   45879      25   45888   45885      24   45891   45885
      24   45891   45888      25   45897   45894      24   45900   45894      24
   45900   45897      25   45906   45903      24   45909   45903      24   45909
   45906      25   45915   45912      24   45918   45912      24   45918   45915
      25   45924   45921      24   45927   45921      24   45927   45924      25
   45933   45930      24   45936   45930      24   45936   45933      25   45942
   45939      24   45945   45939      24   45945   45942      25   45951   45948
      24   45954   45948      24   45954   45951      25   45960   45957      24
   45963   45957      24   45963   45960      25   45969   45966      24   45972
   45966      24   45972   45969      25   45978   45975      24   45981   45975
      24   45981   45978      25   45987   45984      24   45990   45984      24
   45990   45987      25   45996   45993      24   45999   45993      24   45999
   45996      25   46005   46002      24   46008   46002      24   46008   46005
      25   46014   46011      24   46017   46011      24   46017   46014      25
   46023   46020      24   46026   46020      24   46026   46023      25   46032
   46029      24   46035   46029      24   46035   46032      25   46041   46038
      24   46044   46038      24   46044   46041      25   46050   46047      24
   46053   46047      24   46053   46050      25   46059   46056      24   46062
   46056      24   46062   46059      25   46068   46065      24   46071   46065
      24   46071   46068      25   46077   46074      24   46080   46074      24
   46080   46077      25   46086   46083      24   46089   46083      24   46089
   46086      25   46095   46092      24   46098   46092      24   46098   46095
      25   46104   46101      24   46107   46101      24   46107   46104      25
   46113   46110      24   46116   46110      24   46116   46113      25   46122
   46119      24   46125   46119      24   46125   46122      25   46131   46128
      24   46134   46128      24   46134   46131      25   46140   46137      24
   46143   46137      24   46143   46140      25   46149   46146      24   46152
   46146      24   46152   46149      25   46158   46155      24   46161   46155
      24   46161   46158      25   46167   46164      24   46170   46164      24
   46170   46167      25   46176   46173      24   46179   46173      24   46179
   46176      25   46185   46182      24   46188   46182      24   46188   46185
      25   46194   46191      24   46197   46191      24   46197   46194      25
   46203   46200      24   46206   46200      24   46206   46203      25   46212
   46209      24   46215   46209      24   46215   46212      25   46221   46218
      24   46224   46218      24   46224   46221      25   46230   46227      24
   46233   46227      24   46233   46230      25   46239   46236      24   46242
   46236      24   46242   46239      25   46248   46245      24   46251   46245
      24   46251   46248      25   46257   46254      24   46260   46254      24
   46260   46257      25   46266   46263      24   46269   46263      24   46269
   46266      25   46275   46272      24   46278   46272      24   46278   46275
      25   46284   46281      24   46287   46281      24   46287   46284      25
   46293   46290      24   46296   46290      24   46296   46293      25   46302
   46299      24   46305   46299      24   46305   46302      25   46311   46308
      24   46314   46308      24   46314   46311      25   46320   46317      24
   46323   46317      24   46323   46320      25   46329   46326      24   46332
   46326      24   46332   46329      25   46338   46335      24   46341   46335
      24   46341   46338      25   46347   46344      24   46350   46344      24
   46350   46347      25   46356   46353      24   46359   46353      24   46359
   46356      25   46365   46362      24   46368   46362      24   46368   46365
      25   46374   46371      24   46377   46371      24   46377   46374      25
   46383   46380      24   46386   46380      24   46386   46383      25   46392
   46389      24   46395   46389      24   46395   46392      25   46401   46398
      24   46404   46398      24   46404   46401      25   46410   46407      24
   46413   46407      24   46413   46410      25   46419   46416      24   46422
   46416      24   46422   46419      25   46428   46425      24   46431   46425
      24   46431   46428      25   46437   46434      24   46440   46434      24
   46440   46437      25   46446   46443      24   46449   46443      24   46449
   46446      25   46455   46452      24   46458   46452      24   46458   46455
      25   46464   46461      24   46467   46461      24   46467   46464      25
   46473   46470      24   46476   46470      24   46476   46473      25   46482
   46479      24   46485   46479      24   46485   46482      25   46491   46488
      24   46494   46488      24   46494   46491      25   46500   46497      24
   46503   46497      24   46503   46500      25   46509   46506      24   46512
   46506      24   46512   46509      25   46518   46515      24   46521   46515
      24   46521   46518      25   46527   46524      24   46530   46524      24
   46530   46527      25   46536   46533      24   46539   46533      24   46539
   46536      25   46545   46542      24   46548   46542      24   46548   46545
      25   46554   46551      24   46557   46551      24   46557   46554      25
   46563   46560      24   46566   46560      24   46566   46563      25   46572
   46569      24   46575   46569      24   46575   46572      25   46581   46578
      24   46584   46578      24   46584   46581      25   46590   46587      24
   46593   46587      24   46593   46590      25   46599   46596      24   46602
   46596      24   46602   46599      25   46608   46605      24   46611   46605
      24   46611   46608      25   46617   46614      24   46620   46614      24
   46620   46617      25   46626   46623      24   46629   46623      24   46629
   46626      25   46635   46632      24   46638   46632      24   46638   46635
      25   46644   46641      24   46647   46641      24   46647   46644      25
   46653   46650      24   46656   46650      24   46656   46653      25   46662
   46659      24   46665   46659      24   46665   46662      25   46671   46668
      24   46674   46668      24   46674   46671      25   46680   46677      24
   46683   46677      24   46683   46680      25   46689   46686      24   46692
   46686      24   46692   46689      25   46698   46695      24   46701   46695
      24   46701   46698      25   46707   46704      24   46710   46704      24
   46710   46707      25   46716   46713      24   46719   46713      24   46719
   46716      25   46725   46722      24   46728   46722      24   46728   46725
      25   46734   46731      24   46737   46731      24   46737   46734      25
   46743   46740      24   46746   46740      24   46746   46743      25   46752
   46749      24   46755   46749      24   46755   46752      25   46761   46758
      24   46764   46758      24   46764   46761      25   46770   46767      24
   46773   46767      24   46773   46770      25   46779   46776      24   46782
   46776      24   46782   46779      25   46788   46785      24   46791   46785
      24   46791   46788      25   46797   46794      24   46800   46794      24
   46800   46797      25   46806   46803      24   46809   46803      24   46809
   46806      25   46815   46812      24   46818   46812      24   46818   46815
      25   46824   46821      24   46827   46821      24   46827   46824      25
   46833   46830      24   46836   46830      24   46836   46833      25   46842
   46839      24   46845   46839      24   46845   46842      25   46851   46848
      24   46854   46848      24   46854   46851      25   46860   46857      24
   46863   46857      24   46863   46860      25   46869   46866      24   46872
   46866      24   46872   46869      25   46878   46875      24   46881   46875
      24   46881   46878      25   46887   46884      24   46890   46884      24
   46890   46887      25   46896   46893      24   46899   46893      24   46899
   46896      25   46905   46902      24   46908   46902      24   46908   46905
      25   46914   46911      24   46917   46911      24   46917   46914      25
   46923   46920      24   46926   46920      24   46926   46923      25   46932
   46929      24   46935   46929      24   46935   46932      25   46941   46938
      24   46944   46938      24   46944   46941      25   46950   46947      24
   46953   46947      24   46953   46950      25   46959   46956      24   46962
   46956      24   46962   46959      25   46968   46965      24   46971   46965
      24   46971   46968      25   46977   46974      24   46980   46974      24
   46980   46977      25   46986   46983      24   46989   46983      24   46989
   46986      25   46995   46992      24   46998   46992      24   46998   46995
      25   47004   47001      24   47007   47001      24   47007   47004      25
   47013   47010      24   47016   47010      24   47016   47013      25   47022
   47019      24   47025   47019      24   47025   47022      25   47031   47028
      24   47034   47028      24   47034   47031      25   47040   47037      24
   47043   47037      24   47043   47040      25   47049   47046      24   47052
   47046      24   47052   47049      25   47058   47055      24   47061   47055
      24   47061   47058      25   47067   47064      24   47070   47064      24
   47070   47067      25   47076   47073      24   47079   47073      24   47079
   47076      25   47085   47082      24   47088   47082      24   47088   47085
      25   47094   47091      24   47097   47091      24   47097   47094      25
   47103   47100      24   47106   47100      24   47106   47103      25   47112
   47109      24   47115   47109      24   47115   47112      25   47121   47118
      24   47124   47118      24   47124   47121      25   47130   47127      24
   47133   47127      24   47133   47130      25   47139   47136      24   47142
   47136      24   47142   47139      25   47148   47145      24   47151   47145
      24   47151   47148      25   47157   47154      24   47160   47154      24
   47160   47157      25   47166   47163      24   47169   47163      24   47169
   47166      25   47175   47172      24   47178   47172      24   47178   47175
      25   47184   47181      24   47187   47181      24   47187   47184      25
   47193   47190      24   47196   47190      24   47196   47193      25   47202
   47199      24   47205   47199      24   47205   47202      25   47211   47208
      24   47214   47208      24   47214   47211      25   47220   47217      24
   47223   47217      24   47223   47220      25   47229   47226      24   47232
   47226      24   47232   47229      25   47238   47235      24   47241   47235
      24   47241   47238      25   47247   47244      24   47250   47244      24
   47250   47247      25   47256   47253      24   47259   47253      24   47259
   47256      25   47265   47262      24   47268   47262      24   47268   47265
      25   47274   47271      24   47277   47271      24   47277   47274      25
   47283   47280      24   47286   47280      24   47286   47283      25   47292
   47289      24   47295   47289      24   47295   47292      25   47301   47298
      24   47304   47298      24   47304   47301      25   47310   47307      24
   47313   47307      24   47313   47310      25   47319   47316      24   47322
   47316      24   47322   47319      25   47328   47325      24   47331   47325
      24   47331   47328      25   47337   47334      24   47340   47334      24
   47340   47337      25   47346   47343      24   47349   47343      24   47349
   47346      25   47355   47352      24   47358   47352      24   47358   47355
      25   47364   47361      24   47367   47361      24   47367   47364      25
   47373   47370      24   47376   47370      24   47376   47373      25   47382
   47379      24   47385   47379      24   47385   47382      25   47391   47388
      24   47394   47388      24   47394   47391      25   47400   47397      24
   47403   47397      24   47403   47400      25   47409   47406      24   47412
   47406      24   47412   47409      25   47418   47415      24   47421   47415
      24   47421   47418      25   47427   47424      24   47430   47424      24
   47430   47427      25   47436   47433      24   47439   47433      24   47439
   47436      25   47445   47442      24   47448   47442      24   47448   47445
      25   47454   47451      24   47457   47451      24   47457   47454      25
   47463   47460      24   47466   47460      24   47466   47463      25   47472
   47469      24   47475   47469      24   47475   47472      25   47481   47478
      24   47484   47478      24   47484   47481      25   47490   47487      24
   47493   47487      24   47493   47490      25   47499   47496      24   47502
   47496      24   47502   47499      25   47508   47505      24   47511   47505
      24   47511   47508      25   47517   47514      24   47520   47514      24
   47520   47517      25   47526   47523      24   47529   47523      24   47529
   47526      25   47535   47532      24   47538   47532      24   47538   47535
      25   47544   47541      24   47547   47541      24   47547   47544      25
   47553   47550      24   47556   47550      24   47556   47553      25   47562
   47559      24   47565   47559      24   47565   47562      25   47571   47568
      24   47574   47568      24   47574   47571      25   47580   47577      24
   47583   47577      24   47583   47580      25   47589   47586      24   47592
   47586      24   47592   47589      25   47598   47595      24   47601   47595
      24   47601   47598      25   47607   47604      24   47610   47604      24
   47610   47607      25   47616   47613      24   47619   47613      24   47619
   47616      25   47625   47622      24   47628   47622      24   47628   47625
      25   47634   47631      24   47637   47631      24   47637   47634      25
   47643   47640      24   47646   47640      24   47646   47643      25   47652
   47649      24   47655   47649      24   47655   47652      25   47661   47658
      24   47664   47658      24   47664   47661      25   47670   47667      24
   47673   47667      24   47673   47670      25   47679   47676      24   47682
   47676      24   47682   47679      25   47688   47685      24   47691   47685
      24   47691   47688      25   47697   47694      24   47700   47694      24
   47700   47697      25   47706   47703      24   47709   47703      24   47709
   47706      25   47715   47712      24   47718   47712      24   47718   47715
      25   47724   47721      24   47727   47721      24   47727   47724      25
   47733   47730      24   47736   47730      24   47736   47733      25   47742
   47739      24   47745   47739      24   47745   47742      25   47751   47748
      24   47754   47748      24   47754   47751      25   47760   47757      24
   47763   47757      24   47763   47760      25   47769   47766      24   47772
   47766      24   47772   47769      25   47778   47775      24   47781   47775
      24   47781   47778      25   47787   47784      24   47790   47784      24
   47790   47787      25   47796   47793      24   47799   47793      24   47799
   47796      25   47805   47802      24   47808   47802      24   47808   47805
      25   47814   47811      24   47817   47811      24   47817   47814      25
   47823   47820      24   47826   47820      24   47826   47823      25   47832
   47829      24   47835   47829      24   47835   47832      25   47841   47838
      24   47844   47838      24   47844   47841      25   47850   47847      24
   47853   47847      24   47853   47850      25   47859   47856      24   47862
   47856      24   47862   47859      25   47868   47865      24   47871   47865
      24   47871   47868      25   47877   47874      24   47880   47874      24
   47880   47877      25   47886   47883      24   47889   47883      24   47889
   47886      25   47895   47892      24   47898   47892      24   47898   47895
      25   47904   47901      24   47907   47901      24   47907   47904      25
   47913   47910      24   47916   47910      24   47916   47913      25   47922
   47919      24   47925   47919      24   47925   47922      25   47931   47928
      24   47934   47928      24   47934   47931      25   47940   47937      24
   47943   47937      24   47943   47940      25   47949   47946      24   47952
   47946      24   47952   47949      25   47958   47955      24   47961   47955
      24   47961   47958      25   47967   47964      24   47970   47964      24
   47970   47967      25   47976   47973      24   47979   47973      24   47979
   47976      25   47985   47982      24   47988   47982      24   47988   47985
      25   47994   47991      24   47997   47991      24   47997   47994      25
   48003   48000      24   48006   48000      24   48006   48003      25   48012
   48009      24   48015   48009      24   48015   48012      25   48021   48018
      24   48024   48018      24   48024   48021      25   48030   48027      24
   48033   48027      24   48033   48030      25   48039   48036      24   48042
   48036      24   48042   48039      25   48048   48045      24   48051   48045
      24   48051   48048      25   48057   48054      24   48060   48054      24
   48060   48057      25   48066   48063      24   48069   48063      24   48069
   48066      25   48075   48072      24   48078   48072      24   48078   48075
      25   48084   48081      24   48087   48081      24   48087   48084      25
   48093   48090      24   48096   48090      24   48096   48093      25   48102
   48099      24   48105   48099      24   48105   48102      25   48111   48108
      24   48114   48108      24   48114   48111      25   48120   48117      24
   48123   48117      24   48123   48120      25   48129   48126      24   48132
   48126      24   48132   48129      25   48138   48135      24   48141   48135
      24   48141   48138      25   48147   48144      24   48150   48144      24
   48150   48147      25   48156   48153      24   48159   48153      24   48159
   48156      25   48165   48162      24   48168   48162      24   48168   48165
      25   48174   48171      24   48177   48171      24   48177   48174      25
   48183   48180      24   48186   48180      24   48186   48183      25   48192
   48189      24   48195   48189      24   48195   48192      25   48201   48198
      24   48204   48198      24   48204   48201      25   48210   48207      24
   48213   48207      24   48213   48210      25   48219   48216      24   48222
   48216      24   48222   48219      25   48228   48225      24   48231   48225
      24   48231   48228      25   48237   48234      24   48240   48234      24
   48240   48237      25   48246   48243      24   48249   48243      24   48249
   48246      25   48255   48252      24   48258   48252      24   48258   48255
      25   48264   48261      24   48267   48261      24   48267   48264      25
   48273   48270      24   48276   48270      24   48276   48273      25   48282
   48279      24   48285   48279      24   48285   48282      25   48291   48288
      24   48294   48288      24   48294   48291      25   48300   48297      24
   48303   48297      24   48303   48300      25   48309   48306      24   48312
   48306      24   48312   48309      25   48318   48315      24   48321   48315
      24   48321   48318      25   48327   48324      24   48330   48324      24
   48330   48327      25   48336   48333      24   48339   48333      24   48339
   48336      25   48345   48342      24   48348   48342      24   48348   48345
      25   48354   48351      24   48357   48351      24   48357   48354      25
   48363   48360      24   48366   48360      24   48366   48363      25   48372
   48369      24   48375   48369      24   48375   48372      25   48381   48378
      24   48384   48378      24   48384   48381      25   48390   48387      24
   48393   48387      24   48393   48390      25   48399   48396      24   48402
   48396      24   48402   48399      25   48408   48405      24   48411   48405
      24   48411   48408      25   48417   48414      24   48420   48414      24
   48420   48417      25   48426   48423      24   48429   48423      24   48429
   48426      25   48435   48432      24   48438   48432      24   48438   48435
      25   48444   48441      24   48447   48441      24   48447   48444      25
   48453   48450      24   48456   48450      24   48456   48453      25   48462
   48459      24   48465   48459      24   48465   48462      25   48471   48468
      24   48474   48468      24   48474   48471      25   48480   48477      24
   48483   48477      24   48483   48480      25   48489   48486      24   48492
   48486      24   48492   48489      25   48498   48495      24   48501   48495
      24   48501   48498      25   48507   48504      24   48510   48504      24
   48510   48507      25   48516   48513      24   48519   48513      24   48519
   48516      25   48525   48522      24   48528   48522      24   48528   48525
      25   48534   48531      24   48537   48531      24   48537   48534      25
   48543   48540      24   48546   48540      24   48546   48543      25   48552
   48549      24   48555   48549      24   48555   48552      25   48561   48558
      24   48564   48558      24   48564   48561      25   48570   48567      24
   48573   48567      24   48573   48570      25   48579   48576      24   48582
   48576      24   48582   48579      25   48588   48585      24   48591   48585
      24   48591   48588      25   48597   48594      24   48600   48594      24
   48600   48597      25   48606   48603      24   48609   48603      24   48609
   48606      25   48615   48612      24   48618   48612      24   48618   48615
      25   48624   48621      24   48627   48621      24   48627   48624      25
   48633   48630      24   48636   48630      24   48636   48633      25   48642
   48639      24   48645   48639      24   48645   48642      25   48651   48648
      24   48654   48648      24   48654   48651      25   48660   48657      24
   48663   48657      24   48663   48660      25   48669   48666      24   48672
   48666      24   48672   48669      25   48678   48675      24   48681   48675
      24   48681   48678      25   48687   48684      24   48690   48684      24
   48690   48687      25   48696   48693      24   48699   48693      24   48699
   48696      25   48705   48702      24   48708   48702      24   48708   48705
      25   48714   48711      24   48717   48711      24   48717   48714      25
   48723   48720      24   48726   48720      24   48726   48723      25   48732
   48729      24   48735   48729      24   48735   48732      25   48741   48738
      24   48744   48738      24   48744   48741      25   48750   48747      24
   48753   48747      24   48753   48750      25   48759   48756      24   48762
   48756      24   48762   48759      25   48768   48765      24   48771   48765
      24   48771   48768      25   48777   48774      24   48780   48774      24
   48780   48777      25   48786   48783      24   48789   48783      24   48789
   48786      25   48795   48792      24   48798   48792      24   48798   48795
      25   48804   48801      24   48807   48801      24   48807   48804      25
   48813   48810      24   48816   48810      24   48816   48813      25   48822
   48819      24   48825   48819      24   48825   48822      25   48831   48828
      24   48834   48828      24   48834   48831      25   48840   48837      24
   48843   48837      24   48843   48840      25   48849   48846      24   48852
   48846      24   48852   48849      25   48858   48855      24   48861   48855
      24   48861   48858      25   48867   48864      24   48870   48864      24
   48870   48867      25   48876   48873      24   48879   48873      24   48879
   48876      25   48885   48882      24   48888   48882      24   48888   48885
      25   48894   48891      24   48897   48891      24   48897   48894      25
   48903   48900      24   48906   48900      24   48906   48903      25   48912
   48909      24   48915   48909      24   48915   48912      25   48921   48918
      24   48924   48918      24   48924   48921      25   48930   48927      24
   48933   48927      24   48933   48930      25   48939   48936      24   48942
   48936      24   48942   48939      25   48948   48945      24   48951   48945
      24   48951   48948      25   48957   48954      24   48960   48954      24
   48960   48957      25   48966   48963      24   48969   48963      24   48969
   48966      25   48975   48972      24   48978   48972      24   48978   48975
      25   48984   48981      24   48987   48981      24   48987   48984      25
   48993   48990      24   48996   48990      24   48996   48993      25   49002
   48999      24   49005   48999      24   49005   49002      25   49011   49008
      24   49014   49008      24   49014   49011      25   49020   49017      24
   49023   49017      24   49023   49020      25   49029   49026      24   49032
   49026      24   49032   49029      25   49038   49035      24   49041   49035
      24   49041   49038      25   49047   49044      24   49050   49044      24
   49050   49047      25   49056   49053      24   49059   49053      24   49059
   49056      25   49065   49062      24   49068   49062      24   49068   49065
      25   49074   49071      24   49077   49071      24   49077   49074      25
   49083   49080      24   49086   49080      24   49086   49083      25   49092
   49089      24   49095   49089      24   49095   49092      25   49101   49098
      24   49104   49098      24   49104   49101      25   49110   49107      24
   49113   49107      24   49113   49110      25   49119   49116      24   49122
   49116      24   49122   49119      25   49128   49125      24   49131   49125
      24   49131   49128      25   49137   49134      24   49140   49134      24
   49140   49137      25   49146   49143      24   49149   49143      24   49149
   49146      25   49155   49152      24   49158   49152      24   49158   49155
      25   49164   49161      24   49167   49161      24   49167   49164      25
   49173   49170      24   49176   49170      24   49176   49173      25   49182
   49179      24   49185   49179      24   49185   49182      25   49191   49188
      24   49194   49188      24   49194   49191      25   49200   49197      24
   49203   49197      24   49203   49200      25   49209   49206      24   49212
   49206      24   49212   49209      25   49218   49215      24   49221   49215
      24   49221   49218      25   49227   49224      24   49230   49224      24
   49230   49227      25   49236   49233      24   49239   49233      24   49239
   49236      25   49245   49242      24   49248   49242      24   49248   49245
      25   49254   49251      24   49257   49251      24   49257   49254      25
   49263   49260      24   49266   49260      24   49266   49263      25   49272
   49269      24   49275   49269      24   49275   49272      25   49281   49278
      24   49284   49278      24   49284   49281      25   49290   49287      24
   49293   49287      24   49293   49290      25   49299   49296      24   49302
   49296      24   49302   49299      25   49308   49305      24   49311   49305
      24   49311   49308      25   49317   49314      24   49320   49314      24
   49320   49317      25   49326   49323      24   49329   49323      24   49329
   49326      25   49335   49332      24   49338   49332      24   49338   49335
      25   49344   49341      24   49347   49341      24   49347   49344      25
   49353   49350      24   49356   49350      24   49356   49353      25   49362
   49359      24   49365   49359      24   49365   49362      25   49371   49368
      24   49374   49368      24   49374   49371      25   49380   49377      24
   49383   49377      24   49383   49380      25   49389   49386      24   49392
   49386      24   49392   49389      25   49398   49395      24   49401   49395
      24   49401   49398      25   49407   49404      24   49410   49404      24
   49410   49407      25   49416   49413      24   49419   49413      24   49419
   49416      25   49425   49422      24   49428   49422      24   49428   49425
      25   49434   49431      24   49437   49431      24   49437   49434      25
   49443   49440      24   49446   49440      24   49446   49443      25   49452
   49449      24   49455   49449      24   49455   49452      25   49461   49458
      24   49464   49458      24   49464   49461      25   49470   49467      24
   49473   49467      24   49473   49470      25   49479   49476      24   49482
   49476      24   49482   49479      25   49488   49485      24   49491   49485
      24   49491   49488      25   49497   49494      24   49500   49494      24
   49500   49497      25   49506   49503      24   49509   49503      24   49509
   49506      25   49515   49512      24   49518   49512      24   49518   49515
      25   49524   49521      24   49527   49521      24   49527   49524      25
   49533   49530      24   49536   49530      24   49536   49533      25   49542
   49539      24   49545   49539      24   49545   49542      25   49551   49548
      24   49554   49548      24   49554   49551      25   49560   49557      24
   49563   49557      24   49563   49560      25   49569   49566      24   49572
   49566      24   49572   49569      25   49578   49575      24   49581   49575
      24   49581   49578      25   49587   49584      24   49590   49584      24
   49590   49587      25   49596   49593      24   49599   49593      24   49599
   49596      25   49605   49602      24   49608   49602      24   49608   49605
      25   49614   49611      24   49617   49611      24   49617   49614      25
   49623   49620      24   49626   49620      24   49626   49623      25   49632
   49629      24   49635   49629      24   49635   49632      25   49641   49638
      24   49644   49638      24   49644   49641      25   49650   49647      24
   49653   49647      24   49653   49650      25   49659   49656      24   49662
   49656      24   49662   49659      25   49668   49665      24   49671   49665
      24   49671   49668      25   49677   49674      24   49680   49674      24
   49680   49677      25   49686   49683      24   49689   49683      24   49689
   49686      25   49695   49692      24   49698   49692      24   49698   49695
      25   49704   49701      24   49707   49701      24   49707   49704      25
   49713   49710      24   49716   49710      24   49716   49713      25   49722
   49719      24   49725   49719      24   49725   49722      25   49731   49728
      24   49734   49728      24   49734   49731      25   49740   49737      24
   49743   49737      24   49743   49740      25   49749   49746      24   49752
   49746      24   49752   49749      25   49758   49755      24   49761   49755
      24   49761   49758      25   49767   49764      24   49770   49764      24
   49770   49767      25   49776   49773      24   49779   49773      24   49779
   49776      25   49785   49782      24   49788   49782      24   49788   49785
      25   49794   49791      24   49797   49791      24   49797   49794      25
   49803   49800      24   49806   49800      24   49806   49803      25   49812
   49809      24   49815   49809      24   49815   49812      25   49821   49818
      24   49824   49818      24   49824   49821      25   49830   49827      24
   49833   49827      24   49833   49830      25   49839   49836      24   49842
   49836      24   49842   49839      25   49848   49845      24   49851   49845
      24   49851   49848      25   49857   49854      24   49860   49854      24
   49860   49857      25   49866   49863      24   49869   49863      24   49869
   49866      25   49875   49872      24   49878   49872      24   49878   49875
      25   49884   49881      24   49887   49881      24   49887   49884      25
   49893   49890      24   49896   49890      24   49896   49893      25   49902
   49899      24   49905   49899      24   49905   49902      25   49911   49908
      24   49914   49908      24   49914   49911      25   49920   49917      24
   49923   49917      24   49923   49920      25   49929   49926      24   49932
   49926      24   49932   49929      25   49938   49935      24   49941   49935
      24   49941   49938      25   49947   49944      24   49950   49944      24
   49950   49947      25   49956   49953      24   49959   49953      24   49959
   49956      25   49965   49962      24   49968   49962      24   49968   49965
      25   49974   49971      24   49977   49971      24   49977   49974      25
   49983   49980      24   49986   49980      24   49986   49983      25   49992
   49989      24   49995   49989      24   49995   49992      25   50001   49998
      24   50004   49998      24   50004   50001      25   50010   50007      24
   50013   50007      24   50013   50010      25   50019   50016      24   50022
   50016      24   50022   50019      25   50028   50025      24   50031   50025
      24   50031   50028      25   50037   50034      24   50040   50034      24
   50040   50037      25   50046   50043      24   50049   50043      24   50049
   50046      25   50055   50052      24   50058   50052      24   50058   50055
      25   50064   50061      24   50067   50061      24   50067   50064      25
   50073   50070      24   50076   50070      24   50076   50073      25   50082
   50079      24   50085   50079      24   50085   50082      25   50091   50088
      24   50094   50088      24   50094   50091      25   50100   50097      24
   50103   50097      24   50103   50100      25   50109   50106      24   50112
   50106      24   50112   50109      25   50118   50115      24   50121   50115
      24   50121   50118      25   50127   50124      24   50130   50124      24
   50130   50127      25   50136   50133      24   50139   50133      24   50139
   50136      25   50145   50142      24   50148   50142      24   50148   50145
      25   50154   50151      24   50157   50151      24   50157   50154      25
   50163   50160      24   50166   50160      24   50166   50163      25   50172
   50169      24   50175   50169      24   50175   50172      25   50181   50178
      24   50184   50178      24   50184   50181      25   50190   50187      24
   50193   50187      24   50193   50190      25   50199   50196      24   50202
   50196      24   50202   50199      25   50208   50205      24   50211   50205
      24   50211   50208      25   50217   50214      24   50220   50214      24
   50220   50217      25   50226   50223      24   50229   50223      24   50229
   50226      25   50235   50232      24   50238   50232      24   50238   50235
      25   50244   50241      24   50247   50241      24   50247   50244      25
   50253   50250      24   50256   50250      24   50256   50253      25   50262
   50259      24   50265   50259      24   50265   50262      25   50271   50268
      24   50274   50268      24   50274   50271      25   50280   50277      24
   50283   50277      24   50283   50280      25   50289   50286      24   50292
   50286      24   50292   50289      25   50298   50295      24   50301   50295
      24   50301   50298      25   50307   50304      24   50310   50304      24
   50310   50307      25   50316   50313      24   50319   50313      24   50319
   50316      25   50325   50322      24   50328   50322      24   50328   50325
      25   50334   50331      24   50337   50331      24   50337   50334      25
   50343   50340      24   50346   50340      24   50346   50343      25   50352
   50349      24   50355   50349      24   50355   50352      25   50361   50358
      24   50364   50358      24   50364   50361      25   50370   50367      24
   50373   50367      24   50373   50370      25   50379   50376      24   50382
   50376      24   50382   50379      25   50388   50385      24   50391   50385
      24   50391   50388      25   50397   50394      24   50400   50394      24
   50400   50397      25   50406   50403      24   50409   50403      24   50409
   50406      25   50415   50412      24   50418   50412      24   50418   50415
      25   50424   50421      24   50427   50421      24   50427   50424      25
   50433   50430      24   50436   50430      24   50436   50433      25   50442
   50439      24   50445   50439      24   50445   50442      25   50451   50448
      24   50454   50448      24   50454   50451      25   50460   50457      24
   50463   50457      24   50463   50460      25   50469   50466      24   50472
   50466      24   50472   50469      25   50478   50475      24   50481   50475
      24   50481   50478      25   50487   50484      24   50490   50484      24
   50490   50487      25   50496   50493      24   50499   50493      24   50499
   50496      25   50505   50502      24   50508   50502      24   50508   50505
      25   50514   50511      24   50517   50511      24   50517   50514      25
   50523   50520      24   50526   50520      24   50526   50523      25   50532
   50529      24   50535   50529      24   50535   50532      25   50541   50538
      24   50544   50538      24   50544   50541      25   50550   50547      24
   50553   50547      24   50553   50550      25   50559   50556      24   50562
   50556      24   50562   50559      25   50568   50565      24   50571   50565
      24   50571   50568      25   50577   50574      24   50580   50574      24
   50580   50577      25   50586   50583      24   50589   50583      24   50589
   50586      25   50595   50592      24   50598   50592      24   50598   50595
      25   50604   50601      24   50607   50601      24   50607   50604      25
   50613   50610      24   50616   50610      24   50616   50613      25   50622
   50619      24   50625   50619      24   50625   50622      25   50631   50628
      24   50634   50628      24   50634   50631      25   50640   50637      24
   50643   50637      24   50643   50640      25   50649   50646      24   50652
   50646      24   50652   50649      25   50658   50655      24   50661   50655
      24   50661   50658      25   50667   50664      24   50670   50664      24
   50670   50667      25   50676   50673      24   50679   50673      24   50679
   50676      25   50685   50682      24   50688   50682      24   50688   50685
      25   50694   50691      24   50697   50691      24   50697   50694      25
   50703   50700      24   50706   50700      24   50706   50703      25   50712
   50709      24   50715   50709      24   50715   50712      25   50721   50718
      24   50724   50718      24   50724   50721      25   50730   50727      24
   50733   50727      24   50733   50730      25   50739   50736      24   50742
   50736      24   50742   50739      25   50748   50745      24   50751   50745
      24   50751   50748      25   50757   50754      24   50760   50754      24
   50760   50757      25   50766   50763      24   50769   50763      24   50769
   50766      25   50775   50772      24   50778   50772      24   50778   50775
      25   50784   50781      24   50787   50781      24   50787   50784      25
   50793   50790      24   50796   50790      24   50796   50793      25   50802
   50799      24   50805   50799      24   50805   50802      25   50811   50808
      24   50814   50808      24   50814   50811      25   50820   50817      24
   50823   50817      24   50823   50820      25   50829   50826      24   50832
   50826      24   50832   50829      25   50838   50835      24   50841   50835
      24   50841   50838      25   50847   50844      24   50850   50844      24
   50850   50847      25   50856   50853      24   50859   50853      24   50859
   50856      25   50865   50862      24   50868   50862      24   50868   50865
      25   50874   50871      24   50877   50871      24   50877   50874      25
   50883   50880      24   50886   50880      24   50886   50883      25   50892
   50889      24   50895   50889      24   50895   50892      25   50901   50898
      24   50904   50898      24   50904   50901      25   50910   50907      24
   50913   50907      24   50913   50910      25   50919   50916      24   50922
   50916      24   50922   50919      25   50928   50925      24   50931   50925
      24   50931   50928      25   50937   50934      24   50940   50934      24
   50940   50937      25   50946   50943      24   50949   50943      24   50949
   50946      25   50955   50952      24   50958   50952      24   50958   50955
      25   50964   50961      24   50967   50961      24   50967   50964      25
   50973   50970      24   50976   50970      24   50976   50973      25   50982
   50979      24   50985   50979      24   50985   50982      25   50991   50988
      24   50994   50988      24   50994   50991      25   51000   50997      24
   51003   50997      24   51003   51000      25   51009   51006      24   51012
   51006      24   51012   51009      25   51018   51015      24   51021   51015
      24   51021   51018      25   51027   51024      24   51030   51024      24
   51030   51027      25   51036   51033      24   51039   51033      24   51039
   51036      25   51045   51042      24   51048   51042      24   51048   51045
      25   51054   51051      24   51057   51051      24   51057   51054      25
   51063   51060      24   51066   51060      24   51066   51063      25   51072
   51069      24   51075   51069      24   51075   51072      25   51081   51078
      24   51084   51078      24   51084   51081      25   51090   51087      24
   51093   51087      24   51093   51090      25   51099   51096      24   51102
   51096      24   51102   51099      25   51108   51105      24   51111   51105
      24   51111   51108      25   51117   51114      24   51120   51114      24
   51120   51117      25   51126   51123      24   51129   51123      24   51129
   51126      25   51135   51132      24   51138   51132      24   51138   51135
      25   51144   51141      24   51147   51141      24   51147   51144      25
   51153   51150      24   51156   51150      24   51156   51153      25   51162
   51159      24   51165   51159      24   51165   51162      25   51171   51168
      24   51174   51168      24   51174   51171      25   51180   51177      24
   51183   51177      24   51183   51180      25   51189   51186      24   51192
   51186      24   51192   51189      25   51198   51195      24   51201   51195
      24   51201   51198      25   51207   51204      24   51210   51204      24
   51210   51207      25   51216   51213      24   51219   51213      24   51219
   51216      25   51225   51222      24   51228   51222      24   51228   51225
      25   51234   51231      24   51237   51231      24   51237   51234      25
   51243   51240      24   51246   51240      24   51246   51243      25   51252
   51249      24   51255   51249      24   51255   51252      25   51261   51258
      24   51264   51258      24   51264   51261      25   51270   51267      24
   51273   51267      24   51273   51270      25   51279   51276      24   51282
   51276      24   51282   51279      25   51288   51285      24   51291   51285
      24   51291   51288      25   51297   51294      24   51300   51294      24
   51300   51297      25   51306   51303      24   51309   51303      24   51309
   51306      25   51315   51312      24   51318   51312      24   51318   51315
      25   51324   51321      24   51327   51321      24   51327   51324      25
   51333   51330      24   51336   51330      24   51336   51333      25   51342
   51339      24   51345   51339      24   51345   51342      25   51351   51348
      24   51354   51348      24   51354   51351      25   51360   51357      24
   51363   51357      24   51363   51360      25   51369   51366      24   51372
   51366      24   51372   51369      25   51378   51375      24   51381   51375
      24   51381   51378      25   51387   51384      24   51390   51384      24
   51390   51387      25   51396   51393      24   51399   51393      24   51399
   51396      25   51405   51402      24   51408   51402      24   51408   51405
      25   51414   51411      24   51417   51411      24   51417   51414      25
   51423   51420      24   51426   51420      24   51426   51423      25   51432
   51429      24   51435   51429      24   51435   51432      25   51441   51438
      24   51444   51438      24   51444   51441      25   51450   51447      24
   51453   51447      24   51453   51450      25   51459   51456      24   51462
   51456      24   51462   51459      25   51468   51465      24   51471   51465
      24   51471   51468      25   51477   51474      24   51480   51474      24
   51480   51477      25   51486   51483      24   51489   51483      24   51489
   51486      25   51495   51492      24   51498   51492      24   51498   51495
      25   51504   51501      24   51507   51501      24   51507   51504      25
   51513   51510      24   51516   51510      24   51516   51513      25   51522
   51519      24   51525   51519      24   51525   51522      25   51531   51528
      24   51534   51528      24   51534   51531      25   51540   51537      24
   51543   51537      24   51543   51540      25   51549   51546      24   51552
   51546      24   51552   51549      25   51558   51555      24   51561   51555
      24   51561   51558      25   51567   51564      24   51570   51564      24
   51570   51567      25   51576   51573      24   51579   51573      24   51579
   51576      25   51585   51582      24   51588   51582      24   51588   51585
      25   51594   51591      24   51597   51591      24   51597   51594      25
   51603   51600      24   51606   51600      24   51606   51603      25   51612
   51609      24   51615   51609      24   51615   51612      25   51621   51618
      24   51624   51618      24   51624   51621      25   51630   51627      24
   51633   51627      24   51633   51630      25   51639   51636      24   51642
   51636      24   51642   51639      25   51648   51645      24   51651   51645
      24   51651   51648      25   51657   51654      24   51660   51654      24
   51660   51657      25   51666   51663      24   51669   51663      24   51669
   51666      25   51675   51672      24   51678   51672      24   51678   51675
      25   51684   51681      24   51687   51681      24   51687   51684      25
   51693   51690      24   51696   51690      24   51696   51693      25   51702
   51699      24   51705   51699      24   51705   51702      25   51711   51708
      24   51714   51708      24   51714   51711      25   51720   51717      24
   51723   51717      24   51723   51720      25   51729   51726      24   51732
   51726      24   51732   51729      25   51738   51735      24   51741   51735
      24   51741   51738      25   51747   51744      24   51750   51744      24
   51750   51747      25   51756   51753      24   51759   51753      24   51759
   51756      25   51765   51762      24   51768   51762      24   51768   51765
      25   51774   51771      24   51777   51771      24   51777   51774      25
   51783   51780      24   51786   51780      24   51786   51783      25   51792
   51789      24   51795   51789      24   51795   51792      25   51801   51798
      24   51804   51798      24   51804   51801      25   51810   51807      24
   51813   51807      24   51813   51810      25   51819   51816      24   51822
   51816      24   51822   51819      25   51828   51825      24   51831   51825
      24   51831   51828      25   51837   51834      24   51840   51834      24
   51840   51837      25   51846   51843      24   51849   51843      24   51849
   51846      25   51855   51852      24   51858   51852      24   51858   51855
      25   51864   51861      24   51867   51861      24   51867   51864      25
   51873   51870      24   51876   51870      24   51876   51873      25   51882
   51879      24   51885   51879      24   51885   51882      25   51891   51888
      24   51894   51888      24   51894   51891      25   51900   51897      24
   51903   51897      24   51903   51900      25   51909   51906      24   51912
   51906      24   51912   51909      25   51918   51915      24   51921   51915
      24   51921   51918      25   51927   51924      24   51930   51924      24
   51930   51927      25   51936   51933      24   51939   51933      24   51939
   51936      25   51945   51942      24   51948   51942      24   51948   51945
      25   51954   51951      24   51957   51951      24   51957   51954      25
   51963   51960      24   51966   51960      24   51966   51963      25   51972
   51969      24   51975   51969      24   51975   51972      25   51981   51978
      24   51984   51978      24   51984   51981      25   51990   51987      24
   51993   51987      24   51993   51990      25   51999   51996      24   52002
   51996      24   52002   51999      25   52008   52005      24   52011   52005
      24   52011   52008      25   52017   52014      24   52020   52014      24
   52020   52017      25   52026   52023      24   52029   52023      24   52029
   52026      25   52035   52032      24   52038   52032      24   52038   52035
      25   52044   52041      24   52047   52041      24   52047   52044      25
   52053   52050      24   52056   52050      24   52056   52053      25   52062
   52059      24   52065   52059      24   52065   52062      25   52071   52068
      24   52074   52068      24   52074   52071      25   52080   52077      24
   52083   52077      24   52083   52080      25   52089   52086      24   52092
   52086      24   52092   52089      25   52098   52095      24   52101   52095
      24   52101   52098      25   52107   52104      24   52110   52104      24
   52110   52107      25   52116   52113      24   52119   52113      24   52119
   52116      25   52125   52122      24   52128   52122      24   52128   52125
      25   52134   52131      24   52137   52131      24   52137   52134      25
   52143   52140      24   52146   52140      24   52146   52143      25   52152
   52149      24   52155   52149      24   52155   52152      25   52161   52158
      24   52164   52158      24   52164   52161      25   52170   52167      24
   52173   52167      24   52173   52170      25   52179   52176      24   52182
   52176      24   52182   52179      25   52188   52185      24   52191   52185
      24   52191   52188      25   52197   52194      24   52200   52194      24
   52200   52197      25   52206   52203      24   52209   52203      24   52209
   52206      25   52215   52212      24   52218   52212      24   52218   52215
      25   52224   52221      24   52227   52221      24   52227   52224      25
   52233   52230      24   52236   52230      24   52236   52233      25   52242
   52239      24   52245   52239      24   52245   52242      25   52251   52248
      24   52254   52248      24   52254   52251      25   52260   52257      24
   52263   52257      24   52263   52260      25   52269   52266      24   52272
   52266      24   52272   52269      25   52278   52275      24   52281   52275
      24   52281   52278      25   52287   52284      24   52290   52284      24
   52290   52287      25   52296   52293      24   52299   52293      24   52299
   52296      25   52305   52302      24   52308   52302      24   52308   52305
      25   52314   52311      24   52317   52311      24   52317   52314      25
   52323   52320      24   52326   52320      24   52326   52323      25   52332
   52329      24   52335   52329      24   52335   52332      25   52341   52338
      24   52344   52338      24   52344   52341      25   52350   52347      24
   52353   52347      24   52353   52350      25   52359   52356      24   52362
   52356      24   52362   52359      25   52368   52365      24   52371   52365
      24   52371   52368      25   52377   52374      24   52380   52374      24
   52380   52377      25   52386   52383      24   52389   52383      24   52389
   52386      25   52395   52392      24   52398   52392      24   52398   52395
      25   52404   52401      24   52407   52401      24   52407   52404      25
   52413   52410      24   52416   52410      24   52416   52413      25   52422
   52419      24   52425   52419      24   52425   52422      25   52431   52428
      24   52434   52428      24   52434   52431      25   52440   52437      24
   52443   52437      24   52443   52440      25   52449   52446      24   52452
   52446      24   52452   52449      25   52458   52455      24   52461   52455
      24   52461   52458      25   52467   52464      24   52470   52464      24
   52470   52467      25   52476   52473      24   52479   52473      24   52479
   52476      25   52485   52482      24   52488   52482      24   52488   52485
      25   52494   52491      24   52497   52491      24   52497   52494      25
   52503   52500      24   52506   52500      24   52506   52503      25   52512
   52509      24   52515   52509      24   52515   52512      25   52521   52518
      24   52524   52518      24   52524   52521      25   52530   52527      24
   52533   52527      24   52533   52530      25   52539   52536      24   52542
   52536      24   52542   52539      25   52548   52545      24   52551   52545
      24   52551   52548      25   52557   52554      24   52560   52554      24
   52560   52557      25   52566   52563      24   52569   52563      24   52569
   52566      25   52575   52572      24   52578   52572      24   52578   52575
      25   52584   52581      24   52587   52581      24   52587   52584      25
   52593   52590      24   52596   52590      24   52596   52593      25   52602
   52599      24   52605   52599      24   52605   52602      25   52611   52608
      24   52614   52608      24   52614   52611      25   52620   52617      24
   52623   52617      24   52623   52620      25   52629   52626      24   52632
   52626      24   52632   52629      25   52638   52635      24   52641   52635
      24   52641   52638      25   52647   52644      24   52650   52644      24
   52650   52647      25   52656   52653      24   52659   52653      24   52659
   52656      25   52665   52662      24   52668   52662      24   52668   52665
      25   52674   52671      24   52677   52671      24   52677   52674      25
   52683   52680      24   52686   52680      24   52686   52683      25   52692
   52689      24   52695   52689      24   52695   52692      25   52701   52698
      24   52704   52698      24   52704   52701      25   52710   52707      24
   52713   52707      24   52713   52710      25   52719   52716      24   52722
   52716      24   52722   52719      25   52728   52725      24   52731   52725
      24   52731   52728      25   52737   52734      24   52740   52734      24
   52740   52737      25   52746   52743      24   52749   52743      24   52749
   52746      25   52755   52752      24   52758   52752      24   52758   52755
      25   52764   52761      24   52767   52761      24   52767   52764      25
   52773   52770      24   52776   52770      24   52776   52773      25   52782
   52779      24   52785   52779      24   52785   52782      25   52791   52788
      24   52794   52788      24   52794   52791      25   52800   52797      24
   52803   52797      24   52803   52800      25   52809   52806      24   52812
   52806      24   52812   52809      25   52818   52815      24   52821   52815
      24   52821   52818      25   52827   52824      24   52830   52824      24
   52830   52827      25   52836   52833      24   52839   52833      24   52839
   52836      25   52845   52842      24   52848   52842      24   52848   52845
      25   52854   52851      24   52857   52851      24   52857   52854      25
   52863   52860      24   52866   52860      24   52866   52863      25   52872
   52869      24   52875   52869      24   52875   52872      25   52881   52878
      24   52884   52878      24   52884   52881      25   52890   52887      24
   52893   52887      24   52893   52890      25   52899   52896      24   52902
   52896      24   52902   52899      25   52908   52905      24   52911   52905
      24   52911   52908      25   52917   52914      24   52920   52914      24
   52920   52917      25   52926   52923      24   52929   52923      24   52929
   52926      25   52935   52932      24   52938   52932      24   52938   52935
      25   52944   52941      24   52947   52941      24   52947   52944      25
   52953   52950      24   52956   52950      24   52956   52953      25   52962
   52959      24   52965   52959      24   52965   52962      25   52971   52968
      24   52974   52968      24   52974   52971      25   52980   52977      24
   52983   52977      24   52983   52980      25   52989   52986      24   52992
   52986      24   52992   52989      25   52998   52995      24   53001   52995
      24   53001   52998      25   53007   53004      24   53010   53004      24
   53010   53007      25   53016   53013      24   53019   53013      24   53019
   53016      25   53025   53022      24   53028   53022      24   53028   53025
      25   53034   53031      24   53037   53031      24   53037   53034      25
   53043   53040      24   53046   53040      24   53046   53043      25   53052
   53049      24   53055   53049      24   53055   53052      25   53061   53058
      24   53064   53058      24   53064   53061      25   53070   53067      24
   53073   53067      24   53073   53070      25   53079   53076      24   53082
   53076      24   53082   53079      25   53088   53085      24   53091   53085
      24   53091   53088      25   53097   53094      24   53100   53094      24
   53100   53097      25   53106   53103      24   53109   53103      24   53109
   53106      25   53115   53112      24   53118   53112      24   53118   53115
      25   53124   53121      24   53127   53121      24   53127   53124      25
   53133   53130      24   53136   53130      24   53136   53133      25   53142
   53139      24   53145   53139      24   53145   53142      25   53151   53148
      24   53154   53148      24   53154   53151      25   53160   53157      24
   53163   53157      24   53163   53160      25   53169   53166      24   53172
   53166      24   53172   53169      25   53178   53175      24   53181   53175
      24   53181   53178      25   53187   53184      24   53190   53184      24
   53190   53187      25   53196   53193      24   53199   53193      24   53199
   53196      25   53205   53202      24   53208   53202      24   53208   53205
      25   53214   53211      24   53217   53211      24   53217   53214      25
   53223   53220      24   53226   53220      24   53226   53223      25   53232
   53229      24   53235   53229      24   53235   53232      25   53241   53238
      24   53244   53238      24   53244   53241      25   53250   53247      24
   53253   53247      24   53253   53250      25   53259   53256      24   53262
   53256      24   53262   53259      25   53268   53265      24   53271   53265
      24   53271   53268      25   53277   53274      24   53280   53274      24
   53280   53277      25   53286   53283      24   53289   53283      24   53289
   53286      25   53295   53292      24   53298   53292      24   53298   53295
      25   53304   53301      24   53307   53301      24   53307   53304      25
   53313   53310      24   53316   53310      24   53316   53313      25   53322
   53319      24   53325   53319      24   53325   53322      25   53331   53328
      24   53334   53328      24   53334   53331      25   53340   53337      24
   53343   53337      24   53343   53340      25   53349   53346      24   53352
   53346      24   53352   53349      25   53358   53355      24   53361   53355
      24   53361   53358      25   53367   53364      24   53370   53364      24
   53370   53367      25   53376   53373      24   53379   53373      24   53379
   53376      25   53385   53382      24   53388   53382      24   53388   53385
      25   53394   53391      24   53397   53391      24   53397   53394      25
   53403   53400      24   53406   53400      24   53406   53403      25   53412
   53409      24   53415   53409      24   53415   53412      25   53421   53418
      24   53424   53418      24   53424   53421      25   53430   53427      24
   53433   53427      24   53433   53430      25   53439   53436      24   53442
   53436      24   53442   53439      25   53448   53445      24   53451   53445
      24   53451   53448      25   53457   53454      24   53460   53454      24
   53460   53457      25   53466   53463      24   53469   53463      24   53469
   53466      25   53475   53472      24   53478   53472      24   53478   53475
      25   53484   53481      24   53487   53481      24   53487   53484      25
   53493   53490      24   53496   53490      24   53496   53493      25   53502
   53499      24   53505   53499      24   53505   53502      25   53511   53508
      24   53514   53508      24   53514   53511      25   53520   53517      24
   53523   53517      24   53523   53520      25   53529   53526      24   53532
   53526      24   53532   53529      25   53538   53535      24   53541   53535
      24   53541   53538      25   53547   53544      24   53550   53544      24
   53550   53547      25   53556   53553      24   53559   53553      24   53559
   53556      25   53565   53562      24   53568   53562      24   53568   53565
      25   53574   53571      24   53577   53571      24   53577   53574      25
   53583   53580      24   53586   53580      24   53586   53583      25   53592
   53589      24   53595   53589      24   53595   53592      25   53601   53598
      24   53604   53598      24   53604   53601      25   53610   53607      24
   53613   53607      24   53613   53610      25   53619   53616      24   53622
   53616      24   53622   53619      25   53628   53625      24   53631   53625
      24   53631   53628      25   53637   53634      24   53640   53634      24
   53640   53637      25   53646   53643      24   53649   53643      24   53649
   53646      25   53655   53652      24   53658   53652      24   53658   53655
      25   53664   53661      24   53667   53661      24   53667   53664      25
   53673   53670      24   53676   53670      24   53676   53673      25   53682
   53679      24   53685   53679      24   53685   53682      25   53691   53688
      24   53694   53688      24   53694   53691      25   53700   53697      24
   53703   53697      24   53703   53700      25   53709   53706      24   53712
   53706      24   53712   53709      25   53718   53715      24   53721   53715
      24   53721   53718      25   53727   53724      24   53730   53724      24
   53730   53727      25   53736   53733      24   53739   53733      24   53739
   53736      25   53745   53742      24   53748   53742      24   53748   53745
      25   53754   53751      24   53757   53751      24   53757   53754      25
   53763   53760      24   53766   53760      24   53766   53763      25   53772
   53769      24   53775   53769      24   53775   53772      25   53781   53778
      24   53784   53778      24   53784   53781      25   53790   53787      24
   53793   53787      24   53793   53790      25   53799   53796      24   53802
   53796      24   53802   53799      25   53808   53805      24   53811   53805
      24   53811   53808      25   53817   53814      24   53820   53814      24
   53820   53817      25   53826   53823      24   53829   53823      24   53829
   53826      25   53835   53832      24   53838   53832      24   53838   53835
      25   53844   53841      24   53847   53841      24   53847   53844      25
   53853   53850      24   53856   53850      24   53856   53853      25   53862
   53859      24   53865   53859      24   53865   53862      25   53871   53868
      24   53874   53868      24   53874   53871      25   53880   53877      24
   53883   53877      24   53883   53880      25   53889   53886      24   53892
   53886      24   53892   53889      25   53898   53895      24   53901   53895
      24   53901   53898      25   53907   53904      24   53910   53904      24
   53910   53907      25   53916   53913      24   53919   53913      24   53919
   53916      25   53925   53922      24   53928   53922      24   53928   53925
      25   53934   53931      24   53937   53931      24   53937   53934      25
   53943   53940      24   53946   53940      24   53946   53943      25   53952
   53949      24   53955   53949      24   53955   53952      25   53961   53958
      24   53964   53958      24   53964   53961      25   53970   53967      24
   53973   53967      24   53973   53970      25   53979   53976      24   53982
   53976      24   53982   53979      25   53988   53985      24   53991   53985
      24   53991   53988      25   53997   53994      24   54000   53994      24
   54000   53997      25   54006   54003      24   54009   54003      24   54009
   54006      25   54015   54012      24   54018   54012      24   54018   54015
      25   54024   54021      24   54027   54021      24   54027   54024      25
   54033   54030      24   54036   54030      24   54036   54033      25   54042
   54039      24   54045   54039      24   54045   54042      25   54051   54048
      24   54054   54048      24   54054   54051      25   54060   54057      24
   54063   54057      24   54063   54060      25   54069   54066      24   54072
   54066      24   54072   54069      25   54078   54075      24   54081   54075
      24   54081   54078      25   54087   54084      24   54090   54084      24
   54090   54087      25   54096   54093      24   54099   54093      24   54099
   54096      25   54105   54102      24   54108   54102      24   54108   54105
      25   54114   54111      24   54117   54111      24   54117   54114      25
   54123   54120      24   54126   54120      24   54126   54123      25   54132
   54129      24   54135   54129      24   54135   54132      25   54141   54138
      24   54144   54138      24   54144   54141      25   54150   54147      24
   54153   54147      24   54153   54150      25   54159   54156      24   54162
   54156      24   54162   54159      25   54168   54165      24   54171   54165
      24   54171   54168      25   54177   54174      24   54180   54174      24
   54180   54177      25   54186   54183      24   54189   54183      24   54189
   54186      25   54195   54192      24   54198   54192      24   54198   54195
      25   54204   54201      24   54207   54201      24   54207   54204      25
   54213   54210      24   54216   54210      24   54216   54213      25   54222
   54219      24   54225   54219      24   54225   54222      25   54231   54228
      24   54234   54228      24   54234   54231      25   54240   54237      24
   54243   54237      24   54243   54240      25   54249   54246      24   54252
   54246      24   54252   54249      25   54258   54255      24   54261   54255
      24   54261   54258      25   54267   54264      24   54270   54264      24
   54270   54267      25   54276   54273      24   54279   54273      24   54279
   54276      25   54285   54282      24   54288   54282      24   54288   54285
      25   54294   54291      24   54297   54291      24   54297   54294      25
   54303   54300      24   54306   54300      24   54306   54303      25   54312
   54309      24   54315   54309      24   54315   54312      25   54321   54318
      24   54324   54318      24   54324   54321      25   54330   54327      24
   54333   54327      24   54333   54330      25   54339   54336      24   54342
   54336      24   54342   54339      25   54348   54345      24   54351   54345
      24   54351   54348      25   54357   54354      24   54360   54354      24
   54360   54357      25   54366   54363      24   54369   54363      24   54369
   54366      25   54375   54372      24   54378   54372      24   54378   54375
      25   54384   54381      24   54387   54381      24   54387   54384      25
   54393   54390      24   54396   54390      24   54396   54393      25   54402
   54399      24   54405   54399      24   54405   54402      25   54411   54408
      24   54414   54408      24   54414   54411      25   54420   54417      24
   54423   54417      24   54423   54420      25   54429   54426      24   54432
   54426      24   54432   54429      25   54438   54435      24   54441   54435
      24   54441   54438      25   54447   54444      24   54450   54444      24
   54450   54447      25   54456   54453      24   54459   54453      24   54459
   54456      25   54465   54462      24   54468   54462      24   54468   54465
      25   54474   54471      24   54477   54471      24   54477   54474      25
   54483   54480      24   54486   54480      24   54486   54483      25   54492
   54489      24   54495   54489      24   54495   54492      25   54501   54498
      24   54504   54498      24   54504   54501      25   54510   54507      24
   54513   54507      24   54513   54510      25   54519   54516      24   54522
   54516      24   54522   54519      25   54528   54525      24   54531   54525
      24   54531   54528      25   54537   54534      24   54540   54534      24
   54540   54537      25   54546   54543      24   54549   54543      24   54549
   54546      25   54555   54552      24   54558   54552      24   54558   54555
      25   54564   54561      24   54567   54561      24   54567   54564      25
   54573   54570      24   54576   54570      24   54576   54573      25   54582
   54579      24   54585   54579      24   54585   54582      25   54591   54588
      24   54594   54588      24   54594   54591      25   54600   54597      24
   54603   54597      24   54603   54600      25   54609   54606      24   54612
   54606      24   54612   54609      25   54618   54615      24   54621   54615
      24   54621   54618      25   54627   54624      24   54630   54624      24
   54630   54627      25   54636   54633      24   54639   54633      24   54639
   54636      25   54645   54642      24   54648   54642      24   54648   54645
      25   54654   54651      24   54657   54651      24   54657   54654      25
   54663   54660      24   54666   54660      24   54666   54663      25   54672
   54669      24   54675   54669      24   54675   54672      25   54681   54678
      24   54684   54678      24   54684   54681      25   54690   54687      24
   54693   54687      24   54693   54690      25   54699   54696      24   54702
   54696      24   54702   54699      25   54708   54705      24   54711   54705
      24   54711   54708      25   54717   54714      24   54720   54714      24
   54720   54717      25   54726   54723      24   54729   54723      24   54729
   54726      25   54735   54732      24   54738   54732      24   54738   54735
      25   54744   54741      24   54747   54741      24   54747   54744      25
   54753   54750      24   54756   54750      24   54756   54753      25   54762
   54759      24   54765   54759      24   54765   54762      25   54771   54768
      24   54774   54768      24   54774   54771      25   54780   54777      24
   54783   54777      24   54783   54780      25   54789   54786      24   54792
   54786      24   54792   54789      25   54798   54795      24   54801   54795
      24   54801   54798      25   54807   54804      24   54810   54804      24
   54810   54807      25   54816   54813      24   54819   54813      24   54819
   54816      25   54825   54822      24   54828   54822      24   54828   54825
      25   54834   54831      24   54837   54831      24   54837   54834      25
   54843   54840      24   54846   54840      24   54846   54843      25   54852
   54849      24   54855   54849      24   54855   54852      25   54861   54858
      24   54864   54858      24   54864   54861      25   54870   54867      24
   54873   54867      24   54873   54870      25   54879   54876      24   54882
   54876      24   54882   54879      25   54888   54885      24   54891   54885
      24   54891   54888      25   54897   54894      24   54900   54894      24
   54900   54897      25   54906   54903      24   54909   54903      24   54909
   54906      25   54915   54912      24   54918   54912      24   54918   54915
      25   54924   54921      24   54927   54921      24   54927   54924      25
   54933   54930      24   54936   54930      24   54936   54933      25   54942
   54939      24   54945   54939      24   54945   54942      25   54951   54948
      24   54954   54948      24   54954   54951      25   54960   54957      24
   54963   54957      24   54963   54960      25   54969   54966      24   54972
   54966      24   54972   54969      25   54978   54975      24   54981   54975
      24   54981   54978      25   54987   54984      24   54990   54984      24
   54990   54987      25   54996   54993      24   54999   54993      24   54999
   54996      25   55005   55002      24   55008   55002      24   55008   55005
      25   55014   55011      24   55017   55011      24   55017   55014      25
   55023   55020      24   55026   55020      24   55026   55023      25   55032
   55029      24   55035   55029      24   55035   55032      25   55041   55038
      24   55044   55038      24   55044   55041      25   55050   55047      24
   55053   55047      24   55053   55050      25   55059   55056      24   55062
   55056      24   55062   55059      25   55068   55065      24   55071   55065
      24   55071   55068      25   55077   55074      24   55080   55074      24
   55080   55077      25   55086   55083      24   55089   55083      24   55089
   55086      25   55095   55092      24   55098   55092      24   55098   55095
      25   55104   55101      24   55107   55101      24   55107   55104      25
   55113   55110      24   55116   55110      24   55116   55113      25   55122
   55119      24   55125   55119      24   55125   55122      25   55131   55128
      24   55134   55128      24   55134   55131      25   55140   55137      24
   55143   55137      24   55143   55140      25   55149   55146      24   55152
   55146      24   55152   55149      25   55158   55155      24   55161   55155
      24   55161   55158      25   55167   55164      24   55170   55164      24
   55170   55167      25   55176   55173      24   55179   55173      24   55179
   55176      25   55185   55182      24   55188   55182      24   55188   55185
      25   55194   55191      24   55197   55191      24   55197   55194      25
   55203   55200      24   55206   55200      24   55206   55203      25   55212
   55209      24   55215   55209      24   55215   55212      25   55221   55218
      24   55224   55218      24   55224   55221      25   55230   55227      24
   55233   55227      24   55233   55230      25   55239   55236      24   55242
   55236      24   55242   55239      25   55248   55245      24   55251   55245
      24   55251   55248      25   55257   55254      24   55260   55254      24
   55260   55257      25   55266   55263      24   55269   55263      24   55269
   55266      25   55275   55272      24   55278   55272      24   55278   55275
      25   55284   55281      24   55287   55281      24   55287   55284      25
   55293   55290      24   55296   55290      24   55296   55293      25   55302
   55299      24   55305   55299      24   55305   55302      25   55311   55308
      24   55314   55308      24   55314   55311      25   55320   55317      24
   55323   55317      24   55323   55320      25   55329   55326      24   55332
   55326      24   55332   55329      25   55338   55335      24   55341   55335
      24   55341   55338      25   55347   55344      24   55350   55344      24
   55350   55347      25   55356   55353      24   55359   55353      24   55359
   55356      25   55365   55362      24   55368   55362      24   55368   55365
      25   55374   55371      24   55377   55371      24   55377   55374      25
   55383   55380      24   55386   55380      24   55386   55383      25   55392
   55389      24   55395   55389      24   55395   55392      25   55401   55398
      24   55404   55398      24   55404   55401      25   55410   55407      24
   55413   55407      24   55413   55410      25   55419   55416      24   55422
   55416      24   55422   55419      25   55428   55425      24   55431   55425
      24   55431   55428      25   55437   55434      24   55440   55434      24
   55440   55437      25   55446   55443      24   55449   55443      24   55449
   55446      25   55455   55452      24   55458   55452      24   55458   55455
      25   55464   55461      24   55467   55461      24   55467   55464      25
   55473   55470      24   55476   55470      24   55476   55473      25   55482
   55479      24   55485   55479      24   55485   55482      25   55491   55488
      24   55494   55488      24   55494   55491      25   55500   55497      24
   55503   55497      24   55503   55500      25   55509   55506      24   55512
   55506      24   55512   55509      25   55518   55515      24   55521   55515
      24   55521   55518      25   55527   55524      24   55530   55524      24
   55530   55527      25   55536   55533      24   55539   55533      24   55539
   55536      25   55545   55542      24   55548   55542      24   55548   55545
      25   55554   55551      24   55557   55551      24   55557   55554      25
   55563   55560      24   55566   55560      24   55566   55563      25   55572
   55569      24   55575   55569      24   55575   55572      25   55581   55578
      24   55584   55578      24   55584   55581      25   55590   55587      24
   55593   55587      24   55593   55590      25   55599   55596      24   55602
   55596      24   55602   55599      25   55608   55605      24   55611   55605
      24   55611   55608      25   55617   55614      24   55620   55614      24
   55620   55617      25   55626   55623      24   55629   55623      24   55629
   55626      25   55635   55632      24   55638   55632      24   55638   55635
      25   55644   55641      24   55647   55641      24   55647   55644      25
   55653   55650      24   55656   55650      24   55656   55653      25   55662
   55659      24   55665   55659      24   55665   55662      25   55671   55668
      24   55674   55668      24   55674   55671      25   55680   55677      24
   55683   55677      24   55683   55680      25   55689   55686      24   55692
   55686      24   55692   55689      25   55698   55695      24   55701   55695
      24   55701   55698      25   55707   55704      24   55710   55704      24
   55710   55707      25   55716   55713      24   55719   55713      24   55719
   55716      25   55725   55722      24   55728   55722      24   55728   55725
      25   55734   55731      24   55737   55731      24   55737   55734      25
   55743   55740      24   55746   55740      24   55746   55743      25   55752
   55749      24   55755   55749      24   55755   55752      25   55761   55758
      24   55764   55758      24   55764   55761      25   55770   55767      24
   55773   55767      24   55773   55770      25   55779   55776      24   55782
   55776      24   55782   55779      25   55788   55785      24   55791   55785
      24   55791   55788      25   55797   55794      24   55800   55794      24
   55800   55797      25   55806   55803      24   55809   55803      24   55809
   55806      25   55815   55812      24   55818   55812      24   55818   55815
      25   55824   55821      24   55827   55821      24   55827   55824      25
   55833   55830      24   55836   55830      24   55836   55833      25   55842
   55839      24   55845   55839      24   55845   55842      25   55851   55848
      24   55854   55848      24   55854   55851      25   55860   55857      24
   55863   55857      24   55863   55860      25   55869   55866      24   55872
   55866      24   55872   55869      25   55878   55875      24   55881   55875
      24   55881   55878      25   55887   55884      24   55890   55884      24
   55890   55887      25   55896   55893      24   55899   55893      24   55899
   55896      25   55905   55902      24   55908   55902      24   55908   55905
      25   55914   55911      24   55917   55911      24   55917   55914      25
   55923   55920      24   55926   55920      24   55926   55923      25   55932
   55929      24   55935   55929      24   55935   55932      25   55941   55938
      24   55944   55938      24   55944   55941      25   55950   55947      24
   55953   55947      24   55953   55950      25   55959   55956      24   55962
   55956      24   55962   55959      25   55968   55965      24   55971   55965
      24   55971   55968      25   55977   55974      24   55980   55974      24
   55980   55977      25   55986   55983      24   55989   55983      24   55989
   55986      25   55995   55992      24   55998   55992      24   55998   55995
      25   56004   56001      24   56007   56001      24   56007   56004      25
   56013   56010      24   56016   56010      24   56016   56013      25   56022
   56019      24   56025   56019      24   56025   56022      25   56031   56028
      24   56034   56028      24   56034   56031      25   56040   56037      24
   56043   56037      24   56043   56040      25   56049   56046      24   56052
   56046      24   56052   56049      25   56058   56055      24   56061   56055
      24   56061   56058      25   56067   56064      24   56070   56064      24
   56070   56067      25   56076   56073      24   56079   56073      24   56079
   56076      25   56085   56082      24   56088   56082      24   56088   56085
      25   56094   56091      24   56097   56091      24   56097   56094      25
   56103   56100      24   56106   56100      24   56106   56103      25   56112
   56109      24   56115   56109      24   56115   56112      25   56121   56118
      24   56124   56118      24   56124   56121      25   56130   56127      24
   56133   56127      24   56133   56130      25   56139   56136      24   56142
   56136      24   56142   56139      25   56148   56145      24   56151   56145
      24   56151   56148      25   56157   56154      24   56160   56154      24
   56160   56157      25   56166   56163      24   56169   56163      24   56169
   56166      25   56175   56172      24   56178   56172      24   56178   56175
      25   56184   56181      24   56187   56181      24   56187   56184      25
   56193   56190      24   56196   56190      24   56196   56193      25   56202
   56199      24   56205   56199      24   56205   56202      25   56211   56208
      24   56214   56208      24   56214   56211      25   56220   56217      24
   56223   56217      24   56223   56220      25   56229   56226      24   56232
   56226      24   56232   56229      25   56238   56235      24   56241   56235
      24   56241   56238      25   56247   56244      24   56250   56244      24
   56250   56247      25   56256   56253      24   56259   56253      24   56259
   56256      25   56265   56262      24   56268   56262      24   56268   56265
      25   56274   56271      24   56277   56271      24   56277   56274      25
   56283   56280      24   56286   56280      24   56286   56283      25   56292
   56289      24   56295   56289      24   56295   56292      25   56301   56298
      24   56304   56298      24   56304   56301      25   56310   56307      24
   56313   56307      24   56313   56310      25   56319   56316      24   56322
   56316      24   56322   56319      25   56328   56325      24   56331   56325
      24   56331   56328      25   56337   56334      24   56340   56334      24
   56340   56337      25   56346   56343      24   56349   56343      24   56349
   56346      25   56355   56352      24   56358   56352      24   56358   56355
      25   56364   56361      24   56367   56361      24   56367   56364      25
   56373   56370      24   56376   56370      24   56376   56373      25   56382
   56379      24   56385   56379      24   56385   56382      25   56391   56388
      24   56394   56388      24   56394   56391      25   56400   56397      24
   56403   56397      24   56403   56400      25   56409   56406      24   56412
   56406      24   56412   56409      25   56418   56415      24   56421   56415
      24   56421   56418      25   56427   56424      24   56430   56424      24
   56430   56427      25   56436   56433      24   56439   56433      24   56439
   56436      25   56445   56442      24   56448   56442      24   56448   56445
      25   56454   56451      24   56457   56451      24   56457   56454      25
   56463   56460      24   56466   56460      24   56466   56463      25   56472
   56469      24   56475   56469      24   56475   56472      25   56481   56478
      24   56484   56478      24   56484   56481      25   56490   56487      24
   56493   56487      24   56493   56490      25   56499   56496      24   56502
   56496      24   56502   56499      25   56508   56505      24   56511   56505
      24   56511   56508      25   56517   56514      24   56520   56514      24
   56520   56517      25   56526   56523      24   56529   56523      24   56529
   56526      25   56535   56532      24   56538   56532      24   56538   56535
      25   56544   56541      24   56547   56541      24   56547   56544      25
   56553   56550      24   56556   56550      24   56556   56553      25   56562
   56559      24   56565   56559      24   56565   56562      25   56571   56568
      24   56574   56568      24   56574   56571      25   56580   56577      24
   56583   56577      24   56583   56580      25   56589   56586      24   56592
   56586      24   56592   56589      25   56598   56595      24   56601   56595
      24   56601   56598      25   56607   56604      24   56610   56604      24
   56610   56607      25   56616   56613      24   56619   56613      24   56619
   56616      25   56625   56622      24   56628   56622      24   56628   56625
      25   56634   56631      24   56637   56631      24   56637   56634      25
   56643   56640      24   56646   56640      24   56646   56643      25   56652
   56649      24   56655   56649      24   56655   56652      25   56661   56658
      24   56664   56658      24   56664   56661      25   56670   56667      24
   56673   56667      24   56673   56670      25   56679   56676      24   56682
   56676      24   56682   56679      25   56688   56685      24   56691   56685
      24   56691   56688      25   56697   56694      24   56700   56694      24
   56700   56697      25   56706   56703      24   56709   56703      24   56709
   56706      25   56715   56712      24   56718   56712      24   56718   56715
      25   56724   56721      24   56727   56721      24   56727   56724      25
   56733   56730      24   56736   56730      24   56736   56733      25   56742
   56739      24   56745   56739      24   56745   56742      25   56751   56748
      24   56754   56748      24   56754   56751      25   56760   56757      24
   56763   56757      24   56763   56760      25   56769   56766      24   56772
   56766      24   56772   56769      25   56778   56775      24   56781   56775
      24   56781   56778      25   56787   56784      24   56790   56784      24
   56790   56787      25   56796   56793      24   56799   56793      24   56799
   56796      25   56805   56802      24   56808   56802      24   56808   56805
      25   56814   56811      24   56817   56811      24   56817   56814      25
   56823   56820      24   56826   56820      24   56826   56823      25   56832
   56829      24   56835   56829      24   56835   56832      25   56841   56838
      24   56844   56838      24   56844   56841      25   56850   56847      24
   56853   56847      24   56853   56850      25   56859   56856      24   56862
   56856      24   56862   56859      25   56868   56865      24   56871   56865
      24   56871   56868      25   56877   56874      24   56880   56874      24
   56880   56877      25   56886   56883      24   56889   56883      24   56889
   56886      25   56895   56892      24   56898   56892      24   56898   56895
      25   56904   56901      24   56907   56901      24   56907   56904      25
   56913   56910      24   56916   56910      24   56916   56913      25   56922
   56919      24   56925   56919      24   56925   56922      25   56931   56928
      24   56934   56928      24   56934   56931      25   56940   56937      24
   56943   56937      24   56943   56940      25   56949   56946      24   56952
   56946      24   56952   56949      25   56958   56955      24   56961   56955
      24   56961   56958      25   56967   56964      24   56970   56964      24
   56970   56967      25   56976   56973      24   56979   56973      24   56979
   56976      25   56985   56982      24   56988   56982      24   56988   56985
      25   56994   56991      24   56997   56991      24   56997   56994      25
   57003   57000      24   57006   57000      24   57006   57003      25   57012
   57009      24   57015   57009      24   57015   57012      25   57021   57018
      24   57024   57018      24   57024   57021      25   57030   57027      24
   57033   57027      24   57033   57030      25   57039   57036      24   57042
   57036      24   57042   57039      25   57048   57045      24   57051   57045
      24   57051   57048      25   57057   57054      24   57060   57054      24
   57060   57057      25   57066   57063      24   57069   57063      24   57069
   57066      25   57075   57072      24   57078   57072      24   57078   57075
      25   57084   57081      24   57087   57081      24   57087   57084      25
   57093   57090      24   57096   57090      24   57096   57093      25   57102
   57099      24   57105   57099      24   57105   57102      25   57111   57108
      24   57114   57108      24   57114   57111      25   57120   57117      24
   57123   57117      24   57123   57120      25   57129   57126      24   57132
   57126      24   57132   57129      25   57138   57135      24   57141   57135
      24   57141   57138      25   57147   57144      24   57150   57144      24
   57150   57147      25   57156   57153      24   57159   57153      24   57159
   57156      25   57165   57162      24   57168   57162      24   57168   57165
      25   57174   57171      24   57177   57171      24   57177   57174      25
   57183   57180      24   57186   57180      24   57186   57183      25   57192
   57189      24   57195   57189      24   57195   57192      25   57201   57198
      24   57204   57198      24   57204   57201      25   57210   57207      24
   57213   57207      24   57213   57210      25   57219   57216      24   57222
   57216      24   57222   57219      25   57228   57225      24   57231   57225
      24   57231   57228      25   57237   57234      24   57240   57234      24
   57240   57237      25   57246   57243      24   57249   57243      24   57249
   57246      25   57255   57252      24   57258   57252      24   57258   57255
      25   57264   57261      24   57267   57261      24   57267   57264      25
   57273   57270      24   57276   57270      24   57276   57273      25   57282
   57279      24   57285   57279      24   57285   57282      25   57291   57288
      24   57294   57288      24   57294   57291      25   57300   57297      24
   57303   57297      24   57303   57300      25   57309   57306      24   57312
   57306      24   57312   57309      25   57318   57315      24   57321   57315
      24   57321   57318      25   57327   57324      24   57330   57324      24
   57330   57327      25   57336   57333      24   57339   57333      24   57339
   57336      25   57345   57342      24   57348   57342      24   57348   57345
      25   57354   57351      24   57357   57351      24   57357   57354      25
   57363   57360      24   57366   57360      24   57366   57363      25   57372
   57369      24   57375   57369      24   57375   57372      25   57381   57378
      24   57384   57378      24   57384   57381      25   57390   57387      24
   57393   57387      24   57393   57390      25   57399   57396      24   57402
   57396      24   57402   57399      25   57408   57405      24   57411   57405
      24   57411   57408      25   57417   57414      24   57420   57414      24
   57420   57417      25   57426   57423      24   57429   57423      24   57429
   57426      25   57435   57432      24   57438   57432      24   57438   57435
      25   57444   57441      24   57447   57441      24   57447   57444      25
   57453   57450      24   57456   57450      24   57456   57453      25   57462
   57459      24   57465   57459      24   57465   57462      25   57471   57468
      24   57474   57468      24   57474   57471      25   57480   57477      24
   57483   57477      24   57483   57480      25   57489   57486      24   57492
   57486      24   57492   57489      25   57498   57495      24   57501   57495
      24   57501   57498      25   57507   57504      24   57510   57504      24
   57510   57507      25   57516   57513      24   57519   57513      24   57519
   57516      25   57525   57522      24   57528   57522      24   57528   57525
      25   57534   57531      24   57537   57531      24   57537   57534      25
   57543   57540      24   57546   57540      24   57546   57543      25   57552
   57549      24   57555   57549      24   57555   57552      25   57561   57558
      24   57564   57558      24   57564   57561      25   57570   57567      24
   57573   57567      24   57573   57570      25   57579   57576      24   57582
   57576      24   57582   57579      25   57588   57585      24   57591   57585
      24   57591   57588      25   57597   57594      24   57600   57594      24
   57600   57597      25   57606   57603      24   57609   57603      24   57609
   57606      25   57615   57612      24   57618   57612      24   57618   57615
      25   57624   57621      24   57627   57621      24   57627   57624      25
   57633   57630      24   57636   57630      24   57636   57633      25   57642
   57639      24   57645   57639      24   57645   57642      25   57651   57648
      24   57654   57648      24   57654   57651      25   57660   57657      24
   57663   57657      24   57663   57660      25   57669   57666      24   57672
   57666      24   57672   57669      25   57678   57675      24   57681   57675
      24   57681   57678      25   57687   57684      24   57690   57684      24
   57690   57687      25   57696   57693      24   57699   57693      24   57699
   57696      25   57705   57702      24   57708   57702      24   57708   57705
      25   57714   57711      24   57717   57711      24   57717   57714      25
   57723   57720      24   57726   57720      24   57726   57723      25   57732
   57729      24   57735   57729      24   57735   57732      25   57741   57738
      24   57744   57738      24   57744   57741      25   57750   57747      24
   57753   57747      24   57753   57750      25   57759   57756      24   57762
   57756      24   57762   57759      25   57768   57765      24   57771   57765
      24   57771   57768      25   57777   57774      24   57780   57774      24
   57780   57777      25   57786   57783      24   57789   57783      24   57789
   57786      25   57795   57792      24   57798   57792      24   57798   57795
      25   57804   57801      24   57807   57801      24   57807   57804      25
   57813   57810      24   57816   57810      24   57816   57813      25   57822
   57819      24   57825   57819      24   57825   57822      25   57831   57828
      24   57834   57828      24   57834   57831      25   57840   57837      24
   57843   57837      24   57843   57840      25   57849   57846      24   57852
   57846      24   57852   57849      25   57858   57855      24   57861   57855
      24   57861   57858      25   57867   57864      24   57870   57864      24
   57870   57867      25   57876   57873      24   57879   57873      24   57879
   57876      25   57885   57882      24   57888   57882      24   57888   57885
      25   57894   57891      24   57897   57891      24   57897   57894      25
   57903   57900      24   57906   57900      24   57906   57903      25   57912
   57909      24   57915   57909      24   57915   57912      25   57921   57918
      24   57924   57918      24   57924   57921      25   57930   57927      24
   57933   57927      24   57933   57930      25   57939   57936      24   57942
   57936      24   57942   57939      25   57948   57945      24   57951   57945
      24   57951   57948      25   57957   57954      24   57960   57954      24
   57960   57957      25   57966   57963      24   57969   57963      24   57969
   57966      25   57975   57972      24   57978   57972      24   57978   57975
      25   57984   57981      24   57987   57981      24   57987   57984      25
   57993   57990      24   57996   57990      24   57996   57993      25   58002
   57999      24   58005   57999      24   58005   58002      25   58011   58008
      24   58014   58008      24   58014   58011      25   58020   58017      24
   58023   58017      24   58023   58020      25   58029   58026      24   58032
   58026      24   58032   58029      25   58038   58035      24   58041   58035
      24   58041   58038      25   58047   58044      24   58050   58044      24
   58050   58047      25   58056   58053      24   58059   58053      24   58059
   58056      25   58065   58062      24   58068   58062      24   58068   58065
      25   58074   58071      24   58077   58071      24   58077   58074      25
   58083   58080      24   58086   58080      24   58086   58083      25   58092
   58089      24   58095   58089      24   58095   58092      25   58101   58098
      24   58104   58098      24   58104   58101      25   58110   58107      24
   58113   58107      24   58113   58110      25   58119   58116      24   58122
   58116      24   58122   58119      25   58128   58125      24   58131   58125
      24   58131   58128      25   58137   58134      24   58140   58134      24
   58140   58137      25   58146   58143      24   58149   58143      24   58149
   58146      25   58155   58152      24   58158   58152      24   58158   58155
      25   58164   58161      24   58167   58161      24   58167   58164      25
   58173   58170      24   58176   58170      24   58176   58173      25   58182
   58179      24   58185   58179      24   58185   58182      25   58191   58188
      24   58194   58188      24   58194   58191      25   58200   58197      24
   58203   58197      24   58203   58200      25   58209   58206      24   58212
   58206      24   58212   58209      25   58218   58215      24   58221   58215
      24   58221   58218      25   58227   58224      24   58230   58224      24
   58230   58227      25   58236   58233      24   58239   58233      24   58239
   58236      25   58245   58242      24   58248   58242      24   58248   58245
      25   58254   58251      24   58257   58251      24   58257   58254      25
   58263   58260      24   58266   58260      24   58266   58263      25   58272
   58269      24   58275   58269      24   58275   58272      25   58281   58278
      24   58284   58278      24   58284   58281      25   58290   58287      24
   58293   58287      24   58293   58290      25   58299   58296      24   58302
   58296      24   58302   58299      25   58308   58305      24   58311   58305
      24   58311   58308      25   58317   58314      24   58320   58314      24
   58320   58317      25   58326   58323      24   58329   58323      24   58329
   58326      25   58335   58332      24   58338   58332      24   58338   58335
      25   58344   58341      24   58347   58341      24   58347   58344      25
   58353   58350      24   58356   58350      24   58356   58353      25   58362
   58359      24   58365   58359      24   58365   58362      25   58371   58368
      24   58374   58368      24   58374   58371      25   58380   58377      24
   58383   58377      24   58383   58380      25   58389   58386      24   58392
   58386      24   58392   58389      25   58398   58395      24   58401   58395
      24   58401   58398      25   58407   58404      24   58410   58404      24
   58410   58407      25   58416   58413      24   58419   58413      24   58419
   58416      25   58425   58422      24   58428   58422      24   58428   58425
      25   58434   58431      24   58437   58431      24   58437   58434      25
   58443   58440      24   58446   58440      24   58446   58443      25   58452
   58449      24   58455   58449      24   58455   58452      25   58461   58458
      24   58464   58458      24   58464   58461      25   58470   58467      24
   58473   58467      24   58473   58470      25   58479   58476      24   58482
   58476      24   58482   58479      25   58488   58485      24   58491   58485
      24   58491   58488      25   58497   58494      24   58500   58494      24
   58500   58497      25   58506   58503      24   58509   58503      24   58509
   58506      25   58515   58512      24   58518   58512      24   58518   58515
      25   58524   58521      24   58527   58521      24   58527   58524      25
   58533   58530      24   58536   58530      24   58536   58533      25   58542
   58539      24   58545   58539      24   58545   58542      25   58551   58548
      24   58554   58548      24   58554   58551      25   58560   58557      24
   58563   58557      24   58563   58560      25   58569   58566      24   58572
   58566      24   58572   58569      25   58578   58575      24   58581   58575
      24   58581   58578      25   58587   58584      24   58590   58584      24
   58590   58587      25   58596   58593      24   58599   58593      24   58599
   58596      25   58605   58602      24   58608   58602      24   58608   58605
      25   58614   58611      24   58617   58611      24   58617   58614      25
   58623   58620      24   58626   58620      24   58626   58623      25   58632
   58629      24   58635   58629      24   58635   58632      25   58641   58638
      24   58644   58638      24   58644   58641      25   58650   58647      24
   58653   58647      24   58653   58650      25   58659   58656      24   58662
   58656      24   58662   58659      25   58668   58665      24   58671   58665
      24   58671   58668      25   58677   58674      24   58680   58674      24
   58680   58677      25   58686   58683      24   58689   58683      24   58689
   58686      25   58695   58692      24   58698   58692      24   58698   58695
      25   58704   58701      24   58707   58701      24   58707   58704      25
   58713   58710      24   58716   58710      24   58716   58713      25   58722
   58719      24   58725   58719      24   58725   58722      25   58731   58728
      24   58734   58728      24   58734   58731      25   58740   58737      24
   58743   58737      24   58743   58740      25   58749   58746      24   58752
   58746      24   58752   58749      25   58758   58755      24   58761   58755
      24   58761   58758      25   58767   58764      24   58770   58764      24
   58770   58767      25   58776   58773      24   58779   58773      24   58779
   58776      25   58785   58782      24   58788   58782      24   58788   58785
      25   58794   58791      24   58797   58791      24   58797   58794      25
   58803   58800      24   58806   58800      24   58806   58803      25   58812
   58809      24   58815   58809      24   58815   58812      25   58821   58818
      24   58824   58818      24   58824   58821      25   58830   58827      24
   58833   58827      24   58833   58830      25   58839   58836      24   58842
   58836      24   58842   58839      25   58848   58845      24   58851   58845
      24   58851   58848      25   58857   58854      24   58860   58854      24
   58860   58857      25   58866   58863      24   58869   58863      24   58869
   58866      25   58875   58872      24   58878   58872      24   58878   58875
      25   58884   58881      24   58887   58881      24   58887   58884      25
   58893   58890      24   58896   58890      24   58896   58893      25   58902
   58899      24   58905   58899      24   58905   58902      25   58911   58908
      24   58914   58908      24   58914   58911      25   58920   58917      24
   58923   58917      24   58923   58920      25   58929   58926      24   58932
   58926      24   58932   58929      25   58938   58935      24   58941   58935
      24   58941   58938      25   58947   58944      24   58950   58944      24
   58950   58947      25   58956   58953      24   58959   58953      24   58959
   58956      25   58965   58962      24   58968   58962      24   58968   58965
      25   58974   58971      24   58977   58971      24   58977   58974      25
   58983   58980      24   58986   58980      24   58986   58983      25   58992
   58989      24   58995   58989      24   58995   58992      25   59001   58998
      24   59004   58998      24   59004   59001      25   59010   59007      24
   59013   59007      24   59013   59010      25   59019   59016      24   59022
   59016      24   59022   59019      25   59028   59025      24   59031   59025
      24   59031   59028      25   59037   59034      24   59040   59034      24
   59040   59037      25   59046   59043      24   59049   59043      24   59049
   59046      25   59055   59052      24   59058   59052      24   59058   59055
      25   59064   59061      24   59067   59061      24   59067   59064      25
   59073   59070      24   59076   59070      24   59076   59073      25   59082
   59079      24   59085   59079      24   59085   59082      25   59091   59088
      24   59094   59088      24   59094   59091      25   59100   59097      24
   59103   59097      24   59103   59100      25   59109   59106      24   59112
   59106      24   59112   59109      25   59118   59115      24   59121   59115
      24   59121   59118      25   59127   59124      24   59130   59124      24
   59130   59127      25   59136   59133      24   59139   59133      24   59139
   59136      25   59145   59142      24   59148   59142      24   59148   59145
      25   59154   59151      24   59157   59151      24   59157   59154      25
   59163   59160      24   59166   59160      24   59166   59163      25   59172
   59169      24   59175   59169      24   59175   59172      25   59181   59178
      24   59184   59178      24   59184   59181      25   59190   59187      24
   59193   59187      24   59193   59190      25   59199   59196      24   59202
   59196      24   59202   59199      25   59208   59205      24   59211   59205
      24   59211   59208      25   59217   59214      24   59220   59214      24
   59220   59217      25   59226   59223      24   59229   59223      24   59229
   59226      25   59235   59232      24   59238   59232      24   59238   59235
      25   59244   59241      24   59247   59241      24   59247   59244      25
   59253   59250      24   59256   59250      24   59256   59253      25   59262
   59259      24   59265   59259      24   59265   59262      25   59271   59268
      24   59274   59268      24   59274   59271      25   59280   59277      24
   59283   59277      24   59283   59280      25   59289   59286      24   59292
   59286      24   59292   59289      25   59298   59295      24   59301   59295
      24   59301   59298      25   59307   59304      24   59310   59304      24
   59310   59307      25   59316   59313      24   59319   59313      24   59319
   59316      25   59325   59322      24   59328   59322      24   59328   59325
      25   59334   59331      24   59337   59331      24   59337   59334      25
   59343   59340      24   59346   59340      24   59346   59343      25   59352
   59349      24   59355   59349      24   59355   59352      25   59361   59358
      24   59364   59358      24   59364   59361      25   59370   59367      24
   59373   59367      24   59373   59370      25   59379   59376      24   59382
   59376      24   59382   59379      25   59388   59385      24   59391   59385
      24   59391   59388      25   59397   59394      24   59400   59394      24
   59400   59397      25   59406   59403      24   59409   59403      24   59409
   59406      25   59415   59412      24   59418   59412      24   59418   59415
      25   59424   59421      24   59427   59421      24   59427   59424      25
   59433   59430      24   59436   59430      24   59436   59433      25   59442
   59439      24   59445   59439      24   59445   59442      25   59451   59448
      24   59454   59448      24   59454   59451      25   59460   59457      24
   59463   59457      24   59463   59460      25   59469   59466      24   59472
   59466      24   59472   59469      25   59478   59475      24   59481   59475
      24   59481   59478      25   59487   59484      24   59490   59484      24
   59490   59487      25   59496   59493      24   59499   59493      24   59499
   59496      25   59505   59502      24   59508   59502      24   59508   59505
      25   59514   59511      24   59517   59511      24   59517   59514      25
   59523   59520      24   59526   59520      24   59526   59523      25   59532
   59529      24   59535   59529      24   59535   59532      25   59541   59538
      24   59544   59538      24   59544   59541      25   59550   59547      24
   59553   59547      24   59553   59550      25   59559   59556      24   59562
   59556      24   59562   59559      25   59568   59565      24   59571   59565
      24   59571   59568      25   59577   59574      24   59580   59574      24
   59580   59577      25   59586   59583      24   59589   59583      24   59589
   59586      25   59595   59592      24   59598   59592      24   59598   59595
      25   59604   59601      24   59607   59601      24   59607   59604      25
   59613   59610      24   59616   59610      24   59616   59613      25   59622
   59619      24   59625   59619      24   59625   59622      25   59631   59628
      24   59634   59628      24   59634   59631      25   59640   59637      24
   59643   59637      24   59643   59640      25   59649   59646      24   59652
   59646      24   59652   59649      25   59658   59655      24   59661   59655
      24   59661   59658      25   59667   59664      24   59670   59664      24
   59670   59667      25   59676   59673      24   59679   59673      24   59679
   59676      25   59685   59682      24   59688   59682      24   59688   59685
      25   59694   59691      24   59697   59691      24   59697   59694      25
   59703   59700      24   59706   59700      24   59706   59703      25   59712
   59709      24   59715   59709      24   59715   59712      25   59721   59718
      24   59724   59718      24   59724   59721      25   59730   59727      24
   59733   59727      24   59733   59730      25   59739   59736      24   59742
   59736      24   59742   59739      25   59748   59745      24   59751   59745
      24   59751   59748      25   59757   59754      24   59760   59754      24
   59760   59757      25   59766   59763      24   59769   59763      24   59769
   59766      25   59775   59772      24   59778   59772      24   59778   59775
      25   59784   59781      24   59787   59781      24   59787   59784      25
   59793   59790      24   59796   59790      24   59796   59793      25   59802
   59799      24   59805   59799      24   59805   59802      25   59811   59808
      24   59814   59808      24   59814   59811      25   59820   59817      24
   59823   59817      24   59823   59820      25   59829   59826      24   59832
   59826      24   59832   59829      25   59838   59835      24   59841   59835
      24   59841   59838      25   59847   59844      24   59850   59844      24
   59850   59847      25   59856   59853      24   59859   59853      24   59859
   59856      25   59865   59862      24   59868   59862      24   59868   59865
      25   59874   59871      24   59877   59871      24   59877   59874      25
   59883   59880      24   59886   59880      24   59886   59883      25   59892
   59889      24   59895   59889      24   59895   59892      25   59901   59898
      24   59904   59898      24   59904   59901      25   59910   59907      24
   59913   59907      24   59913   59910      25   59919   59916      24   59922
   59916      24   59922   59919      25   59928   59925      24   59931   59925
      24   59931   59928      25   59937   59934      24   59940   59934      24
   59940   59937      25   59946   59943      24   59949   59943      24   59949
   59946      25   59955   59952      24   59958   59952      24   59958   59955
      25   59964   59961      24   59967   59961      24   59967   59964      25
   59973   59970      24   59976   59970      24   59976   59973      25   59982
   59979      24   59985   59979      24   59985   59982      25   59991   59988
      24   59994   59988      24   59994   59991      25   60000   59997      24
   60003   59997      24   60003   60000      25   60009   60006      24   60012
   60006      24   60012   60009      25   60018   60015      24   60021   60015
      24   60021   60018      25   60027   60024      24   60030   60024      24
   60030   60027      25   60036   60033      24   60039   60033      24   60039
   60036      25   60045   60042      24   60048   60042      24   60048   60045
      25   60054   60051      24   60057   60051      24   60057   60054      25
   60063   60060      24   60066   60060      24   60066   60063      25   60072
   60069      24   60075   60069      24   60075   60072      25   60081   60078
      24   60084   60078      24   60084   60081      25   60090   60087      24
   60093   60087      24   60093   60090      25   60099   60096      24   60102
   60096      24   60102   60099      25   60108   60105      24   60111   60105
      24   60111   60108      25   60117   60114      24   60120   60114      24
   60120   60117      25   60126   60123      24   60129   60123      24   60129
   60126      25   60135   60132      24   60138   60132      24   60138   60135
      25   60144   60141      24   60147   60141      24   60147   60144      25
   60153   60150      24   60156   60150      24   60156   60153      25   60162
   60159      24   60165   60159      24   60165   60162      25   60171   60168
      24   60174   60168      24   60174   60171      25   60180   60177      24
   60183   60177      24   60183   60180      25   60189   60186      24   60192
   60186      24   60192   60189      25   60198   60195      24   60201   60195
      24   60201   60198      25   60207   60204      24   60210   60204      24
   60210   60207      25   60216   60213      24   60219   60213      24   60219
   60216      25   60225   60222      24   60228   60222      24   60228   60225
      25   60234   60231      24   60237   60231      24   60237   60234      25
   60243   60240      24   60246   60240      24   60246   60243      25   60252
   60249      24   60255   60249      24   60255   60252      25   60261   60258
      24   60264   60258      24   60264   60261      25   60270   60267      24
   60273   60267      24   60273   60270      25   60279   60276      24   60282
   60276      24   60282   60279      25   60288   60285      24   60291   60285
      24   60291   60288      25   60297   60294      24   60300   60294      24
   60300   60297      25   60306   60303      24   60309   60303      24   60309
   60306      25   60315   60312      24   60318   60312      24   60318   60315
      25   60324   60321      24   60327   60321      24   60327   60324      25
   60333   60330      24   60336   60330      24   60336   60333      25   60342
   60339      24   60345   60339      24   60345   60342      25   60351   60348
      24   60354   60348      24   60354   60351      25   60360   60357      24
   60363   60357      24   60363   60360      25   60369   60366      24   60372
   60366      24   60372   60369      25   60378   60375      24   60381   60375
      24   60381   60378      25   60387   60384      24   60390   60384      24
   60390   60387      25   60396   60393      24   60399   60393      24   60399
   60396      25   60405   60402      24   60408   60402      24   60408   60405
      25   60414   60411      24   60417   60411      24   60417   60414      25
   60423   60420      24   60426   60420      24   60426   60423      25   60432
   60429      24   60435   60429      24   60435   60432      25   60441   60438
      24   60444   60438      24   60444   60441      25   60450   60447      24
   60453   60447      24   60453   60450      25   60459   60456      24   60462
   60456      24   60462   60459      25   60468   60465      24   60471   60465
      24   60471   60468      25   60477   60474      24   60480   60474      24
   60480   60477      25   60486   60483      24   60489   60483      24   60489
   60486      25   60495   60492      24   60498   60492      24   60498   60495
      25   60504   60501      24   60507   60501      24   60507   60504      25
   60513   60510      24   60516   60510      24   60516   60513      25   60522
   60519      24   60525   60519      24   60525   60522      25   60531   60528
      24   60534   60528      24   60534   60531      25   60540   60537      24
   60543   60537      24   60543   60540      25   60549   60546      24   60552
   60546      24   60552   60549      25   60558   60555      24   60561   60555
      24   60561   60558      25   60567   60564      24   60570   60564      24
   60570   60567      25   60576   60573      24   60579   60573      24   60579
   60576      25   60585   60582      24   60588   60582      24   60588   60585
      25   60594   60591      24   60597   60591      24   60597   60594      25
   60603   60600      24   60606   60600      24   60606   60603      25   60612
   60609      24   60615   60609      24   60615   60612      25   60621   60618
      24   60624   60618      24   60624   60621      25   60630   60627      24
   60633   60627      24   60633   60630      25   60639   60636      24   60642
   60636      24   60642   60639      25   60648   60645      24   60651   60645
      24   60651   60648      25   60657   60654      24   60660   60654      24
   60660   60657      25   60666   60663      24   60669   60663      24   60669
   60666      25   60675   60672      24   60678   60672      24   60678   60675
      25   60684   60681      24   60687   60681      24   60687   60684      25
   60693   60690      24   60696   60690      24   60696   60693      25   60702
   60699      24   60705   60699      24   60705   60702      25   60711   60708
      24   60714   60708      24   60714   60711      25   60720   60717      24
   60723   60717      24   60723   60720      25   60729   60726      24   60732
   60726      24   60732   60729      25   60738   60735      24   60741   60735
      24   60741   60738      25   60747   60744      24   60750   60744      24
   60750   60747      25   60756   60753      24   60759   60753      24   60759
   60756      25   60765   60762      24   60768   60762      24   60768   60765
      25   60774   60771      24   60777   60771      24   60777   60774      25
   60783   60780      24   60786   60780      24   60786   60783      25   60792
   60789      24   60795   60789      24   60795   60792      25   60801   60798
      24   60804   60798      24   60804   60801      25   60810   60807      24
   60813   60807      24   60813   60810      25   60819   60816      24   60822
   60816      24   60822   60819      25   60828   60825      24   60831   60825
      24   60831   60828      25   60837   60834      24   60840   60834      24
   60840   60837      25   60846   60843      24   60849   60843      24   60849
   60846      25   60855   60852      24   60858   60852      24   60858   60855
      25   60864   60861      24   60867   60861      24   60867   60864      25
   60873   60870      24   60876   60870      24   60876   60873      25   60882
   60879      24   60885   60879      24   60885   60882      25   60891   60888
      24   60894   60888      24   60894   60891      25   60900   60897      24
   60903   60897      24   60903   60900      25   60909   60906      24   60912
   60906      24   60912   60909      25   60918   60915      24   60921   60915
      24   60921   60918      25   60927   60924      24   60930   60924      24
   60930   60927      25   60936   60933      24   60939   60933      24   60939
   60936      25   60945   60942      24   60948   60942      24   60948   60945
      25   60954   60951      24   60957   60951      24   60957   60954      25
   60963   60960      24   60966   60960      24   60966   60963      25   60972
   60969      24   60975   60969      24   60975   60972      25   60981   60978
      24   60984   60978      24   60984   60981      25   60990   60987      24
   60993   60987      24   60993   60990      25   60999   60996      24   61002
   60996      24   61002   60999      25   61008   61005      24   61011   61005
      24   61011   61008      25   61017   61014      24   61020   61014      24
   61020   61017      25   61026   61023      24   61029   61023      24   61029
   61026      25   61035   61032      24   61038   61032      24   61038   61035
      25   61044   61041      24   61047   61041      24   61047   61044      25
   61053   61050      24   61056   61050      24   61056   61053      25   61062
   61059      24   61065   61059      24   61065   61062      25   61071   61068
      24   61074   61068      24   61074   61071      25   61080   61077      24
   61083   61077      24   61083   61080      25   61089   61086      24   61092
   61086      24   61092   61089      25   61098   61095      24   61101   61095
      24   61101   61098      25   61107   61104      24   61110   61104      24
   61110   61107      25   61116   61113      24   61119   61113      24   61119
   61116      25   61125   61122      24   61128   61122      24   61128   61125
      25   61134   61131      24   61137   61131      24   61137   61134      25
   61143   61140      24   61146   61140      24   61146   61143      25   61152
   61149      24   61155   61149      24   61155   61152      25   61161   61158
      24   61164   61158      24   61164   61161      25   61170   61167      24
   61173   61167      24   61173   61170      25   61179   61176      24   61182
   61176      24   61182   61179      25   61188   61185      24   61191   61185
      24   61191   61188      25   61197   61194      24   61200   61194      24
   61200   61197      25   61206   61203      24   61209   61203      24   61209
   61206      25   61215   61212      24   61218   61212      24   61218   61215
      25   61224   61221      24   61227   61221      24   61227   61224      25
   61233   61230      24   61236   61230      24   61236   61233      25   61242
   61239      24   61245   61239      24   61245   61242      25   61251   61248
      24   61254   61248      24   61254   61251      25   61260   61257      24
   61263   61257      24   61263   61260      25   61269   61266      24   61272
   61266      24   61272   61269      25   61278   61275      24   61281   61275
      24   61281   61278      25   61287   61284      24   61290   61284      24
   61290   61287      25   61296   61293      24   61299   61293      24   61299
   61296      25   61305   61302      24   61308   61302      24   61308   61305
      25   61314   61311      24   61317   61311      24   61317   61314      25
   61323   61320      24   61326   61320      24   61326   61323      25   61332
   61329      24   61335   61329      24   61335   61332      25   61341   61338
      24   61344   61338      24   61344   61341      25   61350   61347      24
   61353   61347      24   61353   61350      25   61359   61356      24   61362
   61356      24   61362   61359      25   61368   61365      24   61371   61365
      24   61371   61368      25   61377   61374      24   61380   61374      24
   61380   61377      25   61386   61383      24   61389   61383      24   61389
   61386      25   61395   61392      24   61398   61392      24   61398   61395
      25   61404   61401      24   61407   61401      24   61407   61404      25
   61413   61410      24   61416   61410      24   61416   61413      25   61422
   61419      24   61425   61419      24   61425   61422      25   61431   61428
      24   61434   61428      24   61434   61431      25   61440   61437      24
   61443   61437      24   61443   61440      25   61449   61446      24   61452
   61446      24   61452   61449      25   61458   61455      24   61461   61455
      24   61461   61458      25   61467   61464      24   61470   61464      24
   61470   61467      25   61476   61473      24   61479   61473      24   61479
   61476      25   61485   61482      24   61488   61482      24   61488   61485
      25   61494   61491      24   61497   61491      24   61497   61494      25
   61503   61500      24   61506   61500      24   61506   61503      25   61512
   61509      24   61515   61509      24   61515   61512      25   61521   61518
      24   61524   61518      24   61524   61521      25   61530   61527      24
   61533   61527      24   61533   61530      25   61539   61536      24   61542
   61536      24   61542   61539      25   61548   61545      24   61551   61545
      24   61551   61548      25   61557   61554      24   61560   61554      24
   61560   61557      25   61566   61563      24   61569   61563      24   61569
   61566      25   61575   61572      24   61578   61572      24   61578   61575
      25   61584   61581      24   61587   61581      24   61587   61584      25
   61593   61590      24   61596   61590      24   61596   61593      25   61602
   61599      24   61605   61599      24   61605   61602      25   61611   61608
      24   61614   61608      24   61614   61611      25   61620   61617      24
   61623   61617      24   61623   61620      25   61629   61626      24   61632
   61626      24   61632   61629      25   61638   61635      24   61641   61635
      24   61641   61638      25   61647   61644      24   61650   61644      24
   61650   61647      25   61656   61653      24   61659   61653      24   61659
   61656      25   61665   61662      24   61668   61662      24   61668   61665
      25   61674   61671      24   61677   61671      24   61677   61674      25
   61683   61680      24   61686   61680      24   61686   61683      25   61692
   61689      24   61695   61689      24   61695   61692      25   61701   61698
      24   61704   61698      24   61704   61701      25   61710   61707      24
   61713   61707      24   61713   61710      25   61719   61716      24   61722
   61716      24   61722   61719      25   61728   61725      24   61731   61725
      24   61731   61728      25   61737   61734      24   61740   61734      24
   61740   61737      25   61746   61743      24   61749   61743      24   61749
   61746      25   61755   61752      24   61758   61752      24   61758   61755
      25   61764   61761      24   61767   61761      24   61767   61764      25
   61773   61770      24   61776   61770      24   61776   61773      25   61782
   61779      24   61785   61779      24   61785   61782      25   61791   61788
      24   61794   61788      24   61794   61791      25   61800   61797      24
   61803   61797      24   61803   61800      25   61809   61806      24   61812
   61806      24   61812   61809      25   61818   61815      24   61821   61815
      24   61821   61818      25   61827   61824      24   61830   61824      24
   61830   61827      25   61836   61833      24   61839   61833      24   61839
   61836      25   61845   61842      24   61848   61842      24   61848   61845
      25   61854   61851      24   61857   61851      24   61857   61854      25
   61863   61860      24   61866   61860      24   61866   61863      25   61872
   61869      24   61875   61869      24   61875   61872      25   61881   61878
      24   61884   61878      24   61884   61881      25   61890   61887      24
   61893   61887      24   61893   61890      25   61899   61896      24   61902
   61896      24   61902   61899      25   61908   61905      24   61911   61905
      24   61911   61908      25   61917   61914      24   61920   61914      24
   61920   61917      25   61926   61923      24   61929   61923      24   61929
   61926      25   61935   61932      24   61938   61932      24   61938   61935
      25   61944   61941      24   61947   61941      24   61947   61944      25
   61953   61950      24   61956   61950      24   61956   61953      25   61962
   61959      24   61965   61959      24   61965   61962      25   61971   61968
      24   61974   61968      24   61974   61971      25   61980   61977      24
   61983   61977      24   61983   61980      25   61989   61986      24   61992
   61986      24   61992   61989      25   61998   61995      24   62001   61995
      24   62001   61998      25   62007   62004      24   62010   62004      24
   62010   62007      25   62016   62013      24   62019   62013      24   62019
   62016      25   62025   62022      24   62028   62022      24   62028   62025
      25   62034   62031      24   62037   62031      24   62037   62034      25
   62043   62040      24   62046   62040      24   62046   62043      25   62052
   62049      24   62055   62049      24   62055   62052      25   62061   62058
      24   62064   62058      24   62064   62061      25   62070   62067      24
   62073   62067      24   62073   62070      25   62079   62076      24   62082
   62076      24   62082   62079      25   62088   62085      24   62091   62085
      24   62091   62088      25   62097   62094      24   62100   62094      24
   62100   62097      25   62106   62103      24   62109   62103      24   62109
   62106      25   62115   62112      24   62118   62112      24   62118   62115
      25   62124   62121      24   62127   62121      24   62127   62124      25
   62133   62130      24   62136   62130      24   62136   62133      25   62142
   62139      24   62145   62139      24   62145   62142      25   62151   62148
      24   62154   62148      24   62154   62151      25   62160   62157      24
   62163   62157      24   62163   62160      25   62169   62166      24   62172
   62166      24   62172   62169      25   62178   62175      24   62181   62175
      24   62181   62178      25   62187   62184      24   62190   62184      24
   62190   62187      25   62196   62193      24   62199   62193      24   62199
   62196      25   62205   62202      24   62208   62202      24   62208   62205
      25   62214   62211      24   62217   62211      24   62217   62214      25
   62223   62220      24   62226   62220      24   62226   62223      25   62232
   62229      24   62235   62229      24   62235   62232      25   62241   62238
      24   62244   62238      24   62244   62241      25   62250   62247      24
   62253   62247      24   62253   62250      25   62259   62256      24   62262
   62256      24   62262   62259      25   62268   62265      24   62271   62265
      24   62271   62268      25   62277   62274      24   62280   62274      24
   62280   62277      25   62286   62283      24   62289   62283      24   62289
   62286      25   62295   62292      24   62298   62292      24   62298   62295
      25   62304   62301      24   62307   62301      24   62307   62304      25
   62313   62310      24   62316   62310      24   62316   62313      25   62322
   62319      24   62325   62319      24   62325   62322      25   62331   62328
      24   62334   62328      24   62334   62331      25   62340   62337      24
   62343   62337      24   62343   62340      25   62349   62346      24   62352
   62346      24   62352   62349      25   62358   62355      24   62361   62355
      24   62361   62358      25   62367   62364      24   62370   62364      24
   62370   62367      25   62376   62373      24   62379   62373      24   62379
   62376      25   62385   62382      24   62388   62382      24   62388   62385
      25   62394   62391      24   62397   62391      24   62397   62394      25
   62403   62400      24   62406   62400      24   62406   62403      25   62412
   62409      24   62415   62409      24   62415   62412      25   62421   62418
      24   62424   62418      24   62424   62421      25   62430   62427      24
   62433   62427      24   62433   62430      25   62439   62436      24   62442
   62436      24   62442   62439      25   62448   62445      24   62451   62445
      24   62451   62448      25   62457   62454      24   62460   62454      24
   62460   62457      25   62466   62463      24   62469   62463      24   62469
   62466      25   62475   62472      24   62478   62472      24   62478   62475
      25   62484   62481      24   62487   62481      24   62487   62484      25
   62493   62490      24   62496   62490      24   62496   62493      25   62502
   62499      24   62505   62499      24   62505   62502      25   62511   62508
      24   62514   62508      24   62514   62511      25   62520   62517      24
   62523   62517      24   62523   62520      25   62529   62526      24   62532
   62526      24   62532   62529      25   62538   62535      24   62541   62535
      24   62541   62538      25   62547   62544      24   62550   62544      24
   62550   62547      25   62556   62553      24   62559   62553      24   62559
   62556      25   62565   62562      24   62568   62562      24   62568   62565
      25   62574   62571      24   62577   62571      24   62577   62574      25
   62583   62580      24   62586   62580      24   62586   62583      25   62592
   62589      24   62595   62589      24   62595   62592      25   62601   62598
      24   62604   62598      24   62604   62601      25   62610   62607      24
   62613   62607      24   62613   62610      25   62619   62616      24   62622
   62616      24   62622   62619      25   62628   62625      24   62631   62625
      24   62631   62628      25   62637   62634      24   62640   62634      24
   62640   62637      25   62646   62643      24   62649   62643      24   62649
   62646      25   62655   62652      24   62658   62652      24   62658   62655
      25   62664   62661      24   62667   62661      24   62667   62664      25
   62673   62670      24   62676   62670      24   62676   62673      25   62682
   62679      24   62685   62679      24   62685   62682      25   62691   62688
      24   62694   62688      24   62694   62691      25   62700   62697      24
   62703   62697      24   62703   62700      25   62709   62706      24   62712
   62706      24   62712   62709      25   62718   62715      24   62721   62715
      24   62721   62718      25   62727   62724      24   62730   62724      24
   62730   62727      25   62736   62733      24   62739   62733      24   62739
   62736      25   62745   62742      24   62748   62742      24   62748   62745
      25   62754   62751      24   62757   62751      24   62757   62754      25
   62763   62760      24   62766   62760      24   62766   62763      25   62772
   62769      24   62775   62769      24   62775   62772      25   62781   62778
      24   62784   62778      24   62784   62781      25   62790   62787      24
   62793   62787      24   62793   62790      25   62799   62796      24   62802
   62796      24   62802   62799      25   62808   62805      24   62811   62805
      24   62811   62808      25   62817   62814      24   62820   62814      24
   62820   62817      25   62826   62823      24   62829   62823      24   62829
   62826      25   62835   62832      24   62838   62832      24   62838   62835
      25   62844   62841      24   62847   62841      24   62847   62844      25
   62853   62850      24   62856   62850      24   62856   62853      25   62862
   62859      24   62865   62859      24   62865   62862      25   62871   62868
      24   62874   62868      24   62874   62871      25   62880   62877      24
   62883   62877      24   62883   62880      25   62889   62886      24   62892
   62886      24   62892   62889      25   62898   62895      24   62901   62895
      24   62901   62898      25   62907   62904      24   62910   62904      24
   62910   62907      25   62916   62913      24   62919   62913      24   62919
   62916      25   62925   62922      24   62928   62922      24   62928   62925
      25   62934   62931      24   62937   62931      24   62937   62934      25
   62943   62940      24   62946   62940      24   62946   62943      25   62952
   62949      24   62955   62949      24   62955   62952      25   62961   62958
      24   62964   62958      24   62964   62961      25   62970   62967      24
   62973   62967      24   62973   62970      25   62979   62976      24   62982
   62976      24   62982   62979      25   62988   62985      24   62991   62985
      24   62991   62988      25   62997   62994      24   63000   62994      24
   63000   62997      25   63006   63003      24   63009   63003      24   63009
   63006      25   63015   63012      24   63018   63012      24   63018   63015
      25   63024   63021      24   63027   63021      24   63027   63024      25
   63033   63030      24   63036   63030      24   63036   63033      25   63042
   63039      24   63045   63039      24   63045   63042      25   63051   63048
      24   63054   63048      24   63054   63051      25   63060   63057      24
   63063   63057      24   63063   63060      25   63069   63066      24   63072
   63066      24   63072   63069      25   63078   63075      24   63081   63075
      24   63081   63078      25   63087   63084      24   63090   63084      24
   63090   63087      25   63096   63093      24   63099   63093      24   63099
   63096      25   63105   63102      24   63108   63102      24   63108   63105
      25   63114   63111      24   63117   63111      24   63117   63114      25
   63123   63120      24   63126   63120      24   63126   63123      25   63132
   63129      24   63135   63129      24   63135   63132      25   63141   63138
      24   63144   63138      24   63144   63141      25   63150   63147      24
   63153   63147      24   63153   63150      25   63159   63156      24   63162
   63156      24   63162   63159      25   63168   63165      24   63171   63165
      24   63171   63168      25   63177   63174      24   63180   63174      24
   63180   63177      25   63186   63183      24   63189   63183      24   63189
   63186      25   63195   63192      24   63198   63192      24   63198   63195
      25   63204   63201      24   63207   63201      24   63207   63204      25
   63213   63210      24   63216   63210      24   63216   63213      25   63222
   63219      24   63225   63219      24   63225   63222      25   63231   63228
      24   63234   63228      24   63234   63231      25   63240   63237      24
   63243   63237      24   63243   63240      25   63249   63246      24   63252
   63246      24   63252   63249      25   63258   63255      24   63261   63255
      24   63261   63258      25   63267   63264      24   63270   63264      24
   63270   63267      25   63276   63273      24   63279   63273      24   63279
   63276      25   63285   63282      24   63288   63282      24   63288   63285
      25   63294   63291      24   63297   63291      24   63297   63294      25
   63303   63300      24   63306   63300      24   63306   63303      25   63312
   63309      24   63315   63309      24   63315   63312      25   63321   63318
      24   63324   63318      24   63324   63321      25   63330   63327      24
   63333   63327      24   63333   63330      25   63339   63336      24   63342
   63336      24   63342   63339      25   63348   63345      24   63351   63345
      24   63351   63348      25   63357   63354      24   63360   63354      24
   63360   63357      25   63366   63363      24   63369   63363      24   63369
   63366      25   63375   63372      24   63378   63372      24   63378   63375
      25   63384   63381      24   63387   63381      24   63387   63384      25
   63393   63390      24   63396   63390      24   63396   63393      25   63402
   63399      24   63405   63399      24   63405   63402      25   63411   63408
      24   63414   63408      24   63414   63411      25   63420   63417      24
   63423   63417      24   63423   63420      25   63429   63426      24   63432
   63426      24   63432   63429      25   63438   63435      24   63441   63435
      24   63441   63438      25   63447   63444      24   63450   63444      24
   63450   63447      25   63456   63453      24   63459   63453      24   63459
   63456      25   63465   63462      24   63468   63462      24   63468   63465
      25   63474   63471      24   63477   63471      24   63477   63474      25
   63483   63480      24   63486   63480      24   63486   63483      25   63492
   63489      24   63495   63489      24   63495   63492      25   63501   63498
      24   63504   63498      24   63504   63501      25   63510   63507      24
   63513   63507      24   63513   63510      25   63519   63516      24   63522
   63516      24   63522   63519      25   63528   63525      24   63531   63525
      24   63531   63528      25   63537   63534      24   63540   63534      24
   63540   63537      25   63546   63543      24   63549   63543      24   63549
   63546      25   63555   63552      24   63558   63552      24   63558   63555
      25   63564   63561      24   63567   63561      24   63567   63564      25
   63573   63570      24   63576   63570      24   63576   63573      25   63582
   63579      24   63585   63579      24   63585   63582      25   63591   63588
      24   63594   63588      24   63594   63591      25   63600   63597      24
   63603   63597      24   63603   63600      25   63609   63606      24   63612
   63606      24   63612   63609      25   63618   63615      24   63621   63615
      24   63621   63618      25   63627   63624      24   63630   63624      24
   63630   63627      25   63636   63633      24   63639   63633      24   63639
   63636      25   63645   63642      24   63648   63642      24   63648   63645
      25   63654   63651      24   63657   63651      24   63657   63654      25
   63663   63660      24   63666   63660      24   63666   63663      25   63672
   63669      24   63675   63669      24   63675   63672      25   63681   63678
      24   63684   63678      24   63684   63681      25   63690   63687      24
   63693   63687      24   63693   63690      25   63699   63696      24   63702
   63696      24   63702   63699      25   63708   63705      24   63711   63705
      24   63711   63708      25   63717   63714      24   63720   63714      24
   63720   63717      25   63726   63723      24   63729   63723      24   63729
   63726      25   63735   63732      24   63738   63732      24   63738   63735
      25   63744   63741      24   63747   63741      24   63747   63744      25
   63753   63750      24   63756   63750      24   63756   63753      25   63762
   63759      24   63765   63759      24   63765   63762      25   63771   63768
      24   63774   63768      24   63774   63771      25   63780   63777      24
   63783   63777      24   63783   63780      25   63789   63786      24   63792
   63786      24   63792   63789      25   63798   63795      24   63801   63795
      24   63801   63798      25   63807   63804      24   63810   63804      24
   63810   63807      25   63816   63813      24   63819   63813      24   63819
   63816      25   63825   63822      24   63828   63822      24   63828   63825
      25   63834   63831      24   63837   63831      24   63837   63834      25
   63843   63840      24   63846   63840      24   63846   63843      25   63852
   63849      24   63855   63849      24   63855   63852      25   63861   63858
      24   63864   63858      24   63864   63861      25   63870   63867      24
   63873   63867      24   63873   63870      25   63879   63876      24   63882
   63876      24   63882   63879      25   63888   63885      24   63891   63885
      24   63891   63888      25   63897   63894      24   63900   63894      24
   63900   63897      25   63906   63903      24   63909   63903      24   63909
   63906      25   63915   63912      24   63918   63912      24   63918   63915
      25   63924   63921      24   63927   63921      24   63927   63924      25
   63933   63930      24   63936   63930      24   63936   63933      25   63942
   63939      24   63945   63939      24   63945   63942      25   63951   63948
      24   63954   63948      24   63954   63951      25   63960   63957      24
   63963   63957      24   63963   63960      25   63969   63966      24   63972
   63966      24   63972   63969      25   63978   63975      24   63981   63975
      24   63981   63978      25   63987   63984      24   63990   63984      24
   63990   63987      25   63996   63993      24   63999   63993      24   63999
   63996      25   64005   64002      24   64008   64002      24   64008   64005
      25   64014   64011      24   64017   64011      24   64017   64014      25
   64023   64020      24   64026   64020      24   64026   64023      25   64032
   64029      24   64035   64029      24   64035   64032      25   64041   64038
      24   64044   64038      24   64044   64041      25   64050   64047      24
   64053   64047      24   64053   64050      25   64059   64056      24   64062
   64056      24   64062   64059      25   64068   64065      24   64071   64065
      24   64071   64068      25   64077   64074      24   64080   64074      24
   64080   64077      25   64086   64083      24   64089   64083      24   64089
   64086      25   64095   64092      24   64098   64092      24   64098   64095
      25   64104   64101      24   64107   64101      24   64107   64104      25
   64113   64110      24   64116   64110      24   64116   64113      25   64122
   64119      24   64125   64119      24   64125   64122      25   64131   64128
      24   64134   64128      24   64134   64131      25   64140   64137      24
   64143   64137      24   64143   64140      25   64149   64146      24   64152
   64146      24   64152   64149      25   64158   64155      24   64161   64155
      24   64161   64158      25   64167   64164      24   64170   64164      24
   64170   64167      25   64176   64173      24   64179   64173      24   64179
   64176      25   64185   64182      24   64188   64182      24   64188   64185
      25   64194   64191      24   64197   64191      24   64197   64194      25
   64203   64200      24   64206   64200      24   64206   64203      25   64212
   64209      24   64215   64209      24   64215   64212      25   64221   64218
      24   64224   64218      24   64224   64221      25   64230   64227      24
   64233   64227      24   64233   64230      25   64239   64236      24   64242
   64236      24   64242   64239      25   64248   64245      24   64251   64245
      24   64251   64248      25   64257   64254      24   64260   64254      24
   64260   64257      25   64266   64263      24   64269   64263      24   64269
   64266      25   64275   64272      24   64278   64272      24   64278   64275
      25   64284   64281      24   64287   64281      24   64287   64284      25
   64293   64290      24   64296   64290      24   64296   64293      25   64302
   64299      24   64305   64299      24   64305   64302      25   64311   64308
      24   64314   64308      24   64314   64311      25   64320   64317      24
   64323   64317      24   64323   64320      25   64329   64326      24   64332
   64326      24   64332   64329      25   64338   64335      24   64341   64335
      24   64341   64338      25   64347   64344      24   64350   64344      24
   64350   64347      25   64356   64353      24   64359   64353      24   64359
   64356      25   64365   64362      24   64368   64362      24   64368   64365
      25   64374   64371      24   64377   64371      24   64377   64374      25
   64383   64380      24   64386   64380      24   64386   64383      25   64392
   64389      24   64395   64389      24   64395   64392      25   64401   64398
      24   64404   64398      24   64404   64401      25   64410   64407      24
   64413   64407      24   64413   64410      25   64419   64416      24   64422
   64416      24   64422   64419      25   64428   64425      24   64431   64425
      24   64431   64428      25   64437   64434      24   64440   64434      24
   64440   64437      25   64446   64443      24   64449   64443      24   64449
   64446      25   64455   64452      24   64458   64452      24   64458   64455
      25   64464   64461      24   64467   64461      24   64467   64464      25
   64473   64470      24   64476   64470      24   64476   64473      25   64482
   64479      24   64485   64479      24   64485   64482      25   64491   64488
      24   64494   64488      24   64494   64491      25   64500   64497      24
   64503   64497      24   64503   64500      25   64509   64506      24   64512
   64506      24   64512   64509      25   64518   64515      24   64521   64515
      24   64521   64518      25   64527   64524      24   64530   64524      24
   64530   64527      25   64536   64533      24   64539   64533      24   64539
   64536      25   64545   64542      24   64548   64542      24   64548   64545
      25   64554   64551      24   64557   64551      24   64557   64554      25
   64563   64560      24   64566   64560      24   64566   64563      25   64572
   64569      24   64575   64569      24   64575   64572      25   64581   64578
      24   64584   64578      24   64584   64581      25   64590   64587      24
   64593   64587      24   64593   64590      25   64599   64596      24   64602
   64596      24   64602   64599      25   64608   64605      24   64611   64605
      24   64611   64608      25   64617   64614      24   64620   64614      24
   64620   64617      25   64626   64623      24   64629   64623      24   64629
   64626      25   64635   64632      24   64638   64632      24   64638   64635
      25   64644   64641      24   64647   64641      24   64647   64644      25
   64653   64650      24   64656   64650      24   64656   64653      25   64662
   64659      24   64665   64659      24   64665   64662      25   64671   64668
      24   64674   64668      24   64674   64671      25   64680   64677      24
   64683   64677      24   64683   64680      25   64689   64686      24   64692
   64686      24   64692   64689      25   64698   64695      24   64701   64695
      24   64701   64698      25   64707   64704      24   64710   64704      24
   64710   64707      25   64716   64713      24   64719   64713      24   64719
   64716      25   64725   64722      24   64728   64722      24   64728   64725
      25   64734   64731      24   64737   64731      24   64737   64734      25
   64743   64740      24   64746   64740      24   64746   64743      25   64752
   64749      24   64755   64749      24   64755   64752      25   64761   64758
      24   64764   64758      24   64764   64761      25   64770   64767      24
   64773   64767      24   64773   64770      25   64779   64776      24   64782
   64776      24   64782   64779      25   64788   64785      24   64791   64785
      24   64791   64788      25   64797   64794      24   64800   64794      24
   64800   64797      25   64806   64803      24   64809   64803      24   64809
   64806      25   64815   64812      24   64818   64812      24   64818   64815
      25   64824   64821      24   64827   64821      24   64827   64824      25
   64833   64830      24   64836   64830      24   64836   64833      25   64842
   64839      24   64845   64839      24   64845   64842      25   64851   64848
      24   64854   64848      24   64854   64851      25   64860   64857      24
   64863   64857      24   64863   64860      25   64869   64866      24   64872
   64866      24   64872   64869      25   64878   64875      24   64881   64875
      24   64881   64878      25   64887   64884      24   64890   64884      24
   64890   64887      25   64896   64893      24   64899   64893      24   64899
   64896      25   64905   64902      24   64908   64902      24   64908   64905
      25   64914   64911      24   64917   64911      24   64917   64914      25
   64923   64920      24   64926   64920      24   64926   64923      25   64932
   64929      24   64935   64929      24   64935   64932      25   64941   64938
      24   64944   64938      24   64944   64941      25   64950   64947      24
   64953   64947      24   64953   64950      25   64959   64956      24   64962
   64956      24   64962   64959      25   64968   64965      24   64971   64965
      24   64971   64968      25   64977   64974      24   64980   64974      24
   64980   64977      25   64986   64983      24   64989   64983      24   64989
   64986      25   64995   64992      24   64998   64992      24   64998   64995
      25   65004   65001      24   65007   65001      24   65007   65004      25
   65013   65010      24   65016   65010      24   65016   65013      25   65022
   65019      24   65025   65019      24   65025   65022      25   65031   65028
      24   65034   65028      24   65034   65031      25   65040   65037      24
   65043   65037      24   65043   65040      25   65049   65046      24   65052
   65046      24   65052   65049      25   65058   65055      24   65061   65055
      24   65061   65058      25   65067   65064      24   65070   65064      24
   65070   65067      25   65076   65073      24   65079   65073      24   65079
   65076      25   65085   65082      24   65088   65082      24   65088   65085
      25   65094   65091      24   65097   65091      24   65097   65094      25
   65103   65100      24   65106   65100      24   65106   65103      25   65112
   65109      24   65115   65109      24   65115   65112      25   65121   65118
      24   65124   65118      24   65124   65121      25   65130   65127      24
   65133   65127      24   65133   65130      25   65139   65136      24   65142
   65136      24   65142   65139      25   65148   65145      24   65151   65145
      24   65151   65148      25   65157   65154      24   65160   65154      24
   65160   65157      25   65166   65163      24   65169   65163      24   65169
   65166      25   65175   65172      24   65178   65172      24   65178   65175
      25   65184   65181      24   65187   65181      24   65187   65184      25
   65193   65190      24   65196   65190      24   65196   65193      25   65202
   65199      24   65205   65199      24   65205   65202      25   65211   65208
      24   65214   65208      24   65214   65211      25   65220   65217      24
   65223   65217      24   65223   65220      25   65229   65226      24   65232
   65226      24   65232   65229      25   65238   65235      24   65241   65235
      24   65241   65238      25   65247   65244      24   65250   65244      24
   65250   65247      25   65256   65253      24   65259   65253      24   65259
   65256      25   65265   65262      24   65268   65262      24   65268   65265
      25   65274   65271      24   65277   65271      24   65277   65274      25
   65283   65280      24   65286   65280      24   65286   65283      25   65292
   65289      24   65295   65289      24   65295   65292      25   65301   65298
      24   65304   65298      24   65304   65301      25   65310   65307      24
   65313   65307      24   65313   65310      25   65319   65316      24   65322
   65316      24   65322   65319      25   65328   65325      24   65331   65325
      24   65331   65328      25   65337   65334      24   65340   65334      24
   65340   65337      25   65346   65343      24   65349   65343      24   65349
   65346      25   65355   65352      24   65358   65352      24   65358   65355
      25   65364   65361      24   65367   65361      24   65367   65364      25
   65373   65370      24   65376   65370      24   65376   65373      25   65382
   65379      24   65385   65379      24   65385   65382      25   65391   65388
      24   65394   65388      24   65394   65391      25   65400   65397      24
   65403   65397      24   65403   65400      25   65409   65406      24   65412
   65406      24   65412   65409      25   65418   65415      24   65421   65415
      24   65421   65418      25   65427   65424      24   65430   65424      24
   65430   65427      25   65436   65433      24   65439   65433      24   65439
   65436      25   65445   65442      24   65448   65442      24   65448   65445
      25   65454   65451      24   65457   65451      24   65457   65454      25
   65463   65460      24   65466   65460      24   65466   65463      25   65472
   65469      24   65475   65469      24   65475   65472      25   65481   65478
      24   65484   65478      24   65484   65481      25   65490   65487      24
   65493   65487      24   65493   65490      25   65499   65496      24   65502
   65496      24   65502   65499      25   65508   65505      24   65511   65505
      24   65511   65508      25   65517   65514      24   65520   65514      24
   65520   65517      25   65526   65523      24   65529   65523      24   65529
   65526      25   65535   65532      24   65538   65532      24   65538   65535
      25   65544   65541      24   65547   65541      24   65547   65544      25
   65553   65550      24   65556   65550      24   65556   65553      25   65562
   65559      24   65565   65559      24   65565   65562      25   65571   65568
      24   65574   65568      24   65574   65571      25   65580   65577      24
   65583   65577      24   65583   65580      25   65589   65586      24   65592
   65586      24   65592   65589      25   65598   65595      24   65601   65595
      24   65601   65598      25   65607   65604      24   65610   65604      24
   65610   65607      25   65616   65613      24   65619   65613      24   65619
   65616      25   65625   65622      24   65628   65622      24   65628   65625
      25   65634   65631      24   65637   65631      24   65637   65634      25
   65643   65640      24   65646   65640      24   65646   65643      25   65652
   65649      24   65655   65649      24   65655   65652      25   65661   65658
      24   65664   65658      24   65664   65661      25   65670   65667      24
   65673   65667      24   65673   65670      25   65679   65676      24   65682
   65676      24   65682   65679      25   65688   65685      24   65691   65685
      24   65691   65688      25   65697   65694      24   65700   65694      24
   65700   65697      25   65706   65703      24   65709   65703      24   65709
   65706      25   65715   65712      24   65718   65712      24   65718   65715
      25   65724   65721      24   65727   65721      24   65727   65724      25
   65733   65730      24   65736   65730      24   65736   65733      25   65742
   65739      24   65745   65739      24   65745   65742      25   65751   65748
      24   65754   65748      24   65754   65751      25   65760   65757      24
   65763   65757      24   65763   65760      25   65769   65766      24   65772
   65766      24   65772   65769      25   65778   65775      24   65781   65775
      24   65781   65778      25   65787   65784      24   65790   65784      24
   65790   65787      25   65796   65793      24   65799   65793      24   65799
   65796      25   65805   65802      24   65808   65802      24   65808   65805
      25   65814   65811      24   65817   65811      24   65817   65814      25
   65823   65820      24   65826   65820      24   65826   65823      25   65832
   65829      24   65835   65829      24   65835   65832      25   65841   65838
      24   65844   65838      24   65844   65841      25   65850   65847      24
   65853   65847      24   65853   65850      25   65859   65856      24   65862
   65856      24   65862   65859      25   65868   65865      24   65871   65865
      24   65871   65868      25   65877   65874      24   65880   65874      24
   65880   65877      25   65886   65883      24   65889   65883      24   65889
   65886      25   65895   65892      24   65898   65892      24   65898   65895
      25   65904   65901      24   65907   65901      24   65907   65904      25
   65913   65910      24   65916   65910      24   65916   65913      25   65922
   65919      24   65925   65919      24   65925   65922      25   65931   65928
      24   65934   65928      24   65934   65931      25   65940   65937      24
   65943   65937      24   65943   65940      25   65949   65946      24   65952
   65946      24   65952   65949      25   65958   65955      24   65961   65955
      24   65961   65958      25   65967   65964      24   65970   65964      24
   65970   65967      25   65976   65973      24   65979   65973      24   65979
   65976      25   65985   65982      24   65988   65982      24   65988   65985
      25   65994   65991      24   65997   65991      24   65997   65994      25
   66003   66000      24   66006   66000      24   66006   66003      25   66012
   66009      24   66015   66009      24   66015   66012      25   66021   66018
      24   66024   66018      24   66024   66021      25   66030   66027      24
   66033   66027      24   66033   66030      25   66039   66036      24   66042
   66036      24   66042   66039      25   66048   66045      24   66051   66045
      24   66051   66048      25   66057   66054      24   66060   66054      24
   66060   66057      25   66066   66063      24   66069   66063      24   66069
   66066      25   66075   66072      24   66078   66072      24   66078   66075
      25   66084   66081      24   66087   66081      24   66087   66084      25
   66093   66090      24   66096   66090      24   66096   66093      25   66102
   66099      24   66105   66099      24   66105   66102      25   66111   66108
      24   66114   66108      24   66114   66111      25   66120   66117      24
   66123   66117      24   66123   66120      25   66129   66126      24   66132
   66126      24   66132   66129      25   66138   66135      24   66141   66135
      24   66141   66138      25   66147   66144      24   66150   66144      24
   66150   66147      25   66156   66153      24   66159   66153      24   66159
   66156      25   66165   66162      24   66168   66162      24   66168   66165
      25   66174   66171      24   66177   66171      24   66177   66174      25
   66183   66180      24   66186   66180      24   66186   66183      25   66192
   66189      24   66195   66189      24   66195   66192      25   66201   66198
      24   66204   66198      24   66204   66201      25   66210   66207      24
   66213   66207      24   66213   66210      25   66219   66216      24   66222
   66216      24   66222   66219      25   66228   66225      24   66231   66225
      24   66231   66228      25   66237   66234      24   66240   66234      24
   66240   66237      25   66246   66243      24   66249   66243      24   66249
   66246      25   66255   66252      24   66258   66252      24   66258   66255
      25   66264   66261      24   66267   66261      24   66267   66264      25
   66273   66270      24   66276   66270      24   66276   66273      25   66282
   66279      24   66285   66279      24   66285   66282      25   66291   66288
      24   66294   66288      24   66294   66291      25   66300   66297      24
   66303   66297      24   66303   66300      25   66309   66306      24   66312
   66306      24   66312   66309      25   66318   66315      24   66321   66315
      24   66321   66318      25   66327   66324      24   66330   66324      24
   66330   66327      25   66336   66333      24   66339   66333      24   66339
   66336      25   66345   66342      24   66348   66342      24   66348   66345
      25   66354   66351      24   66357   66351      24   66357   66354      25
   66363   66360      24   66366   66360      24   66366   66363      25   66372
   66369      24   66375   66369      24   66375   66372      25   66381   66378
      24   66384   66378      24   66384   66381      25   66390   66387      24
   66393   66387      24   66393   66390      25   66399   66396      24   66402
   66396      24   66402   66399      25   66408   66405      24   66411   66405
      24   66411   66408      25   66417   66414      24   66420   66414      24
   66420   66417      25   66426   66423      24   66429   66423      24   66429
   66426      25   66435   66432      24   66438   66432      24   66438   66435
      25   66444   66441      24   66447   66441      24   66447   66444      25
   66453   66450      24   66456   66450      24   66456   66453      25   66462
   66459      24   66465   66459      24   66465   66462      25   66471   66468
      24   66474   66468      24   66474   66471      25   66480   66477      24
   66483   66477      24   66483   66480      25   66489   66486      24   66492
   66486      24   66492   66489      25   66498   66495      24   66501   66495
      24   66501   66498      25   66507   66504      24   66510   66504      24
   66510   66507      25   66516   66513      24   66519   66513      24   66519
   66516      25   66525   66522      24   66528   66522      24   66528   66525
      25   66534   66531      24   66537   66531      24   66537   66534      25
   66543   66540      24   66546   66540      24   66546   66543      25   66552
   66549      24   66555   66549      24   66555   66552      25   66561   66558
      24   66564   66558      24   66564   66561      25   66570   66567      24
   66573   66567      24   66573   66570      25   66579   66576      24   66582
   66576      24   66582   66579      25   66588   66585      24   66591   66585
      24   66591   66588      25   66597   66594      24   66600   66594      24
   66600   66597      25   66606   66603      24   66609   66603      24   66609
   66606      25   66615   66612      24   66618   66612      24   66618   66615
      25   66624   66621      24   66627   66621      24   66627   66624      25
   66633   66630      24   66636   66630      24   66636   66633      25   66642
   66639      24   66645   66639      24   66645   66642      25   66651   66648
      24   66654   66648      24   66654   66651      25   66660   66657      24
   66663   66657      24   66663   66660      25   66669   66666      24   66672
   66666      24   66672   66669      25   66678   66675      24   66681   66675
      24   66681   66678      25   66687   66684      24   66690   66684      24
   66690   66687      25   66696   66693      24   66699   66693      24   66699
   66696      25   66705   66702      24   66708   66702      24   66708   66705
      25   66714   66711      24   66717   66711      24   66717   66714      25
   66723   66720      24   66726   66720      24   66726   66723      25   66732
   66729      24   66735   66729      24   66735   66732      25   66741   66738
      24   66744   66738      24   66744   66741      25   66750   66747      24
   66753   66747      24   66753   66750      25   66759   66756      24   66762
   66756      24   66762   66759      25   66768   66765      24   66771   66765
      24   66771   66768      25   66777   66774      24   66780   66774      24
   66780   66777      25   66786   66783      24   66789   66783      24   66789
   66786      25   66795   66792      24   66798   66792      24   66798   66795
      25   66804   66801      24   66807   66801      24   66807   66804      25
   66813   66810      24   66816   66810      24   66816   66813      25   66822
   66819      24   66825   66819      24   66825   66822      25   66831   66828
      24   66834   66828      24   66834   66831      25   66840   66837      24
   66843   66837      24   66843   66840      25   66849   66846      24   66852
   66846      24   66852   66849      25   66858   66855      24   66861   66855
      24   66861   66858      25   66867   66864      24   66870   66864      24
   66870   66867      25   66876   66873      24   66879   66873      24   66879
   66876      25   66885   66882      24   66888   66882      24   66888   66885
      25   66894   66891      24   66897   66891      24   66897   66894      25
   66903   66900      24   66906   66900      24   66906   66903      25   66912
   66909      24   66915   66909      24   66915   66912      25   66921   66918
      24   66924   66918      24   66924   66921      25   66930   66927      24
   66933   66927      24   66933   66930      25   66939   66936      24   66942
   66936      24   66942   66939      25   66948   66945      24   66951   66945
      24   66951   66948      25   66957   66954      24   66960   66954      24
   66960   66957      25   66966   66963      24   66969   66963      24   66969
   66966      25   66975   66972      24   66978   66972      24   66978   66975
      25   66984   66981      24   66987   66981      24   66987   66984      25
   66993   66990      24   66996   66990      24   66996   66993      25   67002
   66999      24   67005   66999      24   67005   67002      25   67011   67008
      24   67014   67008      24   67014   67011      25   67020   67017      24
   67023   67017      24   67023   67020      25   67029   67026      24   67032
   67026      24   67032   67029      25   67038   67035      24   67041   67035
      24   67041   67038      25   67047   67044      24   67050   67044      24
   67050   67047      25   67056   67053      24   67059   67053      24   67059
   67056      25   67065   67062      24   67068   67062      24   67068   67065
      25   67074   67071      24   67077   67071      24   67077   67074      25
   67083   67080      24   67086   67080      24   67086   67083      25   67092
   67089      24   67095   67089      24   67095   67092      25   67101   67098
      24   67104   67098      24   67104   67101      25   67110   67107      24
   67113   67107      24   67113   67110      25   67119   67116      24   67122
   67116      24   67122   67119      25   67128   67125      24   67131   67125
      24   67131   67128      25   67137   67134      24   67140   67134      24
   67140   67137      25   67146   67143      24   67149   67143      24   67149
   67146      25   67155   67152      24   67158   67152      24   67158   67155
      25   67164   67161      24   67167   67161      24   67167   67164      25
   67173   67170      24   67176   67170      24   67176   67173      25   67182
   67179      24   67185   67179      24   67185   67182      25   67191   67188
      24   67194   67188      24   67194   67191      25   67200   67197      24
   67203   67197      24   67203   67200      25   67209   67206      24   67212
   67206      24   67212   67209      25   67218   67215      24   67221   67215
      24   67221   67218      25   67227   67224      24   67230   67224      24
   67230   67227      25   67236   67233      24   67239   67233      24   67239
   67236      25   67245   67242      24   67248   67242      24   67248   67245
      25   67254   67251      24   67257   67251      24   67257   67254      25
   67263   67260      24   67266   67260      24   67266   67263      25   67272
   67269      24   67275   67269      24   67275   67272      25   67281   67278
      24   67284   67278      24   67284   67281      25   67290   67287      24
   67293   67287      24   67293   67290      25   67299   67296      24   67302
   67296      24   67302   67299      25   67308   67305      24   67311   67305
      24   67311   67308      25   67317   67314      24   67320   67314      24
   67320   67317      25   67326   67323      24   67329   67323      24   67329
   67326      25   67335   67332      24   67338   67332      24   67338   67335
      25   67344   67341      24   67347   67341      24   67347   67344      25
   67353   67350      24   67356   67350      24   67356   67353      25   67362
   67359      24   67365   67359      24   67365   67362      25   67371   67368
      24   67374   67368      24   67374   67371      25   67380   67377      24
   67383   67377      24   67383   67380      25   67389   67386      24   67392
   67386      24   67392   67389      25   67398   67395      24   67401   67395
      24   67401   67398      25   67407   67404      24   67410   67404      24
   67410   67407      25   67416   67413      24   67419   67413      24   67419
   67416      25   67425   67422      24   67428   67422      24   67428   67425
      25   67434   67431      24   67437   67431      24   67437   67434      25
   67443   67440      24   67446   67440      24   67446   67443      25   67452
   67449      24   67455   67449      24   67455   67452      25   67461   67458
      24   67464   67458      24   67464   67461      25   67470   67467      24
   67473   67467      24   67473   67470      25   67479   67476      24   67482
   67476      24   67482   67479      25   67488   67485      24   67491   67485
      24   67491   67488      25   67497   67494      24   67500   67494      24
   67500   67497      25   67506   67503      24   67509   67503      24   67509
   67506      25   67515   67512      24   67518   67512      24   67518   67515
      25   67524   67521      24   67527   67521      24   67527   67524      25
   67533   67530      24   67536   67530      24   67536   67533      25   67542
   67539      24   67545   67539      24   67545   67542      25   67551   67548
      24   67554   67548      24   67554   67551      25   67560   67557      24
   67563   67557      24   67563   67560      25   67569   67566      24   67572
   67566      24   67572   67569      25   67578   67575      24   67581   67575
      24   67581   67578      25   67587   67584      24   67590   67584      24
   67590   67587      25   67596   67593      24   67599   67593      24   67599
   67596      25   67605   67602      24   67608   67602      24   67608   67605
      25   67614   67611      24   67617   67611      24   67617   67614      25
   67623   67620      24   67626   67620      24   67626   67623      25   67632
   67629      24   67635   67629      24   67635   67632      25   67641   67638
      24   67644   67638      24   67644   67641      25   67650   67647      24
   67653   67647      24   67653   67650      25   67659   67656      24   67662
   67656      24   67662   67659      25   67668   67665      24   67671   67665
      24   67671   67668      25   67677   67674      24   67680   67674      24
   67680   67677      25   67686   67683      24   67689   67683      24   67689
   67686      25   67695   67692      24   67698   67692      24   67698   67695
      25   67704   67701      24   67707   67701      24   67707   67704      25
   67713   67710      24   67716   67710      24   67716   67713      25   67722
   67719      24   67725   67719      24   67725   67722      25   67731   67728
      24   67734   67728      24   67734   67731      25   67740   67737      24
   67743   67737      24   67743   67740      25   67749   67746      24   67752
   67746      24   67752   67749      25   67758   67755      24   67761   67755
      24   67761   67758      25   67767   67764      24   67770   67764      24
   67770   67767      25   67776   67773      24   67779   67773      24   67779
   67776      25   67785   67782      24   67788   67782      24   67788   67785
      25   67794   67791      24   67797   67791      24   67797   67794      25
   67803   67800      24   67806   67800      24   67806   67803      25   67812
   67809      24   67815   67809      24   67815   67812      25   67821   67818
      24   67824   67818      24   67824   67821      25   67830   67827      24
   67833   67827      24   67833   67830      25   67839   67836      24   67842
   67836      24   67842   67839      25   67848   67845      24   67851   67845
      24   67851   67848      25   67857   67854      24   67860   67854      24
   67860   67857      25   67866   67863      24   67869   67863      24   67869
   67866      25   67875   67872      24   67878   67872      24   67878   67875
      25   67884   67881      24   67887   67881      24   67887   67884      25
   67893   67890      24   67896   67890      24   67896   67893      25   67902
   67899      24   67905   67899      24   67905   67902      25   67911   67908
      24   67914   67908      24   67914   67911      25   67920   67917      24
   67923   67917      24   67923   67920      25   67929   67926      24   67932
   67926      24   67932   67929      25   67938   67935      24   67941   67935
      24   67941   67938      25   67947   67944      24   67950   67944      24
   67950   67947      25   67956   67953      24   67959   67953      24   67959
   67956      25   67965   67962      24   67968   67962      24   67968   67965
      25   67974   67971      24   67977   67971      24   67977   67974      25
   67983   67980      24   67986   67980      24   67986   67983      25   67992
   67989      24   67995   67989      24   67995   67992      25   68001   67998
      24   68004   67998      24   68004   68001      25   68010   68007      24
   68013   68007      24   68013   68010      25   68019   68016      24   68022
   68016      24   68022   68019      25   68028   68025      24   68031   68025
      24   68031   68028      25   68037   68034      24   68040   68034      24
   68040   68037      25   68046   68043      24   68049   68043      24   68049
   68046      25   68055   68052      24   68058   68052      24   68058   68055
      25   68064   68061      24   68067   68061      24   68067   68064      25
   68073   68070      24   68076   68070      24   68076   68073      25   68082
   68079      24   68085   68079      24   68085   68082      25   68091   68088
      24   68094   68088      24   68094   68091      25   68100   68097      24
   68103   68097      24   68103   68100      25   68109   68106      24   68112
   68106      24   68112   68109      25   68118   68115      24   68121   68115
      24   68121   68118      25   68127   68124      24   68130   68124      24
   68130   68127      25   68136   68133      24   68139   68133      24   68139
   68136      25   68145   68142      24   68148   68142      24   68148   68145
      25   68154   68151      24   68157   68151      24   68157   68154      25
   68163   68160      24   68166   68160      24   68166   68163      25   68172
   68169      24   68175   68169      24   68175   68172      25   68181   68178
      24   68184   68178      24   68184   68181      25   68190   68187      24
   68193   68187      24   68193   68190      25   68199   68196      24   68202
   68196      24   68202   68199      25   68208   68205      24   68211   68205
      24   68211   68208      25   68217   68214      24   68220   68214      24
   68220   68217      25   68226   68223      24   68229   68223      24   68229
   68226      25   68235   68232      24   68238   68232      24   68238   68235
      25   68244   68241      24   68247   68241      24   68247   68244      25
   68253   68250      24   68256   68250      24   68256   68253      25   68262
   68259      24   68265   68259      24   68265   68262      25   68271   68268
      24   68274   68268      24   68274   68271      25   68280   68277      24
   68283   68277      24   68283   68280      25   68289   68286      24   68292
   68286      24   68292   68289      25   68298   68295      24   68301   68295
      24   68301   68298      25   68307   68304      24   68310   68304      24
   68310   68307      25   68316   68313      24   68319   68313      24   68319
   68316      25   68325   68322      24   68328   68322      24   68328   68325
      25   68334   68331      24   68337   68331      24   68337   68334      25
   68343   68340      24   68346   68340      24   68346   68343      25   68352
   68349      24   68355   68349      24   68355   68352      25   68361   68358
      24   68364   68358      24   68364   68361      25   68370   68367      24
   68373   68367      24   68373   68370      25   68379   68376      24   68382
   68376      24   68382   68379      25   68388   68385      24   68391   68385
      24   68391   68388      25   68397   68394      24   68400   68394      24
   68400   68397      25   68406   68403      24   68409   68403      24   68409
   68406      25   68415   68412      24   68418   68412      24   68418   68415
      25   68424   68421      24   68427   68421      24   68427   68424      25
   68433   68430      24   68436   68430      24   68436   68433      25   68442
   68439      24   68445   68439      24   68445   68442      25   68451   68448
      24   68454   68448      24   68454   68451      25   68460   68457      24
   68463   68457      24   68463   68460      25   68469   68466      24   68472
   68466      24   68472   68469      25   68478   68475      24   68481   68475
      24   68481   68478      25   68487   68484      24   68490   68484      24
   68490   68487      25   68496   68493      24   68499   68493      24   68499
   68496      25   68505   68502      24   68508   68502      24   68508   68505
      25   68514   68511      24   68517   68511      24   68517   68514      25
   68523   68520      24   68526   68520      24   68526   68523      25   68532
   68529      24   68535   68529      24   68535   68532      25   68541   68538
      24   68544   68538      24   68544   68541      25   68550   68547      24
   68553   68547      24   68553   68550      25   68559   68556      24   68562
   68556      24   68562   68559      25   68568   68565      24   68571   68565
      24   68571   68568      25   68577   68574      24   68580   68574      24
   68580   68577      25   68586   68583      24   68589   68583      24   68589
   68586      25   68595   68592      24   68598   68592      24   68598   68595
      25   68604   68601      24   68607   68601      24   68607   68604      25
   68613   68610      24   68616   68610      24   68616   68613      25   68622
   68619      24   68625   68619      24   68625   68622      25   68631   68628
      24   68634   68628      24   68634   68631      25   68640   68637      24
   68643   68637      24   68643   68640      25   68649   68646      24   68652
   68646      24   68652   68649      25   68658   68655      24   68661   68655
      24   68661   68658      25   68667   68664      24   68670   68664      24
   68670   68667      25   68676   68673      24   68679   68673      24   68679
   68676      25   68685   68682      24   68688   68682      24   68688   68685
      25   68694   68691      24   68697   68691      24   68697   68694      25
   68703   68700      24   68706   68700      24   68706   68703      25   68712
   68709      24   68715   68709      24   68715   68712      25   68721   68718
      24   68724   68718      24   68724   68721      25   68730   68727      24
   68733   68727      24   68733   68730      25   68739   68736      24   68742
   68736      24   68742   68739      25   68748   68745      24   68751   68745
      24   68751   68748      25   68757   68754      24   68760   68754      24
   68760   68757      25   68766   68763      24   68769   68763      24   68769
   68766      25   68775   68772      24   68778   68772      24   68778   68775
      25   68784   68781      24   68787   68781      24   68787   68784      25
   68793   68790      24   68796   68790      24   68796   68793      25   68802
   68799      24   68805   68799      24   68805   68802      25   68811   68808
      24   68814   68808      24   68814   68811      25   68820   68817      24
   68823   68817      24   68823   68820      25   68829   68826      24   68832
   68826      24   68832   68829      25   68838   68835      24   68841   68835
      24   68841   68838      25   68847   68844      24   68850   68844      24
   68850   68847      25   68856   68853      24   68859   68853      24   68859
   68856      25   68865   68862      24   68868   68862      24   68868   68865
      25   68874   68871      24   68877   68871      24   68877   68874      25
   68883   68880      24   68886   68880      24   68886   68883      25   68892
   68889      24   68895   68889      24   68895   68892      25   68901   68898
      24   68904   68898      24   68904   68901      25   68910   68907      24
   68913   68907      24   68913   68910      25   68919   68916      24   68922
   68916      24   68922   68919      25   68928   68925      24   68931   68925
      24   68931   68928      25   68937   68934      24   68940   68934      24
   68940   68937      25   68946   68943      24   68949   68943      24   68949
   68946      25   68955   68952      24   68958   68952      24   68958   68955
      25   68964   68961      24   68967   68961      24   68967   68964      25
   68973   68970      24   68976   68970      24   68976   68973      25   68982
   68979      24   68985   68979      24   68985   68982      25   68991   68988
      24   68994   68988      24   68994   68991      25   69000   68997      24
   69003   68997      24   69003   69000      25   69009   69006      24   69012
   69006      24   69012   69009      25   69018   69015      24   69021   69015
      24   69021   69018      25   69027   69024      24   69030   69024      24
   69030   69027      25   69036   69033      24   69039   69033      24   69039
   69036      25   69045   69042      24   69048   69042      24   69048   69045
      25   69054   69051      24   69057   69051      24   69057   69054      25
   69063   69060      24   69066   69060      24   69066   69063      25   69072
   69069      24   69075   69069      24   69075   69072      25   69081   69078
      24   69084   69078      24   69084   69081      25   69090   69087      24
   69093   69087      24   69093   69090      25   69099   69096      24   69102
   69096      24   69102   69099      25   69108   69105      24   69111   69105
      24   69111   69108      25   69117   69114      24   69120   69114      24
   69120   69117      25   69126   69123      24   69129   69123      24   69129
   69126      25   69135   69132      24   69138   69132      24   69138   69135
      25   69144   69141      24   69147   69141      24   69147   69144      25
   69153   69150      24   69156   69150      24   69156   69153      25   69162
   69159      24   69165   69159      24   69165   69162      25   69171   69168
      24   69174   69168      24   69174   69171      25   69180   69177      24
   69183   69177      24   69183   69180      25   69189   69186      24   69192
   69186      24   69192   69189      25   69198   69195      24   69201   69195
      24   69201   69198      25   69207   69204      24   69210   69204      24
   69210   69207      25   69216   69213      24   69219   69213      24   69219
   69216      25   69225   69222      24   69228   69222      24   69228   69225
      25   69234   69231      24   69237   69231      24   69237   69234      25
   69243   69240      24   69246   69240      24   69246   69243      25   69252
   69249      24   69255   69249      24   69255   69252      25   69261   69258
      24   69264   69258      24   69264   69261      25   69270   69267      24
   69273   69267      24   69273   69270      25   69279   69276      24   69282
   69276      24   69282   69279      25   69288   69285      24   69291   69285
      24   69291   69288      25   69297   69294      24   69300   69294      24
   69300   69297      25   69306   69303      24   69309   69303      24   69309
   69306      25   69315   69312      24   69318   69312      24   69318   69315
      25   69324   69321      24   69327   69321      24   69327   69324      25
   69333   69330      24   69336   69330      24   69336   69333      25   69342
   69339      24   69345   69339      24   69345   69342      25   69351   69348
      24   69354   69348      24   69354   69351      25   69360   69357      24
   69363   69357      24   69363   69360      25   69369   69366      24   69372
   69366      24   69372   69369      25   69378   69375      24   69381   69375
      24   69381   69378      25   69387   69384      24   69390   69384      24
   69390   69387      25   69396   69393      24   69399   69393      24   69399
   69396      25   69405   69402      24   69408   69402      24   69408   69405
      25   69414   69411      24   69417   69411      24   69417   69414      25
   69423   69420      24   69426   69420      24   69426   69423      25   69432
   69429      24   69435   69429      24   69435   69432      25   69441   69438
      24   69444   69438      24   69444   69441      25   69450   69447      24
   69453   69447      24   69453   69450      25   69459   69456      24   69462
   69456      24   69462   69459      25   69468   69465      24   69471   69465
      24   69471   69468      25   69477   69474      24   69480   69474      24
   69480   69477      25   69486   69483      24   69489   69483      24   69489
   69486      25   69495   69492      24   69498   69492      24   69498   69495
      25   69504   69501      24   69507   69501      24   69507   69504      25
   69513   69510      24   69516   69510      24   69516   69513      25   69522
   69519      24   69525   69519      24   69525   69522      25   69531   69528
      24   69534   69528      24   69534   69531      25   69540   69537      24
   69543   69537      24   69543   69540      25   69549   69546      24   69552
   69546      24   69552   69549      25   69558   69555      24   69561   69555
      24   69561   69558      25   69567   69564      24   69570   69564      24
   69570   69567      25   69576   69573      24   69579   69573      24   69579
   69576      25   69585   69582      24   69588   69582      24   69588   69585
      25   69594   69591      24   69597   69591      24   69597   69594      25
   69603   69600      24   69606   69600      24   69606   69603      25   69612
   69609      24   69615   69609      24   69615   69612      25   69621   69618
      24   69624   69618      24   69624   69621      25   69630   69627      24
   69633   69627      24   69633   69630      25   69639   69636      24   69642
   69636      24   69642   69639      25   69648   69645      24   69651   69645
      24   69651   69648      25   69657   69654      24   69660   69654      24
   69660   69657      25   69666   69663      24   69669   69663      24   69669
   69666      25   69675   69672      24   69678   69672      24   69678   69675
      25   69684   69681      24   69687   69681      24   69687   69684      25
   69693   69690      24   69696   69690      24   69696   69693      25   69702
   69699      24   69705   69699      24   69705   69702      25   69711   69708
      24   69714   69708      24   69714   69711      25   69720   69717      24
   69723   69717      24   69723   69720      25   69729   69726      24   69732
   69726      24   69732   69729      25   69738   69735      24   69741   69735
      24   69741   69738      25   69747   69744      24   69750   69744      24
   69750   69747      25   69756   69753      24   69759   69753      24   69759
   69756      25   69765   69762      24   69768   69762      24   69768   69765
      25   69774   69771      24   69777   69771      24   69777   69774      25
   69783   69780      24   69786   69780      24   69786   69783      25   69792
   69789      24   69795   69789      24   69795   69792      25   69801   69798
      24   69804   69798      24   69804   69801      25   69810   69807      24
   69813   69807      24   69813   69810      25   69819   69816      24   69822
   69816      24   69822   69819      25   69828   69825      24   69831   69825
      24   69831   69828      25   69837   69834      24   69840   69834      24
   69840   69837      25   69846   69843      24   69849   69843      24   69849
   69846      25   69855   69852      24   69858   69852      24   69858   69855
      25   69864   69861      24   69867   69861      24   69867   69864      25
   69873   69870      24   69876   69870      24   69876   69873      25   69882
   69879      24   69885   69879      24   69885   69882      25   69891   69888
      24   69894   69888      24   69894   69891      25   69900   69897      24
   69903   69897      24   69903   69900      25   69909   69906      24   69912
   69906      24   69912   69909      25   69918   69915      24   69921   69915
      24   69921   69918      25   69927   69924      24   69930   69924      24
   69930   69927      25   69936   69933      24   69939   69933      24   69939
   69936      25   69945   69942      24   69948   69942      24   69948   69945
      25   69954   69951      24   69957   69951      24   69957   69954      25
   69963   69960      24   69966   69960      24   69966   69963      25   69972
   69969      24   69975   69969      24   69975   69972      25   69981   69978
      24   69984   69978      24   69984   69981      25   69990   69987      24
   69993   69987      24   69993   69990      25   69999   69996      24   70002
   69996      24   70002   69999      25   70008   70005      24   70011   70005
      24   70011   70008      25   70017   70014      24   70020   70014      24
   70020   70017      25   70026   70023      24   70029   70023      24   70029
   70026      25   70035   70032      24   70038   70032      24   70038   70035
      25   70044   70041      24   70047   70041      24   70047   70044      25
   70053   70050      24   70056   70050      24   70056   70053      25   70062
   70059      24   70065   70059      24   70065   70062      25   70071   70068
      24   70074   70068      24   70074   70071      25   70080   70077      24
   70083   70077      24   70083   70080      25   70089   70086      24   70092
   70086      24   70092   70089      25   70098   70095      24   70101   70095
      24   70101   70098      25   70107   70104      24   70110   70104      24
   70110   70107      25   70116   70113      24   70119   70113      24   70119
   70116      25   70125   70122      24   70128   70122      24   70128   70125
      25   70134   70131      24   70137   70131      24   70137   70134      25
   70143   70140      24   70146   70140      24   70146   70143      25   70152
   70149      24   70155   70149      24   70155   70152      25   70161   70158
      24   70164   70158      24   70164   70161      25   70170   70167      24
   70173   70167      24   70173   70170      25   70179   70176      24   70182
   70176      24   70182   70179      25   70188   70185      24   70191   70185
      24   70191   70188      25   70197   70194      24   70200   70194      24
   70200   70197      25   70206   70203      24   70209   70203      24   70209
   70206      25   70215   70212      24   70218   70212      24   70218   70215
      25   70224   70221      24   70227   70221      24   70227   70224      25
   70233   70230      24   70236   70230      24   70236   70233      25   70242
   70239      24   70245   70239      24   70245   70242      25   70251   70248
      24   70254   70248      24   70254   70251      25   70260   70257      24
   70263   70257      24   70263   70260      25   70269   70266      24   70272
   70266      24   70272   70269      25   70278   70275      24   70281   70275
      24   70281   70278      25   70287   70284      24   70290   70284      24
   70290   70287      25   70296   70293      24   70299   70293      24   70299
   70296      25   70305   70302      24   70308   70302      24   70308   70305
      25   70314   70311      24   70317   70311      24   70317   70314      25
   70323   70320      24   70326   70320      24   70326   70323      25   70332
   70329      24   70335   70329      24   70335   70332      25   70341   70338
      24   70344   70338      24   70344   70341      25   70350   70347      24
   70353   70347      24   70353   70350      25   70359   70356      24   70362
   70356      24   70362   70359      25   70368   70365      24   70371   70365
      24   70371   70368      25   70377   70374      24   70380   70374      24
   70380   70377      25   70386   70383      24   70389   70383      24   70389
   70386      25   70395   70392      24   70398   70392      24   70398   70395
      25   70404   70401      24   70407   70401      24   70407   70404      25
   70413   70410      24   70416   70410      24   70416   70413      25   70422
   70419      24   70425   70419      24   70425   70422      25   70431   70428
      24   70434   70428      24   70434   70431      25   70440   70437      24
   70443   70437      24   70443   70440      25   70449   70446      24   70452
   70446      24   70452   70449      25   70458   70455      24   70461   70455
      24   70461   70458      25   70467   70464      24   70470   70464      24
   70470   70467      25   70476   70473      24   70479   70473      24   70479
   70476      25   70485   70482      24   70488   70482      24   70488   70485
      25   70494   70491      24   70497   70491      24   70497   70494      25
   70503   70500      24   70506   70500      24   70506   70503      25   70512
   70509      24   70515   70509      24   70515   70512      25   70521   70518
      24   70524   70518      24   70524   70521      25   70530   70527      24
   70533   70527      24   70533   70530      25   70539   70536      24   70542
   70536      24   70542   70539      25   70548   70545      24   70551   70545
      24   70551   70548      25   70557   70554      24   70560   70554      24
   70560   70557      25   70566   70563      24   70569   70563      24   70569
   70566      25   70575   70572      24   70578   70572      24   70578   70575
      25   70584   70581      24   70587   70581      24   70587   70584      25
   70593   70590      24   70596   70590      24   70596   70593      25   70602
   70599      24   70605   70599      24   70605   70602      25   70611   70608
      24   70614   70608      24   70614   70611      25   70620   70617      24
   70623   70617      24   70623   70620      25   70629   70626      24   70632
   70626      24   70632   70629      25   70638   70635      24   70641   70635
      24   70641   70638      25   70647   70644      24   70650   70644      24
   70650   70647      25   70656   70653      24   70659   70653      24   70659
   70656      25   70665   70662      24   70668   70662      24   70668   70665
      25   70674   70671      24   70677   70671      24   70677   70674      25
   70683   70680      24   70686   70680      24   70686   70683      25   70692
   70689      24   70695   70689      24   70695   70692      25   70701   70698
      24   70704   70698      24   70704   70701      25   70710   70707      24
   70713   70707      24   70713   70710      25   70719   70716      24   70722
   70716      24   70722   70719      25   70728   70725      24   70731   70725
      24   70731   70728      25   70737   70734      24   70740   70734      24
   70740   70737      25   70746   70743      24   70749   70743      24   70749
   70746      25   70755   70752      24   70758   70752      24   70758   70755
      25   70764   70761      24   70767   70761      24   70767   70764      25
   70773   70770      24   70776   70770      24   70776   70773      25   70782
   70779      24   70785   70779      24   70785   70782      25   70791   70788
      24   70794   70788      24   70794   70791      25   70800   70797      24
   70803   70797      24   70803   70800      25   70809   70806      24   70812
   70806      24   70812   70809      25   70818   70815      24   70821   70815
      24   70821   70818      25   70827   70824      24   70830   70824      24
   70830   70827      25   70836   70833      24   70839   70833      24   70839
   70836      25   70845   70842      24   70848   70842      24   70848   70845
      25   70854   70851      24   70857   70851      24   70857   70854      25
   70863   70860      24   70866   70860      24   70866   70863      25   70872
   70869      24   70875   70869      24   70875   70872      25   70881   70878
      24   70884   70878      24   70884   70881      25   70890   70887      24
   70893   70887      24   70893   70890      25   70899   70896      24   70902
   70896      24   70902   70899      25   70908   70905      24   70911   70905
      24   70911   70908      25   70917   70914      24   70920   70914      24
   70920   70917      25   70926   70923      24   70929   70923      24   70929
   70926      25   70935   70932      24   70938   70932      24   70938   70935
      25   70944   70941      24   70947   70941      24   70947   70944      25
   70953   70950      24   70956   70950      24   70956   70953      25   70962
   70959      24   70965   70959      24   70965   70962      25   70971   70968
      24   70974   70968      24   70974   70971      25   70980   70977      24
   70983   70977      24   70983   70980      25   70989   70986      24   70992
   70986      24   70992   70989      25   70998   70995      24   71001   70995
      24   71001   70998      25   71007   71004      24   71010   71004      24
   71010   71007      25   71016   71013      24   71019   71013      24   71019
   71016      25   71025   71022      24   71028   71022      24   71028   71025
      25   71034   71031      24   71037   71031      24   71037   71034      25
   71043   71040      24   71046   71040      24   71046   71043      25   71052
   71049      24   71055   71049      24   71055   71052      25   71061   71058
      24   71064   71058      24   71064   71061      25   71070   71067      24
   71073   71067      24   71073   71070      25   71079   71076      24   71082
   71076      24   71082   71079      25   71088   71085      24   71091   71085
      24   71091   71088      25   71097   71094      24   71100   71094      24
   71100   71097      25   71106   71103      24   71109   71103      24   71109
   71106      25   71115   71112      24   71118   71112      24   71118   71115
      25   71124   71121      24   71127   71121      24   71127   71124      25
   71133   71130      24   71136   71130      24   71136   71133      25   71142
   71139      24   71145   71139      24   71145   71142      25   71151   71148
      24   71154   71148      24   71154   71151      25   71160   71157      24
   71163   71157      24   71163   71160      25   71169   71166      24   71172
   71166      24   71172   71169      25   71178   71175      24   71181   71175
      24   71181   71178      25   71187   71184      24   71190   71184      24
   71190   71187      25   71196   71193      24   71199   71193      24   71199
   71196      25   71205   71202      24   71208   71202      24   71208   71205
      25   71214   71211      24   71217   71211      24   71217   71214      25
   71223   71220      24   71226   71220      24   71226   71223      25   71232
   71229      24   71235   71229      24   71235   71232      25   71241   71238
      24   71244   71238      24   71244   71241      25   71250   71247      24
   71253   71247      24   71253   71250      25   71259   71256      24   71262
   71256      24   71262   71259      25   71268   71265      24   71271   71265
      24   71271   71268      25   71277   71274      24   71280   71274      24
   71280   71277      25   71286   71283      24   71289   71283      24   71289
   71286      25   71295   71292      24   71298   71292      24   71298   71295
      25   71304   71301      24   71307   71301      24   71307   71304      25
   71313   71310      24   71316   71310      24   71316   71313      25   71322
   71319      24   71325   71319      24   71325   71322      25   71331   71328
      24   71334   71328      24   71334   71331      25   71340   71337      24
   71343   71337      24   71343   71340      25   71349   71346      24   71352
   71346      24   71352   71349      25   71358   71355      24   71361   71355
      24   71361   71358      25   71367   71364      24   71370   71364      24
   71370   71367      25   71376   71373      24   71379   71373      24   71379
   71376      25   71385   71382      24   71388   71382      24   71388   71385
      25   71394   71391      24   71397   71391      24   71397   71394      25
   71403   71400      24   71406   71400      24   71406   71403      25   71412
   71409      24   71415   71409      24   71415   71412      25   71421   71418
      24   71424   71418      24   71424   71421      25   71430   71427      24
   71433   71427      24   71433   71430      25   71439   71436      24   71442
   71436      24   71442   71439      25   71448   71445      24   71451   71445
      24   71451   71448      25   71457   71454      24   71460   71454      24
   71460   71457      25   71466   71463      24   71469   71463      24   71469
   71466      25   71475   71472      24   71478   71472      24   71478   71475
      25   71484   71481      24   71487   71481      24   71487   71484      25
   71493   71490      24   71496   71490      24   71496   71493      25   71502
   71499      24   71505   71499      24   71505   71502      25   71511   71508
      24   71514   71508      24   71514   71511      25   71520   71517      24
   71523   71517      24   71523   71520      25   71529   71526      24   71532
   71526      24   71532   71529      25   71538   71535      24   71541   71535
      24   71541   71538      25   71547   71544      24   71550   71544      24
   71550   71547      25   71556   71553      24   71559   71553      24   71559
   71556      25   71565   71562      24   71568   71562      24   71568   71565
      25   71574   71571      24   71577   71571      24   71577   71574      25
   71583   71580      24   71586   71580      24   71586   71583      25   71592
   71589      24   71595   71589      24   71595   71592      25   71601   71598
      24   71604   71598      24   71604   71601      25   71610   71607      24
   71613   71607      24   71613   71610      25   71619   71616      24   71622
   71616      24   71622   71619      25   71628   71625      24   71631   71625
      24   71631   71628      25   71637   71634      24   71640   71634      24
   71640   71637      25   71646   71643      24   71649   71643      24   71649
   71646      25   71655   71652      24   71658   71652      24   71658   71655
      25   71664   71661      24   71667   71661      24   71667   71664      25
   71673   71670      24   71676   71670      24   71676   71673      25   71682
   71679      24   71685   71679      24   71685   71682      25   71691   71688
      24   71694   71688      24   71694   71691      25   71700   71697      24
   71703   71697      24   71703   71700      25   71709   71706      24   71712
   71706      24   71712   71709      25   71718   71715      24   71721   71715
      24   71721   71718      25   71727   71724      24   71730   71724      24
   71730   71727      25   71736   71733      24   71739   71733      24   71739
   71736      25   71745   71742      24   71748   71742      24   71748   71745
      25   71754   71751      24   71757   71751      24   71757   71754      25
   71763   71760      24   71766   71760      24   71766   71763      25   71772
   71769      24   71775   71769      24   71775   71772      25   71781   71778
      24   71784   71778      24   71784   71781      25   71790   71787      24
   71793   71787      24   71793   71790      25   71799   71796      24   71802
   71796      24   71802   71799      25   71808   71805      24   71811   71805
      24   71811   71808      25   71817   71814      24   71820   71814      24
   71820   71817      25   71826   71823      24   71829   71823      24   71829
   71826      25   71835   71832      24   71838   71832      24   71838   71835
      25   71844   71841      24   71847   71841      24   71847   71844      25
   71853   71850      24   71856   71850      24   71856   71853      25   71862
   71859      24   71865   71859      24   71865   71862      25   71871   71868
      24   71874   71868      24   71874   71871      25   71880   71877      24
   71883   71877      24   71883   71880      25   71889   71886      24   71892
   71886      24   71892   71889      25   71898   71895      24   71901   71895
      24   71901   71898      25   71907   71904      24   71910   71904      24
   71910   71907      25   71916   71913      24   71919   71913      24   71919
   71916      25   71925   71922      24   71928   71922      24   71928   71925
      25   71934   71931      24   71937   71931      24   71937   71934      25
   71943   71940      24   71946   71940      24   71946   71943      25   71952
   71949      24   71955   71949      24   71955   71952      25   71961   71958
      24   71964   71958      24   71964   71961      25   71970   71967      24
   71973   71967      24   71973   71970      25   71979   71976      24   71982
   71976      24   71982   71979      25   71988   71985      24   71991   71985
      24   71991   71988      25   71997   71994      24   72000   71994      24
   72000   71997      25   72006   72003      24   72009   72003      24   72009
   72006      25   72015   72012      24   72018   72012      24   72018   72015
      25   72024   72021      24   72027   72021      24   72027   72024      25
   72033   72030      24   72036   72030      24   72036   72033      25   72042
   72039      24   72045   72039      24   72045   72042      25   72051   72048
      24   72054   72048      24   72054   72051      25   72060   72057      24
   72063   72057      24   72063   72060      25   72069   72066      24   72072
   72066      24   72072   72069      25   72078   72075      24   72081   72075
      24   72081   72078      25   72087   72084      24   72090   72084      24
   72090   72087      25   72096   72093      24   72099   72093      24   72099
   72096      25   72105   72102      24   72108   72102      24   72108   72105
      25   72114   72111      24   72117   72111      24   72117   72114      25
   72123   72120      24   72126   72120      24   72126   72123      25   72132
   72129      24   72135   72129      24   72135   72132      25   72141   72138
      24   72144   72138      24   72144   72141      25   72150   72147      24
   72153   72147      24   72153   72150      25   72159   72156      24   72162
   72156      24   72162   72159      25   72168   72165      24   72171   72165
      24   72171   72168      25   72177   72174      24   72180   72174      24
   72180   72177      25   72186   72183      24   72189   72183      24   72189
   72186      25   72195   72192      24   72198   72192      24   72198   72195
      25   72204   72201      24   72207   72201      24   72207   72204      25
   72213   72210      24   72216   72210      24   72216   72213      25   72222
   72219      24   72225   72219      24   72225   72222      25   72231   72228
      24   72234   72228      24   72234   72231      25   72240   72237      24
   72243   72237      24   72243   72240      25   72249   72246      24   72252
   72246      24   72252   72249      25   72258   72255      24   72261   72255
      24   72261   72258      25   72267   72264      24   72270   72264      24
   72270   72267      25   72276   72273      24   72279   72273      24   72279
   72276      25   72285   72282      24   72288   72282      24   72288   72285
      25   72294   72291      24   72297   72291      24   72297   72294      25
   72303   72300      24   72306   72300      24   72306   72303      25   72312
   72309      24   72315   72309      24   72315   72312      25   72321   72318
      24   72324   72318      24   72324   72321      25   72330   72327      24
   72333   72327      24   72333   72330      25   72339   72336      24   72342
   72336      24   72342   72339      25   72348   72345      24   72351   72345
      24   72351   72348      25   72357   72354      24   72360   72354      24
   72360   72357      25   72366   72363      24   72369   72363      24   72369
   72366      25   72375   72372      24   72378   72372      24   72378   72375
      25   72384   72381      24   72387   72381      24   72387   72384      25
   72393   72390      24   72396   72390      24   72396   72393      25   72402
   72399      24   72405   72399      24   72405   72402      25   72411   72408
      24   72414   72408      24   72414   72411      25   72420   72417      24
   72423   72417      24   72423   72420      25   72429   72426      24   72432
   72426      24   72432   72429      25   72438   72435      24   72441   72435
      24   72441   72438      25   72447   72444      24   72450   72444      24
   72450   72447      25   72456   72453      24   72459   72453      24   72459
   72456      25   72465   72462      24   72468   72462      24   72468   72465
      25   72474   72471      24   72477   72471      24   72477   72474      25
   72483   72480      24   72486   72480      24   72486   72483      25   72492
   72489      24   72495   72489      24   72495   72492      25   72501   72498
      24   72504   72498      24   72504   72501      25   72510   72507      24
   72513   72507      24   72513   72510      25   72519   72516      24   72522
   72516      24   72522   72519      25   72528   72525      24   72531   72525
      24   72531   72528      25   72537   72534      24   72540   72534      24
   72540   72537      25   72546   72543      24   72549   72543      24   72549
   72546      25   72555   72552      24   72558   72552      24   72558   72555
      25   72564   72561      24   72567   72561      24   72567   72564      25
   72573   72570      24   72576   72570      24   72576   72573      25   72582
   72579      24   72585   72579      24   72585   72582      25   72591   72588
      24   72594   72588      24   72594   72591      25   72600   72597      24
   72603   72597      24   72603   72600      25   72609   72606      24   72612
   72606      24   72612   72609      25   72618   72615      24   72621   72615
      24   72621   72618      25   72627   72624      24   72630   72624      24
   72630   72627      25   72636   72633      24   72639   72633      24   72639
   72636      25   72645   72642      24   72648   72642      24   72648   72645
      25   72654   72651      24   72657   72651      24   72657   72654      25
   72663   72660      24   72666   72660      24   72666   72663      25   72672
   72669      24   72675   72669      24   72675   72672      25   72681   72678
      24   72684   72678      24   72684   72681      25   72690   72687      24
   72693   72687      24   72693   72690      25   72699   72696      24   72702
   72696      24   72702   72699      25   72708   72705      24   72711   72705
      24   72711   72708      25   72717   72714      24   72720   72714      24
   72720   72717      25   72726   72723      24   72729   72723      24   72729
   72726      25   72735   72732      24   72738   72732      24   72738   72735
      25   72744   72741      24   72747   72741      24   72747   72744      25
   72753   72750      24   72756   72750      24   72756   72753      25   72762
   72759      24   72765   72759      24   72765   72762      25   72771   72768
      24   72774   72768      24   72774   72771      25   72780   72777      24
   72783   72777      24   72783   72780      25   72789   72786      24   72792
   72786      24   72792   72789      25   72798   72795      24   72801   72795
      24   72801   72798      25   72807   72804      24   72810   72804      24
   72810   72807      25   72816   72813      24   72819   72813      24   72819
   72816      25   72825   72822      24   72828   72822      24   72828   72825
      25   72834   72831      24   72837   72831      24   72837   72834      25
   72843   72840      24   72846   72840      24   72846   72843      25   72852
   72849      24   72855   72849      24   72855   72852      25   72861   72858
      24   72864   72858      24   72864   72861      25   72870   72867      24
   72873   72867      24   72873   72870      25   72879   72876      24   72882
   72876      24   72882   72879      25   72888   72885      24   72891   72885
      24   72891   72888      25   72897   72894      24   72900   72894      24
   72900   72897      25   72906   72903      24   72909   72903      24   72909
   72906      25   72915   72912      24   72918   72912      24   72918   72915
      25   72924   72921      24   72927   72921      24   72927   72924      25
   72933   72930      24   72936   72930      24   72936   72933      25   72942
   72939      24   72945   72939      24   72945   72942      25   72951   72948
      24   72954   72948      24   72954   72951      25   72960   72957      24
   72963   72957      24   72963   72960      25   72969   72966      24   72972
   72966      24   72972   72969      25   72978   72975      24   72981   72975
      24   72981   72978      25   72987   72984      24   72990   72984      24
   72990   72987      25   72996   72993      24   72999   72993      24   72999
   72996      25   73005   73002      24   73008   73002      24   73008   73005
      25   73014   73011      24   73017   73011      24   73017   73014      25
   73023   73020      24   73026   73020      24   73026   73023      25   73032
   73029      24   73035   73029      24   73035   73032      25   73041   73038
      24   73044   73038      24   73044   73041      25   73050   73047      24
   73053   73047      24   73053   73050      25   73059   73056      24   73062
   73056      24   73062   73059      25   73068   73065      24   73071   73065
      24   73071   73068      25   73077   73074      24   73080   73074      24
   73080   73077      25   73086   73083      24   73089   73083      24   73089
   73086      25   73095   73092      24   73098   73092      24   73098   73095
      25   73104   73101      24   73107   73101      24   73107   73104      25
   73113   73110      24   73116   73110      24   73116   73113      25   73122
   73119      24   73125   73119      24   73125   73122      25   73131   73128
      24   73134   73128      24   73134   73131      25   73140   73137      24
   73143   73137      24   73143   73140      25   73149   73146      24   73152
   73146      24   73152   73149      25   73158   73155      24   73161   73155
      24   73161   73158      25   73167   73164      24   73170   73164      24
   73170   73167      25   73176   73173      24   73179   73173      24   73179
   73176      25   73185   73182      24   73188   73182      24   73188   73185
      25   73194   73191      24   73197   73191      24   73197   73194      25
   73203   73200      24   73206   73200      24   73206   73203      25   73212
   73209      24   73215   73209      24   73215   73212      25   73221   73218
      24   73224   73218      24   73224   73221      25   73230   73227      24
   73233   73227      24   73233   73230      25   73239   73236      24   73242
   73236      24   73242   73239      25   73248   73245      24   73251   73245
      24   73251   73248      25   73257   73254      24   73260   73254      24
   73260   73257      25   73266   73263      24   73269   73263      24   73269
   73266      25   73275   73272      24   73278   73272      24   73278   73275
      25   73284   73281      24   73287   73281      24   73287   73284      25
   73293   73290      24   73296   73290      24   73296   73293      25   73302
   73299      24   73305   73299      24   73305   73302      25   73311   73308
      24   73314   73308      24   73314   73311      25   73320   73317      24
   73323   73317      24   73323   73320      25   73329   73326      24   73332
   73326      24   73332   73329      25   73338   73335      24   73341   73335
      24   73341   73338      25   73347   73344      24   73350   73344      24
   73350   73347      25   73356   73353      24   73359   73353      24   73359
   73356      25   73365   73362      24   73368   73362      24   73368   73365
      25   73374   73371      24   73377   73371      24   73377   73374      25
   73383   73380      24   73386   73380      24   73386   73383      25   73392
   73389      24   73395   73389      24   73395   73392      25   73401   73398
      24   73404   73398      24   73404   73401      25   73410   73407      24
   73413   73407      24   73413   73410      25   73419   73416      24   73422
   73416      24   73422   73419      25   73428   73425      24   73431   73425
      24   73431   73428      25   73437   73434      24   73440   73434      24
   73440   73437      25   73446   73443      24   73449   73443      24   73449
   73446      25   73455   73452      24   73458   73452      24   73458   73455
      25   73464   73461      24   73467   73461      24   73467   73464      25
   73473   73470      24   73476   73470      24   73476   73473      25   73482
   73479      24   73485   73479      24   73485   73482      25   73491   73488
      24   73494   73488      24   73494   73491      25   73500   73497      24
   73503   73497      24   73503   73500      25   73509   73506      24   73512
   73506      24   73512   73509      25   73518   73515      24   73521   73515
      24   73521   73518      25   73527   73524      24   73530   73524      24
   73530   73527      25   73536   73533      24   73539   73533      24   73539
   73536      25   73545   73542      24   73548   73542      24   73548   73545
      25   73554   73551      24   73557   73551      24   73557   73554      25
   73563   73560      24   73566   73560      24   73566   73563      25   73572
   73569      24   73575   73569      24   73575   73572      25   73581   73578
      24   73584   73578      24   73584   73581      25   73590   73587      24
   73593   73587      24   73593   73590      25   73599   73596      24   73602
   73596      24   73602   73599      25   73608   73605      24   73611   73605
      24   73611   73608      25   73617   73614      24   73620   73614      24
   73620   73617      25   73626   73623      24   73629   73623      24   73629
   73626      25   73635   73632      24   73638   73632      24   73638   73635
      25   73644   73641      24   73647   73641      24   73647   73644      25
   73653   73650      24   73656   73650      24   73656   73653      25   73662
   73659      24   73665   73659      24   73665   73662      25   73671   73668
      24   73674   73668      24   73674   73671      25   73680   73677      24
   73683   73677      24   73683   73680      25   73689   73686      24   73692
   73686      24   73692   73689      25   73698   73695      24   73701   73695
      24   73701   73698      25   73707   73704      24   73710   73704      24
   73710   73707      25   73716   73713      24   73719   73713      24   73719
   73716      25   73725   73722      24   73728   73722      24   73728   73725
      25   73734   73731      24   73737   73731      24   73737   73734      25
   73743   73740      24   73746   73740      24   73746   73743      25   73752
   73749      24   73755   73749      24   73755   73752      25   73761   73758
      24   73764   73758      24   73764   73761      25   73770   73767      24
   73773   73767      24   73773   73770      25   73779   73776      24   73782
   73776      24   73782   73779      25   73788   73785      24   73791   73785
      24   73791   73788      25   73797   73794      24   73800   73794      24
   73800   73797      25   73806   73803      24   73809   73803      24   73809
   73806      25   73815   73812      24   73818   73812      24   73818   73815
      25   73824   73821      24   73827   73821      24   73827   73824      25
   73833   73830      24   73836   73830      24   73836   73833      25   73842
   73839      24   73845   73839      24   73845   73842      25   73851   73848
      24   73854   73848      24   73854   73851      25   73860   73857      24
   73863   73857      24   73863   73860      25   73869   73866      24   73872
   73866      24   73872   73869      25   73878   73875      24   73881   73875
      24   73881   73878      25   73887   73884      24   73890   73884      24
   73890   73887      25   73896   73893      24   73899   73893      24   73899
   73896      25   73905   73902      24   73908   73902      24   73908   73905
      25   73914   73911      24   73917   73911      24   73917   73914      25
   73923   73920      24   73926   73920      24   73926   73923      25   73932
   73929      24   73935   73929      24   73935   73932      25   73941   73938
      24   73944   73938      24   73944   73941      25   73950   73947      24
   73953   73947      24   73953   73950      25   73959   73956      24   73962
   73956      24   73962   73959      25   73968   73965      24   73971   73965
      24   73971   73968      25   73977   73974      24   73980   73974      24
   73980   73977      25   73986   73983      24   73989   73983      24   73989
   73986      25   73995   73992      24   73998   73992      24   73998   73995
      25   74004   74001      24   74007   74001      24   74007   74004      25
   74013   74010      24   74016   74010      24   74016   74013      25   74022
   74019      24   74025   74019      24   74025   74022      25   74031   74028
      24   74034   74028      24   74034   74031      25   74040   74037      24
   74043   74037      24   74043   74040      25   74049   74046      24   74052
   74046      24   74052   74049      25   74058   74055      24   74061   74055
      24   74061   74058      25   74067   74064      24   74070   74064      24
   74070   74067      25   74076   74073      24   74079   74073      24   74079
   74076      25   74085   74082      24   74088   74082      24   74088   74085
      25   74094   74091      24   74097   74091      24   74097   74094      25
   74103   74100      24   74106   74100      24   74106   74103      25   74112
   74109      24   74115   74109      24   74115   74112      25   74121   74118
      24   74124   74118      24   74124   74121      25   74130   74127      24
   74133   74127      24   74133   74130      25   74139   74136      24   74142
   74136      24   74142   74139      25   74148   74145      24   74151   74145
      24   74151   74148      25   74157   74154      24   74160   74154      24
   74160   74157      25   74166   74163      24   74169   74163      24   74169
   74166      25   74175   74172      24   74178   74172      24   74178   74175
      25   74184   74181      24   74187   74181      24   74187   74184      25
   74193   74190      24   74196   74190      24   74196   74193      25   74202
   74199      24   74205   74199      24   74205   74202      25   74211   74208
      24   74214   74208      24   74214   74211      25   74220   74217      24
   74223   74217      24   74223   74220      25   74229   74226      24   74232
   74226      24   74232   74229      25   74238   74235      24   74241   74235
      24   74241   74238      25   74247   74244      24   74250   74244      24
   74250   74247      25   74256   74253      24   74259   74253      24   74259
   74256      25   74265   74262      24   74268   74262      24   74268   74265
      25   74274   74271      24   74277   74271      24   74277   74274      25
   74283   74280      24   74286   74280      24   74286   74283      25   74292
   74289      24   74295   74289      24   74295   74292      25   74301   74298
      24   74304   74298      24   74304   74301      25   74310   74307      24
   74313   74307      24   74313   74310      25   74319   74316      24   74322
   74316      24   74322   74319      25   74328   74325      24   74331   74325
      24   74331   74328      25   74337   74334      24   74340   74334      24
   74340   74337      25   74346   74343      24   74349   74343      24   74349
   74346      25   74355   74352      24   74358   74352      24   74358   74355
      25   74364   74361      24   74367   74361      24   74367   74364      25
   74373   74370      24   74376   74370      24   74376   74373      25   74382
   74379      24   74385   74379      24   74385   74382      25   74391   74388
      24   74394   74388      24   74394   74391      25   74400   74397      24
   74403   74397      24   74403   74400      25   74409   74406      24   74412
   74406      24   74412   74409      25   74418   74415      24   74421   74415
      24   74421   74418      25   74427   74424      24   74430   74424      24
   74430   74427      25   74436   74433      24   74439   74433      24   74439
   74436      25   74445   74442      24   74448   74442      24   74448   74445
      25   74454   74451      24   74457   74451      24   74457   74454      25
   74463   74460      24   74466   74460      24   74466   74463      25   74472
   74469      24   74475   74469      24   74475   74472      25   74481   74478
      24   74484   74478      24   74484   74481      25   74490   74487      24
   74493   74487      24   74493   74490      25   74499   74496      24   74502
   74496      24   74502   74499      25   74508   74505      24   74511   74505
      24   74511   74508      25   74517   74514      24   74520   74514      24
   74520   74517      25   74526   74523      24   74529   74523      24   74529
   74526      25   74535   74532      24   74538   74532      24   74538   74535
      25   74544   74541      24   74547   74541      24   74547   74544      25
   74553   74550      24   74556   74550      24   74556   74553      25   74562
   74559      24   74565   74559      24   74565   74562      25   74571   74568
      24   74574   74568      24   74574   74571      25   74580   74577      24
   74583   74577      24   74583   74580      25   74589   74586      24   74592
   74586      24   74592   74589      25   74598   74595      24   74601   74595
      24   74601   74598      25   74607   74604      24   74610   74604      24
   74610   74607      25   74616   74613      24   74619   74613      24   74619
   74616      25   74625   74622      24   74628   74622      24   74628   74625
      25   74634   74631      24   74637   74631      24   74637   74634      25
   74643   74640      24   74646   74640      24   74646   74643      25   74652
   74649      24   74655   74649      24   74655   74652      25   74661   74658
      24   74664   74658      24   74664   74661      25   74670   74667      24
   74673   74667      24   74673   74670      25   74679   74676      24   74682
   74676      24   74682   74679      25   74688   74685      24   74691   74685
      24   74691   74688      25   74697   74694      24   74700   74694      24
   74700   74697      25   74706   74703      24   74709   74703      24   74709
   74706      25   74715   74712      24   74718   74712      24   74718   74715
      25   74724   74721      24   74727   74721      24   74727   74724      25
   74733   74730      24   74736   74730      24   74736   74733      25   74742
   74739      24   74745   74739      24   74745   74742      25   74751   74748
      24   74754   74748      24   74754   74751      25   74760   74757      24
   74763   74757      24   74763   74760      25   74769   74766      24   74772
   74766      24   74772   74769      25   74778   74775      24   74781   74775
      24   74781   74778      25   74787   74784      24   74790   74784      24
   74790   74787      25   74796   74793      24   74799   74793      24   74799
   74796      25   74805   74802      24   74808   74802      24   74808   74805
      25   74814   74811      24   74817   74811      24   74817   74814      25
   74823   74820      24   74826   74820      24   74826   74823      25   74832
   74829      24   74835   74829      24   74835   74832      25   74841   74838
      24   74844   74838      24   74844   74841      25   74850   74847      24
   74853   74847      24   74853   74850      25   74859   74856      24   74862
   74856      24   74862   74859      25   74868   74865      24   74871   74865
      24   74871   74868      25   74877   74874      24   74880   74874      24
   74880   74877      25   74886   74883      24   74889   74883      24   74889
   74886      25   74895   74892      24   74898   74892      24   74898   74895
      25   74904   74901      24   74907   74901      24   74907   74904      25
   74913   74910      24   74916   74910      24   74916   74913      25   74922
   74919      24   74925   74919      24   74925   74922      25   74931   74928
      24   74934   74928      24   74934   74931      25   74940   74937      24
   74943   74937      24   74943   74940      25   74949   74946      24   74952
   74946      24   74952   74949      25   74958   74955      24   74961   74955
      24   74961   74958      25   74967   74964      24   74970   74964      24
   74970   74967      25   74976   74973      24   74979   74973      24   74979
   74976      25   74985   74982      24   74988   74982      24   74988   74985
      25   74994   74991      24   74997   74991      24   74997   74994      25
   75003   75000      24   75006   75000      24   75006   75003      25   75012
   75009      24   75015   75009      24   75015   75012      25   75021   75018
      24   75024   75018      24   75024   75021      25   75030   75027      24
   75033   75027      24   75033   75030      25   75039   75036      24   75042
   75036      24   75042   75039      25   75048   75045      24   75051   75045
      24   75051   75048      25   75057   75054      24   75060   75054      24
   75060   75057      25   75066   75063      24   75069   75063      24   75069
   75066      25   75075   75072      24   75078   75072      24   75078   75075
      25   75084   75081      24   75087   75081      24   75087   75084      25
   75093   75090      24   75096   75090      24   75096   75093      25   75102
   75099      24   75105   75099      24   75105   75102      25   75111   75108
      24   75114   75108      24   75114   75111      25   75120   75117      24
   75123   75117      24   75123   75120      25   75129   75126      24   75132
   75126      24   75132   75129      25   75138   75135      24   75141   75135
      24   75141   75138      25   75147   75144      24   75150   75144      24
   75150   75147      25   75156   75153      24   75159   75153      24   75159
   75156      25   75165   75162      24   75168   75162      24   75168   75165
      25   75174   75171      24   75177   75171      24   75177   75174      25
   75183   75180      24   75186   75180      24   75186   75183      25   75192
   75189      24   75195   75189      24   75195   75192      25   75201   75198
      24   75204   75198      24   75204   75201      25   75210   75207      24
   75213   75207      24   75213   75210      25   75219   75216      24   75222
   75216      24   75222   75219      25   75228   75225      24   75231   75225
      24   75231   75228      25   75237   75234      24   75240   75234      24
   75240   75237      25   75246   75243      24   75249   75243      24   75249
   75246      25   75255   75252      24   75258   75252      24   75258   75255
      25   75264   75261      24   75267   75261      24   75267   75264      25
   75273   75270      24   75276   75270      24   75276   75273      25   75282
   75279      24   75285   75279      24   75285   75282      25   75291   75288
      24   75294   75288      24   75294   75291      25   75300   75297      24
   75303   75297      24   75303   75300      25   75309   75306      24   75312
   75306      24   75312   75309      25   75318   75315      24   75321   75315
      24   75321   75318      25   75327   75324      24   75330   75324      24
   75330   75327      25   75336   75333      24   75339   75333      24   75339
   75336      25   75345   75342      24   75348   75342      24   75348   75345
      25   75354   75351      24   75357   75351      24   75357   75354      25
   75363   75360      24   75366   75360      24   75366   75363      25   75372
   75369      24   75375   75369      24   75375   75372      25   75381   75378
      24   75384   75378      24   75384   75381      25   75390   75387      24
   75393   75387      24   75393   75390      25   75399   75396      24   75402
   75396      24   75402   75399      25   75408   75405      24   75411   75405
      24   75411   75408      25   75417   75414      24   75420   75414      24
   75420   75417      25   75426   75423      24   75429   75423      24   75429
   75426      25   75435   75432      24   75438   75432      24   75438   75435
      25   75444   75441      24   75447   75441      24   75447   75444      25
   75453   75450      24   75456   75450      24   75456   75453      25   75462
   75459      24   75465   75459      24   75465   75462      25   75471   75468
      24   75474   75468      24   75474   75471      25   75480   75477      24
   75483   75477      24   75483   75480      25   75489   75486      24   75492
   75486      24   75492   75489      25   75498   75495      24   75501   75495
      24   75501   75498      25   75507   75504      24   75510   75504      24
   75510   75507      25   75516   75513      24   75519   75513      24   75519
   75516      25   75525   75522      24   75528   75522      24   75528   75525
      25   75534   75531      24   75537   75531      24   75537   75534      25
   75543   75540      24   75546   75540      24   75546   75543      25   75552
   75549      24   75555   75549      24   75555   75552      25   75561   75558
      24   75564   75558      24   75564   75561      25   75570   75567      24
   75573   75567      24   75573   75570      25   75579   75576      24   75582
   75576      24   75582   75579      25   75588   75585      24   75591   75585
      24   75591   75588      25   75597   75594      24   75600   75594      24
   75600   75597      25   75606   75603      24   75609   75603      24   75609
   75606      25   75615   75612      24   75618   75612      24   75618   75615
      25   75624   75621      24   75627   75621      24   75627   75624      25
   75633   75630      24   75636   75630      24   75636   75633      25   75642
   75639      24   75645   75639      24   75645   75642      25   75651   75648
      24   75654   75648      24   75654   75651      25   75660   75657      24
   75663   75657      24   75663   75660      25   75669   75666      24   75672
   75666      24   75672   75669      25   75678   75675      24   75681   75675
      24   75681   75678      25   75687   75684      24   75690   75684      24
   75690   75687      25   75696   75693      24   75699   75693      24   75699
   75696      25   75705   75702      24   75708   75702      24   75708   75705
      25   75714   75711      24   75717   75711      24   75717   75714      25
   75723   75720      24   75726   75720      24   75726   75723      25   75732
   75729      24   75735   75729      24   75735   75732      25   75741   75738
      24   75744   75738      24   75744   75741      25   75750   75747      24
   75753   75747      24   75753   75750      25   75759   75756      24   75762
   75756      24   75762   75759      25   75768   75765      24   75771   75765
      24   75771   75768      25   75777   75774      24   75780   75774      24
   75780   75777      25   75786   75783      24   75789   75783      24   75789
   75786      25   75795   75792      24   75798   75792      24   75798   75795
      25   75804   75801      24   75807   75801      24   75807   75804      25
   75813   75810      24   75816   75810      24   75816   75813      25   75822
   75819      24   75825   75819      24   75825   75822      25   75831   75828
      24   75834   75828      24   75834   75831      25   75840   75837      24
   75843   75837      24   75843   75840      25   75849   75846      24   75852
   75846      24   75852   75849      25   75858   75855      24   75861   75855
      24   75861   75858      25   75867   75864      24   75870   75864      24
   75870   75867      25   75876   75873      24   75879   75873      24   75879
   75876      25   75885   75882      24   75888   75882      24   75888   75885
      25   75894   75891      24   75897   75891      24   75897   75894      25
   75903   75900      24   75906   75900      24   75906   75903      25   75912
   75909      24   75915   75909      24   75915   75912      25   75921   75918
      24   75924   75918      24   75924   75921      25   75930   75927      24
   75933   75927      24   75933   75930      25   75939   75936      24   75942
   75936      24   75942   75939      25   75948   75945      24   75951   75945
      24   75951   75948      25   75957   75954      24   75960   75954      24
   75960   75957      25   75966   75963      24   75969   75963      24   75969
   75966      25   75975   75972      24   75978   75972      24   75978   75975
      25   75984   75981      24   75987   75981      24   75987   75984      25
   75993   75990      24   75996   75990      24   75996   75993      25   76002
   75999      24   76005   75999      24   76005   76002      25   76011   76008
      24   76014   76008      24   76014   76011      25   76020   76017      24
   76023   76017      24   76023   76020      25   76029   76026      24   76032
   76026      24   76032   76029      25   76038   76035      24   76041   76035
      24   76041   76038      25   76047   76044      24   76050   76044      24
   76050   76047      25   76056   76053      24   76059   76053      24   76059
   76056      25   76065   76062      24   76068   76062      24   76068   76065
      25   76074   76071      24   76077   76071      24   76077   76074      25
   76083   76080      24   76086   76080      24   76086   76083      25   76092
   76089      24   76095   76089      24   76095   76092      25   76101   76098
      24   76104   76098      24   76104   76101      25   76110   76107      24
   76113   76107      24   76113   76110      25   76119   76116      24   76122
   76116      24   76122   76119      25   76128   76125      24   76131   76125
      24   76131   76128      25   76137   76134      24   76140   76134      24
   76140   76137      25   76146   76143      24   76149   76143      24   76149
   76146      25   76155   76152      24   76158   76152      24   76158   76155
      25   76164   76161      24   76167   76161      24   76167   76164      25
   76173   76170      24   76176   76170      24   76176   76173      25   76182
   76179      24   76185   76179      24   76185   76182      25   76191   76188
      24   76194   76188      24   76194   76191      25   76200   76197      24
   76203   76197      24   76203   76200      25   76209   76206      24   76212
   76206      24   76212   76209      25   76218   76215      24   76221   76215
      24   76221   76218      25   76227   76224      24   76230   76224      24
   76230   76227      25   76236   76233      24   76239   76233      24   76239
   76236      25   76245   76242      24   76248   76242      24   76248   76245
      25   76254   76251      24   76257   76251      24   76257   76254      25
   76263   76260      24   76266   76260      24   76266   76263      25   76272
   76269      24   76275   76269      24   76275   76272      25   76281   76278
      24   76284   76278      24   76284   76281      25   76290   76287      24
   76293   76287      24   76293   76290      25   76299   76296      24   76302
   76296      24   76302   76299      25   76308   76305      24   76311   76305
      24   76311   76308      25   76317   76314      24   76320   76314      24
   76320   76317      25   76326   76323      24   76329   76323      24   76329
   76326      25   76335   76332      24   76338   76332      24   76338   76335
      25   76344   76341      24   76347   76341      24   76347   76344      25
   76353   76350      24   76356   76350      24   76356   76353      25   76362
   76359      24   76365   76359      24   76365   76362      25   76371   76368
      24   76374   76368      24   76374   76371      25   76380   76377      24
   76383   76377      24   76383   76380      25   76389   76386      24   76392
   76386      24   76392   76389      25   76398   76395      24   76401   76395
      24   76401   76398      25   76407   76404      24   76410   76404      24
   76410   76407      25   76416   76413      24   76419   76413      24   76419
   76416      25   76425   76422      24   76428   76422      24   76428   76425
      25   76434   76431      24   76437   76431      24   76437   76434      25
   76443   76440      24   76446   76440      24   76446   76443      25   76452
   76449      24   76455   76449      24   76455   76452      25   76461   76458
      24   76464   76458      24   76464   76461      25   76470   76467      24
   76473   76467      24   76473   76470      25   76479   76476      24   76482
   76476      24   76482   76479      25   76488   76485      24   76491   76485
      24   76491   76488      25   76497   76494      24   76500   76494      24
   76500   76497      25   76506   76503      24   76509   76503      24   76509
   76506      25   76515   76512      24   76518   76512      24   76518   76515
      25   76524   76521      24   76527   76521      24   76527   76524      25
   76533   76530      24   76536   76530      24   76536   76533      25   76542
   76539      24   76545   76539      24   76545   76542      25   76551   76548
      24   76554   76548      24   76554   76551      25   76560   76557      24
   76563   76557      24   76563   76560      25   76569   76566      24   76572
   76566      24   76572   76569      25   76578   76575      24   76581   76575
      24   76581   76578      25   76587   76584      24   76590   76584      24
   76590   76587      25   76596   76593      24   76599   76593      24   76599
   76596      25   76605   76602      24   76608   76602      24   76608   76605
      25   76614   76611      24   76617   76611      24   76617   76614      25
   76623   76620      24   76626   76620      24   76626   76623      25   76632
   76629      24   76635   76629      24   76635   76632      25   76641   76638
      24   76644   76638      24   76644   76641      25   76650   76647      24
   76653   76647      24   76653   76650      25   76659   76656      24   76662
   76656      24   76662   76659      25   76668   76665      24   76671   76665
      24   76671   76668      25   76677   76674      24   76680   76674      24
   76680   76677      25   76686   76683      24   76689   76683      24   76689
   76686      25   76695   76692      24   76698   76692      24   76698   76695
      25   76704   76701      24   76707   76701      24   76707   76704      25
   76713   76710      24   76716   76710      24   76716   76713      25   76722
   76719      24   76725   76719      24   76725   76722      25   76731   76728
      24   76734   76728      24   76734   76731      25   76740   76737      24
   76743   76737      24   76743   76740      25   76749   76746      24   76752
   76746      24   76752   76749      25   76758   76755      24   76761   76755
      24   76761   76758      25   76767   76764      24   76770   76764      24
   76770   76767      25   76776   76773      24   76779   76773      24   76779
   76776      25   76785   76782      24   76788   76782      24   76788   76785
      25   76794   76791      24   76797   76791      24   76797   76794      25
   76803   76800      24   76806   76800      24   76806   76803      25   76812
   76809      24   76815   76809      24   76815   76812      25   76821   76818
      24   76824   76818      24   76824   76821      25   76830   76827      24
   76833   76827      24   76833   76830      25   76839   76836      24   76842
   76836      24   76842   76839      25   76848   76845      24   76851   76845
      24   76851   76848      25   76857   76854      24   76860   76854      24
   76860   76857      25   76866   76863      24   76869   76863      24   76869
   76866      25   76875   76872      24   76878   76872      24   76878   76875
      25   76884   76881      24   76887   76881      24   76887   76884      25
   76893   76890      24   76896   76890      24   76896   76893      25   76902
   76899      24   76905   76899      24   76905   76902      25   76911   76908
      24   76914   76908      24   76914   76911      25   76920   76917      24
   76923   76917      24   76923   76920      25   76929   76926      24   76932
   76926      24   76932   76929      25   76938   76935      24   76941   76935
      24   76941   76938      25   76947   76944      24   76950   76944      24
   76950   76947      25   76956   76953      24   76959   76953      24   76959
   76956      25   76965   76962      24   76968   76962      24   76968   76965
      25   76974   76971      24   76977   76971      24   76977   76974      25
   76983   76980      24   76986   76980      24   76986   76983      25   76992
   76989      24   76995   76989      24   76995   76992      25   77001   76998
      24   77004   76998      24   77004   77001      25   77010   77007      24
   77013   77007      24   77013   77010      25   77019   77016      24   77022
   77016      24   77022   77019      25   77028   77025      24   77031   77025
      24   77031   77028      25   77037   77034      24   77040   77034      24
   77040   77037      25   77046   77043      24   77049   77043      24   77049
   77046      25   77055   77052      24   77058   77052      24   77058   77055
      25   77064   77061      24   77067   77061      24   77067   77064      25
   77073   77070      24   77076   77070      24   77076   77073      25   77082
   77079      24   77085   77079      24   77085   77082      25   77091   77088
      24   77094   77088      24   77094   77091      25   77100   77097      24
   77103   77097      24   77103   77100      25   77109   77106      24   77112
   77106      24   77112   77109      25   77118   77115      24   77121   77115
      24   77121   77118      25   77127   77124      24   77130   77124      24
   77130   77127      25   77136   77133      24   77139   77133      24   77139
   77136      25   77145   77142      24   77148   77142      24   77148   77145
      25   77154   77151      24   77157   77151      24   77157   77154      25
   77163   77160      24   77166   77160      24   77166   77163      25   77172
   77169      24   77175   77169      24   77175   77172      25   77181   77178
      24   77184   77178      24   77184   77181      25   77190   77187      24
   77193   77187      24   77193   77190      25   77199   77196      24   77202
   77196      24   77202   77199      25   77208   77205      24   77211   77205
      24   77211   77208      25   77217   77214      24   77220   77214      24
   77220   77217      25   77226   77223      24   77229   77223      24   77229
   77226      25   77235   77232      24   77238   77232      24   77238   77235
      25   77244   77241      24   77247   77241      24   77247   77244      25
   77253   77250      24   77256   77250      24   77256   77253      25   77262
   77259      24   77265   77259      24   77265   77262      25   77271   77268
      24   77274   77268      24   77274   77271      25   77280   77277      24
   77283   77277      24   77283   77280      25   77289   77286      24   77292
   77286      24   77292   77289      25   77298   77295      24   77301   77295
      24   77301   77298      25   77307   77304      24   77310   77304      24
   77310   77307      25   77316   77313      24   77319   77313      24   77319
   77316      25   77325   77322      24   77328   77322      24   77328   77325
      25   77334   77331      24   77337   77331      24   77337   77334      25
   77343   77340      24   77346   77340      24   77346   77343      25   77352
   77349      24   77355   77349      24   77355   77352      25   77361   77358
      24   77364   77358      24   77364   77361      25   77370   77367      24
   77373   77367      24   77373   77370      25   77379   77376      24   77382
   77376      24   77382   77379      25   77388   77385      24   77391   77385
      24   77391   77388      25   77397   77394      24   77400   77394      24
   77400   77397      25   77406   77403      24   77409   77403      24   77409
   77406      25   77415   77412      24   77418   77412      24   77418   77415
      25   77424   77421      24   77427   77421      24   77427   77424      25
   77433   77430      24   77436   77430      24   77436   77433      25   77442
   77439      24   77445   77439      24   77445   77442      25   77451   77448
      24   77454   77448      24   77454   77451      25   77460   77457      24
   77463   77457      24   77463   77460      25   77469   77466      24   77472
   77466      24   77472   77469      25   77478   77475      24   77481   77475
      24   77481   77478      25   77487   77484      24   77490   77484      24
   77490   77487      25   77496   77493      24   77499   77493      24   77499
   77496      25   77505   77502      24   77508   77502      24   77508   77505
      25   77514   77511      24   77517   77511      24   77517   77514      25
   77523   77520      24   77526   77520      24   77526   77523      25   77532
   77529      24   77535   77529      24   77535   77532      25   77541   77538
      24   77544   77538      24   77544   77541      25   77550   77547      24
   77553   77547      24   77553   77550      25   77559   77556      24   77562
   77556      24   77562   77559      25   77568   77565      24   77571   77565
      24   77571   77568      25   77577   77574      24   77580   77574      24
   77580   77577      25   77586   77583      24   77589   77583      24   77589
   77586      25   77595   77592      24   77598   77592      24   77598   77595
      25   77604   77601      24   77607   77601      24   77607   77604      25
   77613   77610      24   77616   77610      24   77616   77613      25   77622
   77619      24   77625   77619      24   77625   77622      25   77631   77628
      24   77634   77628      24   77634   77631      25   77640   77637      24
   77643   77637      24   77643   77640      25   77649   77646      24   77652
   77646      24   77652   77649      25   77658   77655      24   77661   77655
      24   77661   77658      25   77667   77664      24   77670   77664      24
   77670   77667      25   77676   77673      24   77679   77673      24   77679
   77676      25   77685   77682      24   77688   77682      24   77688   77685
      25   77694   77691      24   77697   77691      24   77697   77694      25
   77703   77700      24   77706   77700      24   77706   77703      25   77712
   77709      24   77715   77709      24   77715   77712      25   77721   77718
      24   77724   77718      24   77724   77721      25   77730   77727      24
   77733   77727      24   77733   77730      25   77739   77736      24   77742
   77736      24   77742   77739      25   77748   77745      24   77751   77745
      24   77751   77748      25   77757   77754      24   77760   77754      24
   77760   77757      25   77766   77763      24   77769   77763      24   77769
   77766      25   77775   77772      24   77778   77772      24   77778   77775
      25   77784   77781      24   77787   77781      24   77787   77784      25
   77793   77790      24   77796   77790      24   77796   77793      25   77802
   77799      24   77805   77799      24   77805   77802      25   77811   77808
      24   77814   77808      24   77814   77811      25   77820   77817      24
   77823   77817      24   77823   77820      25   77829   77826      24   77832
   77826      24   77832   77829      25   77838   77835      24   77841   77835
      24   77841   77838      25   77847   77844      24   77850   77844      24
   77850   77847      25   77856   77853      24   77859   77853      24   77859
   77856      25   77865   77862      24   77868   77862      24   77868   77865
      25   77874   77871      24   77877   77871      24   77877   77874      25
   77883   77880      24   77886   77880      24   77886   77883      25   77892
   77889      24   77895   77889      24   77895   77892      25   77901   77898
      24   77904   77898      24   77904   77901      25   77910   77907      24
   77913   77907      24   77913   77910      25   77919   77916      24   77922
   77916      24   77922   77919      25   77928   77925      24   77931   77925
      24   77931   77928      25   77937   77934      24   77940   77934      24
   77940   77937      25   77946   77943      24   77949   77943      24   77949
   77946      25   77955   77952      24   77958   77952      24   77958   77955
      25   77964   77961      24   77967   77961      24   77967   77964      25
   77973   77970      24   77976   77970      24   77976   77973      25   77982
   77979      24   77985   77979      24   77985   77982      25   77991   77988
      24   77994   77988      24   77994   77991      25   78000   77997      24
   78003   77997      24   78003   78000      25   78009   78006      24   78012
   78006      24   78012   78009      25   78018   78015      24   78021   78015
      24   78021   78018      25   78027   78024      24   78030   78024      24
   78030   78027      25   78036   78033      24   78039   78033      24   78039
   78036      25   78045   78042      24   78048   78042      24   78048   78045
      25   78054   78051      24   78057   78051      24   78057   78054      25
   78063   78060      24   78066   78060      24   78066   78063      25   78072
   78069      24   78075   78069      24   78075   78072      25   78081   78078
      24   78084   78078      24   78084   78081      25   78090   78087      24
   78093   78087      24   78093   78090      25   78099   78096      24   78102
   78096      24   78102   78099      25   78108   78105      24   78111   78105
      24   78111   78108      25   78117   78114      24   78120   78114      24
   78120   78117      25   78126   78123      24   78129   78123      24   78129
   78126      25   78135   78132      24   78138   78132      24   78138   78135
      25   78144   78141      24   78147   78141      24   78147   78144      25
   78153   78150      24   78156   78150      24   78156   78153      25   78162
   78159      24   78165   78159      24   78165   78162      25   78171   78168
      24   78174   78168      24   78174   78171      25   78180   78177      24
   78183   78177      24   78183   78180      25   78189   78186      24   78192
   78186      24   78192   78189      25   78198   78195      24   78201   78195
      24   78201   78198      25   78207   78204      24   78210   78204      24
   78210   78207      25   78216   78213      24   78219   78213      24   78219
   78216      25   78225   78222      24   78228   78222      24   78228   78225
      25   78234   78231      24   78237   78231      24   78237   78234      25
   78243   78240      24   78246   78240      24   78246   78243      25   78252
   78249      24   78255   78249      24   78255   78252      25   78261   78258
      24   78264   78258      24   78264   78261      25   78270   78267      24
   78273   78267      24   78273   78270      25   78279   78276      24   78282
   78276      24   78282   78279      25   78288   78285      24   78291   78285
      24   78291   78288      25   78297   78294      24   78300   78294      24
   78300   78297      25   78306   78303      24   78309   78303      24   78309
   78306      25   78315   78312      24   78318   78312      24   78318   78315
      25   78324   78321      24   78327   78321      24   78327   78324      25
   78333   78330      24   78336   78330      24   78336   78333      25   78342
   78339      24   78345   78339      24   78345   78342      25   78351   78348
      24   78354   78348      24   78354   78351      25   78360   78357      24
   78363   78357      24   78363   78360      25   78369   78366      24   78372
   78366      24   78372   78369      25   78378   78375      24   78381   78375
      24   78381   78378      25   78387   78384      24   78390   78384      24
   78390   78387      25   78396   78393      24   78399   78393      24   78399
   78396      25   78405   78402      24   78408   78402      24   78408   78405
      25   78414   78411      24   78417   78411      24   78417   78414      25
   78423   78420      24   78426   78420      24   78426   78423      25   78432
   78429      24   78435   78429      24   78435   78432      25   78441   78438
      24   78444   78438      24   78444   78441      25   78450   78447      24
   78453   78447      24   78453   78450      25   78459   78456      24   78462
   78456      24   78462   78459      25   78468   78465      24   78471   78465
      24   78471   78468      25   78477   78474      24   78480   78474      24
   78480   78477      25   78486   78483      24   78489   78483      24   78489
   78486      25   78495   78492      24   78498   78492      24   78498   78495
      25   78504   78501      24   78507   78501      24   78507   78504      25
   78513   78510      24   78516   78510      24   78516   78513      25   78522
   78519      24   78525   78519      24   78525   78522      25   78531   78528
      24   78534   78528      24   78534   78531      25   78540   78537      24
   78543   78537      24   78543   78540      25   78549   78546      24   78552
   78546      24   78552   78549      25   78558   78555      24   78561   78555
      24   78561   78558      25   78567   78564      24   78570   78564      24
   78570   78567      25   78576   78573      24   78579   78573      24   78579
   78576      25   78585   78582      24   78588   78582      24   78588   78585
      25   78594   78591      24   78597   78591      24   78597   78594      25
   78603   78600      24   78606   78600      24   78606   78603      25   78612
   78609      24   78615   78609      24   78615   78612      25   78621   78618
      24   78624   78618      24   78624   78621      25   78630   78627      24
   78633   78627      24   78633   78630      25   78639   78636      24   78642
   78636      24   78642   78639      25   78648   78645      24   78651   78645
      24   78651   78648      25   78657   78654      24   78660   78654      24
   78660   78657      25   78666   78663      24   78669   78663      24   78669
   78666      25   78675   78672      24   78678   78672      24   78678   78675
      25   78684   78681      24   78687   78681      24   78687   78684      25
   78693   78690      24   78696   78690      24   78696   78693      25   78702
   78699      24   78705   78699      24   78705   78702      25   78711   78708
      24   78714   78708      24   78714   78711      25   78720   78717      24
   78723   78717      24   78723   78720      25   78729   78726      24   78732
   78726      24   78732   78729      25   78738   78735      24   78741   78735
      24   78741   78738      25   78747   78744      24   78750   78744      24
   78750   78747      25   78756   78753      24   78759   78753      24   78759
   78756      25   78765   78762      24   78768   78762      24   78768   78765
      25   78774   78771      24   78777   78771      24   78777   78774      25
   78783   78780      24   78786   78780      24   78786   78783      25   78792
   78789      24   78795   78789      24   78795   78792      25   78801   78798
      24   78804   78798      24   78804   78801      25   78810   78807      24
   78813   78807      24   78813   78810      25   78819   78816      24   78822
   78816      24   78822   78819      25   78828   78825      24   78831   78825
      24   78831   78828      25   78837   78834      24   78840   78834      24
   78840   78837      25   78846   78843      24   78849   78843      24   78849
   78846      25   78855   78852      24   78858   78852      24   78858   78855
      25   78864   78861      24   78867   78861      24   78867   78864      25
   78873   78870      24   78876   78870      24   78876   78873      25   78882
   78879      24   78885   78879      24   78885   78882      25   78891   78888
      24   78894   78888      24   78894   78891      25   78900   78897      24
   78903   78897      24   78903   78900      25   78909   78906      24   78912
   78906      24   78912   78909      25   78918   78915      24   78921   78915
      24   78921   78918      25   78927   78924      24   78930   78924      24
   78930   78927      25   78936   78933      24   78939   78933      24   78939
   78936      25   78945   78942      24   78948   78942      24   78948   78945
      25   78954   78951      24   78957   78951      24   78957   78954      25
   78963   78960      24   78966   78960      24   78966   78963      25   78972
   78969      24   78975   78969      24   78975   78972      25   78981   78978
      24   78984   78978      24   78984   78981      25   78990   78987      24
   78993   78987      24   78993   78990      25   78999   78996      24   79002
   78996      24   79002   78999      25   79008   79005      24   79011   79005
      24   79011   79008      25   79017   79014      24   79020   79014      24
   79020   79017      25   79026   79023      24   79029   79023      24   79029
   79026      25   79035   79032      24   79038   79032      24   79038   79035
      25   79044   79041      24   79047   79041      24   79047   79044      25
   79053   79050      24   79056   79050      24   79056   79053      25   79062
   79059      24   79065   79059      24   79065   79062      25   79071   79068
      24   79074   79068      24   79074   79071      25   79080   79077      24
   79083   79077      24   79083   79080      25   79089   79086      24   79092
   79086      24   79092   79089      25   79098   79095      24   79101   79095
      24   79101   79098      25   79107   79104      24   79110   79104      24
   79110   79107      25   79116   79113      24   79119   79113      24   79119
   79116      25   79125   79122      24   79128   79122      24   79128   79125
      25   79134   79131      24   79137   79131      24   79137   79134      25
   79143   79140      24   79146   79140      24   79146   79143      25   79152
   79149      24   79155   79149      24   79155   79152      25   79161   79158
      24   79164   79158      24   79164   79161      25   79170   79167      24
   79173   79167      24   79173   79170      25   79179   79176      24   79182
   79176      24   79182   79179      25   79188   79185      24   79191   79185
      24   79191   79188      25   79197   79194      24   79200   79194      24
   79200   79197      25   79206   79203      24   79209   79203      24   79209
   79206      25   79215   79212      24   79218   79212      24   79218   79215
      25   79224   79221      24   79227   79221      24   79227   79224      25
   79233   79230      24   79236   79230      24   79236   79233      25   79242
   79239      24   79245   79239      24   79245   79242      25   79251   79248
      24   79254   79248      24   79254   79251      25   79260   79257      24
   79263   79257      24   79263   79260      25   79269   79266      24   79272
   79266      24   79272   79269      25   79278   79275      24   79281   79275
      24   79281   79278      25   79287   79284      24   79290   79284      24
   79290   79287      25   79296   79293      24   79299   79293      24   79299
   79296      25   79305   79302      24   79308   79302      24   79308   79305
      25   79314   79311      24   79317   79311      24   79317   79314      25
   79323   79320      24   79326   79320      24   79326   79323      25   79332
   79329      24   79335   79329      24   79335   79332      25   79341   79338
      24   79344   79338      24   79344   79341      25   79350   79347      24
   79353   79347      24   79353   79350      25   79359   79356      24   79362
   79356      24   79362   79359      25   79368   79365      24   79371   79365
      24   79371   79368      25   79377   79374      24   79380   79374      24
   79380   79377      25   79386   79383      24   79389   79383      24   79389
   79386      25   79395   79392      24   79398   79392      24   79398   79395
      25   79404   79401      24   79407   79401      24   79407   79404      25
   79413   79410      24   79416   79410      24   79416   79413      25   79422
   79419      24   79425   79419      24   79425   79422      25   79431   79428
      24   79434   79428      24   79434   79431      25   79440   79437      24
   79443   79437      24   79443   79440      25   79449   79446      24   79452
   79446      24   79452   79449      25   79458   79455      24   79461   79455
      24   79461   79458      25   79467   79464      24   79470   79464      24
   79470   79467      25   79476   79473      24   79479   79473      24   79479
   79476      25   79485   79482      24   79488   79482      24   79488   79485
      25   79494   79491      24   79497   79491      24   79497   79494      25
   79503   79500      24   79506   79500      24   79506   79503      25   79512
   79509      24   79515   79509      24   79515   79512      25   79521   79518
      24   79524   79518      24   79524   79521      25   79530   79527      24
   79533   79527      24   79533   79530      25   79539   79536      24   79542
   79536      24   79542   79539      25   79548   79545      24   79551   79545
      24   79551   79548      25   79557   79554      24   79560   79554      24
   79560   79557      25   79566   79563      24   79569   79563      24   79569
   79566      25   79575   79572      24   79578   79572      24   79578   79575
      25   79584   79581      24   79587   79581      24   79587   79584      25
   79593   79590      24   79596   79590      24   79596   79593      25   79602
   79599      24   79605   79599      24   79605   79602      25   79611   79608
      24   79614   79608      24   79614   79611      25   79620   79617      24
   79623   79617      24   79623   79620      25   79629   79626      24   79632
   79626      24   79632   79629      25   79638   79635      24   79641   79635
      24   79641   79638      25   79647   79644      24   79650   79644      24
   79650   79647      25   79656   79653      24   79659   79653      24   79659
   79656      25   79665   79662      24   79668   79662      24   79668   79665
      25   79674   79671      24   79677   79671      24   79677   79674      25
   79683   79680      24   79686   79680      24   79686   79683      25   79692
   79689      24   79695   79689      24   79695   79692      25   79701   79698
      24   79704   79698      24   79704   79701      25   79710   79707      24
   79713   79707      24   79713   79710      25   79719   79716      24   79722
   79716      24   79722   79719      25   79728   79725      24   79731   79725
      24   79731   79728      25   79737   79734      24   79740   79734      24
   79740   79737      25   79746   79743      24   79749   79743      24   79749
   79746      25   79755   79752      24   79758   79752      24   79758   79755
      25   79764   79761      24   79767   79761      24   79767   79764      25
   79773   79770      24   79776   79770      24   79776   79773      25   79782
   79779      24   79785   79779      24   79785   79782      25   79791   79788
      24   79794   79788      24   79794   79791      25   79800   79797      24
   79803   79797      24   79803   79800      25   79809   79806      24   79812
   79806      24   79812   79809      25   79818   79815      24   79821   79815
      24   79821   79818      25   79827   79824      24   79830   79824      24
   79830   79827      25   79836   79833      24   79839   79833      24   79839
   79836      25   79845   79842      24   79848   79842      24   79848   79845
      25   79854   79851      24   79857   79851      24   79857   79854      25
   79863   79860      24   79866   79860      24   79866   79863      25   79872
   79869      24   79875   79869      24   79875   79872      25   79881   79878
      24   79884   79878      24   79884   79881      25   79890   79887      24
   79893   79887      24   79893   79890      25   79899   79896      24   79902
   79896      24   79902   79899      25   79908   79905      24   79911   79905
      24   79911   79908      25   79917   79914      24   79920   79914      24
   79920   79917      25   79926   79923      24   79929   79923      24   79929
   79926      25   79935   79932      24   79938   79932      24   79938   79935
      25   79944   79941      24   79947   79941      24   79947   79944      25
   79953   79950      24   79956   79950      24   79956   79953      25   79962
   79959      24   79965   79959      24   79965   79962      25   79971   79968
      24   79974   79968      24   79974   79971      25   79980   79977      24
   79983   79977      24   79983   79980      25   79989   79986      24   79992
   79986      24   79992   79989      25   79998   79995      24   80001   79995
      24   80001   79998      25   80007   80004      24   80010   80004      24
   80010   80007      25   80016   80013      24   80019   80013      24   80019
   80016      25   80025   80022      24   80028   80022      24   80028   80025
      25   80034   80031      24   80037   80031      24   80037   80034      25
   80043   80040      24   80046   80040      24   80046   80043      25   80052
   80049      24   80055   80049      24   80055   80052      25   80061   80058
      24   80064   80058      24   80064   80061      25   80070   80067      24
   80073   80067      24   80073   80070      25   80079   80076      24   80082
   80076      24   80082   80079      25   80088   80085      24   80091   80085
      24   80091   80088      25   80097   80094      24   80100   80094      24
   80100   80097      25   80106   80103      24   80109   80103      24   80109
   80106      25   80115   80112      24   80118   80112      24   80118   80115
      25   80124   80121      24   80127   80121      24   80127   80124      25
   80133   80130      24   80136   80130      24   80136   80133      25   80142
   80139      24   80145   80139      24   80145   80142      25   80151   80148
      24   80154   80148      24   80154   80151      25   80160   80157      24
   80163   80157      24   80163   80160      25   80169   80166      24   80172
   80166      24   80172   80169      25   80178   80175      24   80181   80175
      24   80181   80178      25   80187   80184      24   80190   80184      24
   80190   80187      25   80196   80193      24   80199   80193      24   80199
   80196      25   80205   80202      24   80208   80202      24   80208   80205
      25   80214   80211      24   80217   80211      24   80217   80214      25
   80223   80220      24   80226   80220      24   80226   80223      25   80232
   80229      24   80235   80229      24   80235   80232      25   80241   80238
      24   80244   80238      24   80244   80241      25   80250   80247      24
   80253   80247      24   80253   80250      25   80259   80256      24   80262
   80256      24   80262   80259      25   80268   80265      24   80271   80265
      24   80271   80268      25   80277   80274      24   80280   80274      24
   80280   80277      25   80286   80283      24   80289   80283      24   80289
   80286      25   80295   80292      24   80298   80292      24   80298   80295
      25   80304   80301      24   80307   80301      24   80307   80304      25
   80313   80310      24   80316   80310      24   80316   80313      25   80322
   80319      24   80325   80319      24   80325   80322      25   80331   80328
      24   80334   80328      24   80334   80331      25   80340   80337      24
   80343   80337      24   80343   80340      25   80349   80346      24   80352
   80346      24   80352   80349      25   80358   80355      24   80361   80355
      24   80361   80358      25   80367   80364      24   80370   80364      24
   80370   80367      25   80376   80373      24   80379   80373      24   80379
   80376      25   80385   80382      24   80388   80382      24   80388   80385
      25   80394   80391      24   80397   80391      24   80397   80394      25
   80403   80400      24   80406   80400      24   80406   80403      25   80412
   80409      24   80415   80409      24   80415   80412      25   80421   80418
      24   80424   80418      24   80424   80421      25   80430   80427      24
   80433   80427      24   80433   80430      25   80439   80436      24   80442
   80436      24   80442   80439      25   80448   80445      24   80451   80445
      24   80451   80448      25   80457   80454      24   80460   80454      24
   80460   80457      25   80466   80463      24   80469   80463      24   80469
   80466      25   80475   80472      24   80478   80472      24   80478   80475
      25   80484   80481      24   80487   80481      24   80487   80484      25
   80493   80490      24   80496   80490      24   80496   80493      25   80502
   80499      24   80505   80499      24   80505   80502      25   80511   80508
      24   80514   80508      24   80514   80511      25   80520   80517      24
   80523   80517      24   80523   80520      25   80529   80526      24   80532
   80526      24   80532   80529      25   80538   80535      24   80541   80535
      24   80541   80538      25   80547   80544      24   80550   80544      24
   80550   80547      25   80556   80553      24   80559   80553      24   80559
   80556      25   80565   80562      24   80568   80562      24   80568   80565
      25   80574   80571      24   80577   80571      24   80577   80574      25
   80583   80580      24   80586   80580      24   80586   80583      25   80592
   80589      24   80595   80589      24   80595   80592      25   80601   80598
      24   80604   80598      24   80604   80601      25   80610   80607      24
   80613   80607      24   80613   80610      25   80619   80616      24   80622
   80616      24   80622   80619      25   80628   80625      24   80631   80625
      24   80631   80628      25   80637   80634      24   80640   80634      24
   80640   80637      25   80646   80643      24   80649   80643      24   80649
   80646      25   80655   80652      24   80658   80652      24   80658   80655
      25   80664   80661      24   80667   80661      24   80667   80664      25
   80673   80670      24   80676   80670      24   80676   80673      25   80682
   80679      24   80685   80679      24   80685   80682      25   80691   80688
      24   80694   80688      24   80694   80691      25   80700   80697      24
   80703   80697      24   80703   80700      25   80709   80706      24   80712
   80706      24   80712   80709      25   80718   80715      24   80721   80715
      24   80721   80718      25   80727   80724      24   80730   80724      24
   80730   80727      25   80736   80733      24   80739   80733      24   80739
   80736      25   80745   80742      24   80748   80742      24   80748   80745
      25   80754   80751      24   80757   80751      24   80757   80754      25
   80763   80760      24   80766   80760      24   80766   80763      25   80772
   80769      24   80775   80769      24   80775   80772      25   80781   80778
      24   80784   80778      24   80784   80781      25   80790   80787      24
   80793   80787      24   80793   80790      25   80799   80796      24   80802
   80796      24   80802   80799      25   80808   80805      24   80811   80805
      24   80811   80808      25   80817   80814      24   80820   80814      24
   80820   80817      25   80826   80823      24   80829   80823      24   80829
   80826      25   80835   80832      24   80838   80832      24   80838   80835
      25   80844   80841      24   80847   80841      24   80847   80844      25
   80853   80850      24   80856   80850      24   80856   80853      25   80862
   80859      24   80865   80859      24   80865   80862      25   80871   80868
      24   80874   80868      24   80874   80871      25   80880   80877      24
   80883   80877      24   80883   80880      25   80889   80886      24   80892
   80886      24   80892   80889      25   80898   80895      24   80901   80895
      24   80901   80898      25   80907   80904      24   80910   80904      24
   80910   80907      25   80916   80913      24   80919   80913      24   80919
   80916      25   80925   80922      24   80928   80922      24   80928   80925
      25   80934   80931      24   80937   80931      24   80937   80934      25
   80943   80940      24   80946   80940      24   80946   80943      25   80952
   80949      24   80955   80949      24   80955   80952      25   80961   80958
      24   80964   80958      24   80964   80961      25   80970   80967      24
   80973   80967      24   80973   80970      25   80979   80976      24   80982
   80976      24   80982   80979      25   80988   80985      24   80991   80985
      24   80991   80988      25   80997   80994      24   81000   80994      24
   81000   80997      25   81006   81003      24   81009   81003      24   81009
   81006      25   81015   81012      24   81018   81012      24   81018   81015
      25   81024   81021      24   81027   81021      24   81027   81024      25
   81033   81030      24   81036   81030      24   81036   81033      25   81042
   81039      24   81045   81039      24   81045   81042      25   81051   81048
      24   81054   81048      24   81054   81051      25   81060   81057      24
   81063   81057      24   81063   81060      25   81069   81066      24   81072
   81066      24   81072   81069      25   81078   81075      24   81081   81075
      24   81081   81078      25   81087   81084      24   81090   81084      24
   81090   81087      25   81096   81093      24   81099   81093      24   81099
   81096      25   81105   81102      24   81108   81102      24   81108   81105
      25   81114   81111      24   81117   81111      24   81117   81114      25
   81123   81120      24   81126   81120      24   81126   81123      25   81132
   81129      24   81135   81129      24   81135   81132      25   81141   81138
      24   81144   81138      24   81144   81141      25   81150   81147      24
   81153   81147      24   81153   81150      25   81159   81156      24   81162
   81156      24   81162   81159      25   81168   81165      24   81171   81165
      24   81171   81168      25   81177   81174      24   81180   81174      24
   81180   81177      25   81186   81183      24   81189   81183      24   81189
   81186      25   81195   81192      24   81198   81192      24   81198   81195
      25   81204   81201      24   81207   81201      24   81207   81204      25
   81213   81210      24   81216   81210      24   81216   81213      25   81222
   81219      24   81225   81219      24   81225   81222      25   81231   81228
      24   81234   81228      24   81234   81231      25   81240   81237      24
   81243   81237      24   81243   81240      25   81249   81246      24   81252
   81246      24   81252   81249      25   81258   81255      24   81261   81255
      24   81261   81258      25   81267   81264      24   81270   81264      24
   81270   81267      25   81276   81273      24   81279   81273      24   81279
   81276      25   81285   81282      24   81288   81282      24   81288   81285
      25   81294   81291      24   81297   81291      24   81297   81294      25
   81303   81300      24   81306   81300      24   81306   81303      25   81312
   81309      24   81315   81309      24   81315   81312      25   81321   81318
      24   81324   81318      24   81324   81321      25   81330   81327      24
   81333   81327      24   81333   81330      25   81339   81336      24   81342
   81336      24   81342   81339      25   81348   81345      24   81351   81345
      24   81351   81348      25   81357   81354      24   81360   81354      24
   81360   81357      25   81366   81363      24   81369   81363      24   81369
   81366      25   81375   81372      24   81378   81372      24   81378   81375
      25   81384   81381      24   81387   81381      24   81387   81384      25
   81393   81390      24   81396   81390      24   81396   81393      25   81402
   81399      24   81405   81399      24   81405   81402      25   81411   81408
      24   81414   81408      24   81414   81411      25   81420   81417      24
   81423   81417      24   81423   81420      25   81429   81426      24   81432
   81426      24   81432   81429      25   81438   81435      24   81441   81435
      24   81441   81438      25   81447   81444      24   81450   81444      24
   81450   81447      25   81456   81453      24   81459   81453      24   81459
   81456      25   81465   81462      24   81468   81462      24   81468   81465
      25   81474   81471      24   81477   81471      24   81477   81474      25
   81483   81480      24   81486   81480      24   81486   81483      25   81492
   81489      24   81495   81489      24   81495   81492      25   81501   81498
      24   81504   81498      24   81504   81501      25   81510   81507      24
   81513   81507      24   81513   81510      25   81519   81516      24   81522
   81516      24   81522   81519      25   81528   81525      24   81531   81525
      24   81531   81528      25   81537   81534      24   81540   81534      24
   81540   81537      25   81546   81543      24   81549   81543      24   81549
   81546      25   81555   81552      24   81558   81552      24   81558   81555
      25   81564   81561      24   81567   81561      24   81567   81564      25
   81573   81570      24   81576   81570      24   81576   81573      25   81582
   81579      24   81585   81579      24   81585   81582      25   81591   81588
      24   81594   81588      24   81594   81591      25   81600   81597      24
   81603   81597      24   81603   81600      25   81609   81606      24   81612
   81606      24   81612   81609      25   81618   81615      24   81621   81615
      24   81621   81618      25   81627   81624      24   81630   81624      24
   81630   81627      25   81636   81633      24   81639   81633      24   81639
   81636      25   81645   81642      24   81648   81642      24   81648   81645
      25   81654   81651      24   81657   81651      24   81657   81654      25
   81663   81660      24   81666   81660      24   81666   81663      25   81672
   81669      24   81675   81669      24   81675   81672      25   81681   81678
      24   81684   81678      24   81684   81681      25   81690   81687      24
   81693   81687      24   81693   81690      25   81699   81696      24   81702
   81696      24   81702   81699      25   81708   81705      24   81711   81705
      24   81711   81708      25   81717   81714      24   81720   81714      24
   81720   81717      25   81726   81723      24   81729   81723      24   81729
   81726      25   81735   81732      24   81738   81732      24   81738   81735
      25   81744   81741      24   81747   81741      24   81747   81744      25
   81753   81750      24   81756   81750      24   81756   81753      25   81762
   81759      24   81765   81759      24   81765   81762      25   81771   81768
      24   81774   81768      24   81774   81771      25   81780   81777      24
   81783   81777      24   81783   81780      25   81789   81786      24   81792
   81786      24   81792   81789      25   81798   81795      24   81801   81795
      24   81801   81798      25   81807   81804      24   81810   81804      24
   81810   81807      25   81816   81813      24   81819   81813      24   81819
   81816      25   81825   81822      24   81828   81822      24   81828   81825
      25   81834   81831      24   81837   81831      24   81837   81834      25
   81843   81840      24   81846   81840      24   81846   81843      25   81852
   81849      24   81855   81849      24   81855   81852      25   81861   81858
      24   81864   81858      24   81864   81861      25   81870   81867      24
   81873   81867      24   81873   81870      25   81879   81876      24   81882
   81876      24   81882   81879      25   81888   81885      24   81891   81885
      24   81891   81888      25   81897   81894      24   81900   81894      24
   81900   81897      25   81906   81903      24   81909   81903      24   81909
   81906      25   81915   81912      24   81918   81912      24   81918   81915
      25   81924   81921      24   81927   81921      24   81927   81924      25
   81933   81930      24   81936   81930      24   81936   81933      25   81942
   81939      24   81945   81939      24   81945   81942      25   81951   81948
      24   81954   81948      24   81954   81951      25   81960   81957      24
   81963   81957      24   81963   81960      25   81969   81966      24   81972
   81966      24   81972   81969      25   81978   81975      24   81981   81975
      24   81981   81978      25   81987   81984      24   81990   81984      24
   81990   81987      25   81996   81993      24   81999   81993      24   81999
   81996      25   82005   82002      24   82008   82002      24   82008   82005
      25   82014   82011      24   82017   82011      24   82017   82014      25
   82023   82020      24   82026   82020      24   82026   82023      25   82032
   82029      24   82035   82029      24   82035   82032      25   82041   82038
      24   82044   82038      24   82044   82041      25   82050   82047      24
   82053   82047      24   82053   82050      25   82059   82056      24   82062
   82056      24   82062   82059      25   82068   82065      24   82071   82065
      24   82071   82068      25   82077   82074      24   82080   82074      24
   82080   82077      25   82086   82083      24   82089   82083      24   82089
   82086      25   82095   82092      24   82098   82092      24   82098   82095
      25   82104   82101      24   82107   82101      24   82107   82104      25
   82113   82110      24   82116   82110      24   82116   82113      25   82122
   82119      24   82125   82119      24   82125   82122      25   82131   82128
      24   82134   82128      24   82134   82131      25   82140   82137      24
   82143   82137      24   82143   82140      25   82149   82146      24   82152
   82146      24   82152   82149      25   82158   82155      24   82161   82155
      24   82161   82158      25   82167   82164      24   82170   82164      24
   82170   82167      25   82176   82173      24   82179   82173      24   82179
   82176      25   82185   82182      24   82188   82182      24   82188   82185
      25   82194   82191      24   82197   82191      24   82197   82194      25
   82203   82200      24   82206   82200      24   82206   82203      25   82212
   82209      24   82215   82209      24   82215   82212      25   82221   82218
      24   82224   82218      24   82224   82221      25   82230   82227      24
   82233   82227      24   82233   82230      25   82239   82236      24   82242
   82236      24   82242   82239      25   82248   82245      24   82251   82245
      24   82251   82248      25   82257   82254      24   82260   82254      24
   82260   82257      25   82266   82263      24   82269   82263      24   82269
   82266      25   82275   82272      24   82278   82272      24   82278   82275
      25   82284   82281      24   82287   82281      24   82287   82284      25
   82293   82290      24   82296   82290      24   82296   82293      25   82302
   82299      24   82305   82299      24   82305   82302      25   82311   82308
      24   82314   82308      24   82314   82311      25   82320   82317      24
   82323   82317      24   82323   82320      25   82329   82326      24   82332
   82326      24   82332   82329      25   82338   82335      24   82341   82335
      24   82341   82338      25   82347   82344      24   82350   82344      24
   82350   82347      25   82356   82353      24   82359   82353      24   82359
   82356      25   82365   82362      24   82368   82362      24   82368   82365
      25   82374   82371      24   82377   82371      24   82377   82374      25
   82383   82380      24   82386   82380      24   82386   82383      25   82392
   82389      24   82395   82389      24   82395   82392      25   82401   82398
      24   82404   82398      24   82404   82401      25   82410   82407      24
   82413   82407      24   82413   82410      25   82419   82416      24   82422
   82416      24   82422   82419      25   82428   82425      24   82431   82425
      24   82431   82428      25   82437   82434      24   82440   82434      24
   82440   82437      25   82446   82443      24   82449   82443      24   82449
   82446      25   82455   82452      24   82458   82452      24   82458   82455
      25   82464   82461      24   82467   82461      24   82467   82464      25
   82473   82470      24   82476   82470      24   82476   82473      25   82482
   82479      24   82485   82479      24   82485   82482      25   82491   82488
      24   82494   82488      24   82494   82491      25   82500   82497      24
   82503   82497      24   82503   82500      25   82509   82506      24   82512
   82506      24   82512   82509      25   82518   82515      24   82521   82515
      24   82521   82518      25   82527   82524      24   82530   82524      24
   82530   82527      25   82536   82533      24   82539   82533      24   82539
   82536      25   82545   82542      24   82548   82542      24   82548   82545
      25   82554   82551      24   82557   82551      24   82557   82554      25
   82563   82560      24   82566   82560      24   82566   82563      25   82572
   82569      24   82575   82569      24   82575   82572      25   82581   82578
      24   82584   82578      24   82584   82581      25   82590   82587      24
   82593   82587      24   82593   82590      25   82599   82596      24   82602
   82596      24   82602   82599      25   82608   82605      24   82611   82605
      24   82611   82608      25   82617   82614      24   82620   82614      24
   82620   82617      25   82626   82623      24   82629   82623      24   82629
   82626      25   82635   82632      24   82638   82632      24   82638   82635
      25   82644   82641      24   82647   82641      24   82647   82644      25
   82653   82650      24   82656   82650      24   82656   82653      25   82662
   82659      24   82665   82659      24   82665   82662      25   82671   82668
      24   82674   82668      24   82674   82671      25   82680   82677      24
   82683   82677      24   82683   82680      25   82689   82686      24   82692
   82686      24   82692   82689      25   82698   82695      24   82701   82695
      24   82701   82698      25   82707   82704      24   82710   82704      24
   82710   82707      25   82716   82713      24   82719   82713      24   82719
   82716      25   82725   82722      24   82728   82722      24   82728   82725
      25   82734   82731      24   82737   82731      24   82737   82734      25
   82743   82740      24   82746   82740      24   82746   82743      25   82752
   82749      24   82755   82749      24   82755   82752      25   82761   82758
      24   82764   82758      24   82764   82761      25   82770   82767      24
   82773   82767      24   82773   82770      25   82779   82776      24   82782
   82776      24   82782   82779      25   82788   82785      24   82791   82785
      24   82791   82788      25   82797   82794      24   82800   82794      24
   82800   82797      25   82806   82803      24   82809   82803      24   82809
   82806      25   82815   82812      24   82818   82812      24   82818   82815
      25   82824   82821      24   82827   82821      24   82827   82824      25
   82833   82830      24   82836   82830      24   82836   82833      25   82842
   82839      24   82845   82839      24   82845   82842      25   82851   82848
      24   82854   82848      24   82854   82851      25   82860   82857      24
   82863   82857      24   82863   82860      25   82869   82866      24   82872
   82866      24   82872   82869      25   82878   82875      24   82881   82875
      24   82881   82878      25   82887   82884      24   82890   82884      24
   82890   82887      25   82896   82893      24   82899   82893      24   82899
   82896      25   82905   82902      24   82908   82902      24   82908   82905
      25   82914   82911      24   82917   82911      24   82917   82914      25
   82923   82920      24   82926   82920      24   82926   82923      25   82932
   82929      24   82935   82929      24   82935   82932      25   82941   82938
      24   82944   82938      24   82944   82941      25   82950   82947      24
   82953   82947      24   82953   82950      25   82959   82956      24   82962
   82956      24   82962   82959      25   82968   82965      24   82971   82965
      24   82971   82968      25   82977   82974      24   82980   82974      24
   82980   82977      25   82986   82983      24   82989   82983      24   82989
   82986      25   82995   82992      24   82998   82992      24   82998   82995
      25   83004   83001      24   83007   83001      24   83007   83004      25
   83013   83010      24   83016   83010      24   83016   83013      25   83022
   83019      24   83025   83019      24   83025   83022      25   83031   83028
      24   83034   83028      24   83034   83031      25   83040   83037      24
   83043   83037      24   83043   83040      25   83049   83046      24   83052
   83046      24   83052   83049      25   83058   83055      24   83061   83055
      24   83061   83058      25   83067   83064      24   83070   83064      24
   83070   83067      25   83076   83073      24   83079   83073      24   83079
   83076      25   83085   83082      24   83088   83082      24   83088   83085
      25   83094   83091      24   83097   83091      24   83097   83094      25
   83103   83100      24   83106   83100      24   83106   83103      25   83112
   83109      24   83115   83109      24   83115   83112      25   83121   83118
      24   83124   83118      24   83124   83121      25   83130   83127      24
   83133   83127      24   83133   83130      25   83139   83136      24   83142
   83136      24   83142   83139      25   83148   83145      24   83151   83145
      24   83151   83148      25   83157   83154      24   83160   83154      24
   83160   83157      25   83166   83163      24   83169   83163      24   83169
   83166      25   83175   83172      24   83178   83172      24   83178   83175
      25   83184   83181      24   83187   83181      24   83187   83184      25
   83193   83190      24   83196   83190      24   83196   83193      25   83202
   83199      24   83205   83199      24   83205   83202      25   83211   83208
      24   83214   83208      24   83214   83211      25   83220   83217      24
   83223   83217      24   83223   83220      25   83229   83226      24   83232
   83226      24   83232   83229      25   83238   83235      24   83241   83235
      24   83241   83238      25   83247   83244      24   83250   83244      24
   83250   83247      25   83256   83253      24   83259   83253      24   83259
   83256      25   83265   83262      24   83268   83262      24   83268   83265
      25   83274   83271      24   83277   83271      24   83277   83274      25
   83283   83280      24   83286   83280      24   83286   83283      25   83292
   83289      24   83295   83289      24   83295   83292      25   83301   83298
      24   83304   83298      24   83304   83301      25   83310   83307      24
   83313   83307      24   83313   83310      25   83319   83316      24   83322
   83316      24   83322   83319      25   83328   83325      24   83331   83325
      24   83331   83328      25   83337   83334      24   83340   83334      24
   83340   83337      25   83346   83343      24   83349   83343      24   83349
   83346      25   83355   83352      24   83358   83352      24   83358   83355
      25   83364   83361      24   83367   83361      24   83367   83364      25
   83373   83370      24   83376   83370      24   83376   83373      25   83382
   83379      24   83385   83379      24   83385   83382      25   83391   83388
      24   83394   83388      24   83394   83391      25   83400   83397      24
   83403   83397      24   83403   83400      25   83409   83406      24   83412
   83406      24   83412   83409      25   83418   83415      24   83421   83415
      24   83421   83418      25   83427   83424      24   83430   83424      24
   83430   83427      25   83436   83433      24   83439   83433      24   83439
   83436      25   83445   83442      24   83448   83442      24   83448   83445
      25   83454   83451      24   83457   83451      24   83457   83454      25
   83463   83460      24   83466   83460      24   83466   83463      25   83472
   83469      24   83475   83469      24   83475   83472      25   83481   83478
      24   83484   83478      24   83484   83481      25   83490   83487      24
   83493   83487      24   83493   83490      25   83499   83496      24   83502
   83496      24   83502   83499      25   83508   83505      24   83511   83505
      24   83511   83508      25   83517   83514      24   83520   83514      24
   83520   83517      25   83526   83523      24   83529   83523      24   83529
   83526      25   83535   83532      24   83538   83532      24   83538   83535
      25   83544   83541      24   83547   83541      24   83547   83544      25
   83553   83550      24   83556   83550      24   83556   83553      25   83562
   83559      24   83565   83559      24   83565   83562      25   83571   83568
      24   83574   83568      24   83574   83571      25   83580   83577      24
   83583   83577      24   83583   83580      25   83589   83586      24   83592
   83586      24   83592   83589      25   83598   83595      24   83601   83595
      24   83601   83598      25   83607   83604      24   83610   83604      24
   83610   83607      25   83616   83613      24   83619   83613      24   83619
   83616      25   83625   83622      24   83628   83622      24   83628   83625
      25   83634   83631      24   83637   83631      24   83637   83634      25
   83643   83640      24   83646   83640      24   83646   83643      25   83652
   83649      24   83655   83649      24   83655   83652      25   83661   83658
      24   83664   83658      24   83664   83661      25   83670   83667      24
   83673   83667      24   83673   83670      25   83679   83676      24   83682
   83676      24   83682   83679      25   83688   83685      24   83691   83685
      24   83691   83688      25   83697   83694      24   83700   83694      24
   83700   83697      25   83706   83703      24   83709   83703      24   83709
   83706      25   83715   83712      24   83718   83712      24   83718   83715
      25   83724   83721      24   83727   83721      24   83727   83724      25
   83733   83730      24   83736   83730      24   83736   83733      25   83742
   83739      24   83745   83739      24   83745   83742      25   83751   83748
      24   83754   83748      24   83754   83751      25   83760   83757      24
   83763   83757      24   83763   83760      25   83769   83766      24   83772
   83766      24   83772   83769      25   83778   83775      24   83781   83775
      24   83781   83778      25   83787   83784      24   83790   83784      24
   83790   83787      25   83796   83793      24   83799   83793      24   83799
   83796      25   83805   83802      24   83808   83802      24   83808   83805
      25   83814   83811      24   83817   83811      24   83817   83814      25
   83823   83820      24   83826   83820      24   83826   83823      25   83832
   83829      24   83835   83829      24   83835   83832      25   83841   83838
      24   83844   83838      24   83844   83841      25   83850   83847      24
   83853   83847      24   83853   83850      25   83859   83856      24   83862
   83856      24   83862   83859      25   83868   83865      24   83871   83865
      24   83871   83868      25   83877   83874      24   83880   83874      24
   83880   83877      25   83886   83883      24   83889   83883      24   83889
   83886      25   83895   83892      24   83898   83892      24   83898   83895
      25   83904   83901      24   83907   83901      24   83907   83904      25
   83913   83910      24   83916   83910      24   83916   83913      25   83922
   83919      24   83925   83919      24   83925   83922      25   83931   83928
      24   83934   83928      24   83934   83931      25   83940   83937      24
   83943   83937      24   83943   83940      25   83949   83946      24   83952
   83946      24   83952   83949      25   83958   83955      24   83961   83955
      24   83961   83958      25   83967   83964      24   83970   83964      24
   83970   83967      25   83976   83973      24   83979   83973      24   83979
   83976      25   83985   83982      24   83988   83982      24   83988   83985
      25   83994   83991      24   83997   83991      24   83997   83994      25
   84003   84000      24   84006   84000      24   84006   84003      25   84012
   84009      24   84015   84009      24   84015   84012      25   84021   84018
      24   84024   84018      24   84024   84021      25   84030   84027      24
   84033   84027      24   84033   84030      25   84039   84036      24   84042
   84036      24   84042   84039      25   84048   84045      24   84051   84045
      24   84051   84048      25   84057   84054      24   84060   84054      24
   84060   84057      25   84066   84063      24   84069   84063      24   84069
   84066      25   84075   84072      24   84078   84072      24   84078   84075
      25   84084   84081      24   84087   84081      24   84087   84084      25
   84093   84090      24   84096   84090      24   84096   84093      25   84102
   84099      24   84105   84099      24   84105   84102      25   84111   84108
      24   84114   84108      24   84114   84111      25   84120   84117      24
   84123   84117      24   84123   84120      25   84129   84126      24   84132
   84126      24   84132   84129      25   84138   84135      24   84141   84135
      24   84141   84138      25   84147   84144      24   84150   84144      24
   84150   84147      25   84156   84153      24   84159   84153      24   84159
   84156      25   84165   84162      24   84168   84162      24   84168   84165
      25   84174   84171      24   84177   84171      24   84177   84174      25
   84183   84180      24   84186   84180      24   84186   84183      25   84192
   84189      24   84195   84189      24   84195   84192      25   84201   84198
      24   84204   84198      24   84204   84201      25   84210   84207      24
   84213   84207      24   84213   84210      25   84219   84216      24   84222
   84216      24   84222   84219      25   84228   84225      24   84231   84225
      24   84231   84228      25   84237   84234      24   84240   84234      24
   84240   84237      25   84246   84243      24   84249   84243      24   84249
   84246      25   84255   84252      24   84258   84252      24   84258   84255
      25   84264   84261      24   84267   84261      24   84267   84264      25
   84273   84270      24   84276   84270      24   84276   84273      25   84282
   84279      24   84285   84279      24   84285   84282      25   84291   84288
      24   84294   84288      24   84294   84291      25   84300   84297      24
   84303   84297      24   84303   84300      25   84309   84306      24   84312
   84306      24   84312   84309      25   84318   84315      24   84321   84315
      24   84321   84318      25   84327   84324      24   84330   84324      24
   84330   84327      25   84336   84333      24   84339   84333      24   84339
   84336      25   84345   84342      24   84348   84342      24   84348   84345
      25   84354   84351      24   84357   84351      24   84357   84354      25
   84363   84360      24   84366   84360      24   84366   84363      25   84372
   84369      24   84375   84369      24   84375   84372      25   84381   84378
      24   84384   84378      24   84384   84381      25   84390   84387      24
   84393   84387      24   84393   84390      25   84399   84396      24   84402
   84396      24   84402   84399      25   84408   84405      24   84411   84405
      24   84411   84408      25   84417   84414      24   84420   84414      24
   84420   84417      25   84426   84423      24   84429   84423      24   84429
   84426      25   84435   84432      24   84438   84432      24   84438   84435
      25   84444   84441      24   84447   84441      24   84447   84444      25
   84453   84450      24   84456   84450      24   84456   84453      25   84462
   84459      24   84465   84459      24   84465   84462      25   84471   84468
      24   84474   84468      24   84474   84471      25   84480   84477      24
   84483   84477      24   84483   84480      25   84489   84486      24   84492
   84486      24   84492   84489      25   84498   84495      24   84501   84495
      24   84501   84498      25   84507   84504      24   84510   84504      24
   84510   84507      25   84516   84513      24   84519   84513      24   84519
   84516      25   84525   84522      24   84528   84522      24   84528   84525
      25   84534   84531      24   84537   84531      24   84537   84534      25
   84543   84540      24   84546   84540      24   84546   84543      25   84552
   84549      24   84555   84549      24   84555   84552      25   84561   84558
      24   84564   84558      24   84564   84561      25   84570   84567      24
   84573   84567      24   84573   84570      25   84579   84576      24   84582
   84576      24   84582   84579      25   84588   84585      24   84591   84585
      24   84591   84588      25   84597   84594      24   84600   84594      24
   84600   84597      25   84606   84603      24   84609   84603      24   84609
   84606      25   84615   84612      24   84618   84612      24   84618   84615
      25   84624   84621      24   84627   84621      24   84627   84624      25
   84633   84630      24   84636   84630      24   84636   84633      25   84642
   84639      24   84645   84639      24   84645   84642      25   84651   84648
      24   84654   84648      24   84654   84651      25   84660   84657      24
   84663   84657      24   84663   84660      25   84669   84666      24   84672
   84666      24   84672   84669      25   84678   84675      24   84681   84675
      24   84681   84678      25   84687   84684      24   84690   84684      24
   84690   84687      25   84696   84693      24   84699   84693      24   84699
   84696      25   84705   84702      24   84708   84702      24   84708   84705
      25   84714   84711      24   84717   84711      24   84717   84714      25
   84723   84720      24   84726   84720      24   84726   84723      25   84732
   84729      24   84735   84729      24   84735   84732      25   84741   84738
      24   84744   84738      24   84744   84741      25   84750   84747      24
   84753   84747      24   84753   84750      25   84759   84756      24   84762
   84756      24   84762   84759      25   84768   84765      24   84771   84765
      24   84771   84768      25   84777   84774      24   84780   84774      24
   84780   84777      25   84786   84783      24   84789   84783      24   84789
   84786      25   84795   84792      24   84798   84792      24   84798   84795
      25   84804   84801      24   84807   84801      24   84807   84804      25
   84813   84810      24   84816   84810      24   84816   84813      25   84822
   84819      24   84825   84819      24   84825   84822      25   84831   84828
      24   84834   84828      24   84834   84831      25   84840   84837      24
   84843   84837      24   84843   84840      25   84849   84846      24   84852
   84846      24   84852   84849      25   84858   84855      24   84861   84855
      24   84861   84858      25   84867   84864      24   84870   84864      24
   84870   84867      25   84876   84873      24   84879   84873      24   84879
   84876      25   84885   84882      24   84888   84882      24   84888   84885
      25   84894   84891      24   84897   84891      24   84897   84894      25
   84903   84900      24   84906   84900      24   84906   84903      25   84912
   84909      24   84915   84909      24   84915   84912      25   84921   84918
      24   84924   84918      24   84924   84921      25   84930   84927      24
   84933   84927      24   84933   84930      25   84939   84936      24   84942
   84936      24   84942   84939      25   84948   84945      24   84951   84945
      24   84951   84948      25   84957   84954      24   84960   84954      24
   84960   84957      25   84966   84963      24   84969   84963      24   84969
   84966      25   84975   84972      24   84978   84972      24   84978   84975
      25   84984   84981      24   84987   84981      24   84987   84984      25
   84993   84990      24   84996   84990      24   84996   84993      25   85002
   84999      24   85005   84999      24   85005   85002      25   85011   85008
      24   85014   85008      24   85014   85011      25   85020   85017      24
   85023   85017      24   85023   85020      25   85029   85026      24   85032
   85026      24   85032   85029      25   85038   85035      24   85041   85035
      24   85041   85038      25   85047   85044      24   85050   85044      24
   85050   85047      25   85056   85053      24   85059   85053      24   85059
   85056      25   85065   85062      24   85068   85062      24   85068   85065
      25   85074   85071      24   85077   85071      24   85077   85074      25
   85083   85080      24   85086   85080      24   85086   85083      25   85092
   85089      24   85095   85089      24   85095   85092      25   85101   85098
      24   85104   85098      24   85104   85101      25   85110   85107      24
   85113   85107      24   85113   85110      25   85119   85116      24   85122
   85116      24   85122   85119      25   85128   85125      24   85131   85125
      24   85131   85128      25   85137   85134      24   85140   85134      24
   85140   85137      25   85146   85143      24   85149   85143      24   85149
   85146      25   85155   85152      24   85158   85152      24   85158   85155
      25   85164   85161      24   85167   85161      24   85167   85164      25
   85173   85170      24   85176   85170      24   85176   85173      25   85182
   85179      24   85185   85179      24   85185   85182      25   85191   85188
      24   85194   85188      24   85194   85191      25   85200   85197      24
   85203   85197      24   85203   85200      25   85209   85206      24   85212
   85206      24   85212   85209      25   85218   85215      24   85221   85215
      24   85221   85218      25   85227   85224      24   85230   85224      24
   85230   85227      25   85236   85233      24   85239   85233      24   85239
   85236      25   85245   85242      24   85248   85242      24   85248   85245
      25   85254   85251      24   85257   85251      24   85257   85254      25
   85263   85260      24   85266   85260      24   85266   85263      25   85272
   85269      24   85275   85269      24   85275   85272      25   85281   85278
      24   85284   85278      24   85284   85281      25   85290   85287      24
   85293   85287      24   85293   85290      25   85299   85296      24   85302
   85296      24   85302   85299      25   85308   85305      24   85311   85305
      24   85311   85308      25   85317   85314      24   85320   85314      24
   85320   85317      25   85326   85323      24   85329   85323      24   85329
   85326      25   85335   85332      24   85338   85332      24   85338   85335
      25   85344   85341      24   85347   85341      24   85347   85344      25
   85353   85350      24   85356   85350      24   85356   85353      25   85362
   85359      24   85365   85359      24   85365   85362      25   85371   85368
      24   85374   85368      24   85374   85371      25   85380   85377      24
   85383   85377      24   85383   85380      25   85389   85386      24   85392
   85386      24   85392   85389      25   85398   85395      24   85401   85395
      24   85401   85398      25   85407   85404      24   85410   85404      24
   85410   85407      25   85416   85413      24   85419   85413      24   85419
   85416      25   85425   85422      24   85428   85422      24   85428   85425
      25   85434   85431      24   85437   85431      24   85437   85434      25
   85443   85440      24   85446   85440      24   85446   85443      25   85452
   85449      24   85455   85449      24   85455   85452      25   85461   85458
      24   85464   85458      24   85464   85461      25   85470   85467      24
   85473   85467      24   85473   85470      25   85479   85476      24   85482
   85476      24   85482   85479      25   85488   85485      24   85491   85485
      24   85491   85488      25   85497   85494      24   85500   85494      24
   85500   85497      25   85506   85503      24   85509   85503      24   85509
   85506      25   85515   85512      24   85518   85512      24   85518   85515
      25   85524   85521      24   85527   85521      24   85527   85524      25
   85533   85530      24   85536   85530      24   85536   85533      25   85542
   85539      24   85545   85539      24   85545   85542      25   85551   85548
      24   85554   85548      24   85554   85551      25   85560   85557      24
   85563   85557      24   85563   85560      25   85569   85566      24   85572
   85566      24   85572   85569      25   85578   85575      24   85581   85575
      24   85581   85578      25   85587   85584      24   85590   85584      24
   85590   85587      25   85596   85593      24   85599   85593      24   85599
   85596      25   85605   85602      24   85608   85602      24   85608   85605
      25   85614   85611      24   85617   85611      24   85617   85614      25
   85623   85620      24   85626   85620      24   85626   85623      25   85632
   85629      24   85635   85629      24   85635   85632      25   85641   85638
      24   85644   85638      24   85644   85641      25   85650   85647      24
   85653   85647      24   85653   85650      25   85659   85656      24   85662
   85656      24   85662   85659      25   85668   85665      24   85671   85665
      24   85671   85668      25   85677   85674      24   85680   85674      24
   85680   85677      25   85686   85683      24   85689   85683      24   85689
   85686      25   85695   85692      24   85698   85692      24   85698   85695
      25   85704   85701      24   85707   85701      24   85707   85704      25
   85713   85710      24   85716   85710      24   85716   85713      25   85722
   85719      24   85725   85719      24   85725   85722      25   85731   85728
      24   85734   85728      24   85734   85731      25   85740   85737      24
   85743   85737      24   85743   85740      25   85749   85746      24   85752
   85746      24   85752   85749      25   85758   85755      24   85761   85755
      24   85761   85758      25   85767   85764      24   85770   85764      24
   85770   85767      25   85776   85773      24   85779   85773      24   85779
   85776      25   85785   85782      24   85788   85782      24   85788   85785
      25   85794   85791      24   85797   85791      24   85797   85794      25
   85803   85800      24   85806   85800      24   85806   85803      25   85812
   85809      24   85815   85809      24   85815   85812      25   85821   85818
      24   85824   85818      24   85824   85821      25   85830   85827      24
   85833   85827      24   85833   85830      25   85839   85836      24   85842
   85836      24   85842   85839      25   85848   85845      24   85851   85845
      24   85851   85848      25   85857   85854      24   85860   85854      24
   85860   85857      25   85866   85863      24   85869   85863      24   85869
   85866      25   85875   85872      24   85878   85872      24   85878   85875
      25   85884   85881      24   85887   85881      24   85887   85884      25
   85893   85890      24   85896   85890      24   85896   85893      25   85902
   85899      24   85905   85899      24   85905   85902      25   85911   85908
      24   85914   85908      24   85914   85911      25   85920   85917      24
   85923   85917      24   85923   85920      25   85929   85926      24   85932
   85926      24   85932   85929      25   85938   85935      24   85941   85935
      24   85941   85938      25   85947   85944      24   85950   85944      24
   85950   85947      25   85956   85953      24   85959   85953      24   85959
   85956      25   85965   85962      24   85968   85962      24   85968   85965
      25   85974   85971      24   85977   85971      24   85977   85974      25
   85983   85980      24   85986   85980      24   85986   85983      25   85992
   85989      24   85995   85989      24   85995   85992      25   86001   85998
      24   86004   85998      24   86004   86001      25   86010   86007      24
   86013   86007      24   86013   86010      25   86019   86016      24   86022
   86016      24   86022   86019      25   86028   86025      24   86031   86025
      24   86031   86028      25   86037   86034      24   86040   86034      24
   86040   86037      25   86046   86043      24   86049   86043      24   86049
   86046      25   86055   86052      24   86058   86052      24   86058   86055
      25   86064   86061      24   86067   86061      24   86067   86064      25
   86073   86070      24   86076   86070      24   86076   86073      25   86082
   86079      24   86085   86079      24   86085   86082      25   86091   86088
      24   86094   86088      24   86094   86091      25   86100   86097      24
   86103   86097      24   86103   86100      25   86109   86106      24   86112
   86106      24   86112   86109      25   86118   86115      24   86121   86115
      24   86121   86118      25   86127   86124      24   86130   86124      24
   86130   86127      25   86136   86133      24   86139   86133      24   86139
   86136      25   86145   86142      24   86148   86142      24   86148   86145
      25   86154   86151      24   86157   86151      24   86157   86154      25
   86163   86160      24   86166   86160      24   86166   86163      25   86172
   86169      24   86175   86169      24   86175   86172      25   86181   86178
      24   86184   86178      24   86184   86181      25   86190   86187      24
   86193   86187      24   86193   86190      25   86199   86196      24   86202
   86196      24   86202   86199      25   86208   86205      24   86211   86205
      24   86211   86208      25   86217   86214      24   86220   86214      24
   86220   86217      25   86226   86223      24   86229   86223      24   86229
   86226      25   86235   86232      24   86238   86232      24   86238   86235
      25   86244   86241      24   86247   86241      24   86247   86244      25
   86253   86250      24   86256   86250      24   86256   86253      25   86262
   86259      24   86265   86259      24   86265   86262      25   86271   86268
      24   86274   86268      24   86274   86271      25   86280   86277      24
   86283   86277      24   86283   86280      25   86289   86286      24   86292
   86286      24   86292   86289      25   86298   86295      24   86301   86295
      24   86301   86298      25   86307   86304      24   86310   86304      24
   86310   86307      25   86316   86313      24   86319   86313      24   86319
   86316      25   86325   86322      24   86328   86322      24   86328   86325
      25   86334   86331      24   86337   86331      24   86337   86334      25
   86343   86340      24   86346   86340      24   86346   86343      25   86352
   86349      24   86355   86349      24   86355   86352      25   86361   86358
      24   86364   86358      24   86364   86361      25   86370   86367      24
   86373   86367      24   86373   86370      25   86379   86376      24   86382
   86376      24   86382   86379      25   86388   86385      24   86391   86385
      24   86391   86388      25   86397   86394      24   86400   86394      24
   86400   86397      25   86406   86403      24   86409   86403      24   86409
   86406      25   86415   86412      24   86418   86412      24   86418   86415
      25   86424   86421      24   86427   86421      24   86427   86424      25
   86433   86430      24   86436   86430      24   86436   86433      25   86442
   86439      24   86445   86439      24   86445   86442      25   86451   86448
      24   86454   86448      24   86454   86451      25   86460   86457      24
   86463   86457      24   86463   86460      25   86469   86466      24   86472
   86466      24   86472   86469      25   86478   86475      24   86481   86475
      24   86481   86478      25   86487   86484      24   86490   86484      24
   86490   86487      25   86496   86493      24   86499   86493      24   86499
   86496      25   86505   86502      24   86508   86502      24   86508   86505
      25   86514   86511      24   86517   86511      24   86517   86514      25
   86523   86520      24   86526   86520      24   86526   86523      25   86532
   86529      24   86535   86529      24   86535   86532      25   86541   86538
      24   86544   86538      24   86544   86541      25   86550   86547      24
   86553   86547      24   86553   86550      25   86559   86556      24   86562
   86556      24   86562   86559      25   86568   86565      24   86571   86565
      24   86571   86568      25   86577   86574      24   86580   86574      24
   86580   86577      25   86586   86583      24   86589   86583      24   86589
   86586      25   86595   86592      24   86598   86592      24   86598   86595
      25   86604   86601      24   86607   86601      24   86607   86604      25
   86613   86610      24   86616   86610      24   86616   86613      25   86622
   86619      24   86625   86619      24   86625   86622      25   86631   86628
      24   86634   86628      24   86634   86631      25   86640   86637      24
   86643   86637      24   86643   86640      25   86649   86646      24   86652
   86646      24   86652   86649      25   86658   86655      24   86661   86655
      24   86661   86658      25   86667   86664      24   86670   86664      24
   86670   86667      25   86676   86673      24   86679   86673      24   86679
   86676      25   86685   86682      24   86688   86682      24   86688   86685
      25   86694   86691      24   86697   86691      24   86697   86694      25
   86703   86700      24   86706   86700      24   86706   86703      25   86712
   86709      24   86715   86709      24   86715   86712      25   86721   86718
      24   86724   86718      24   86724   86721      25   86730   86727      24
   86733   86727      24   86733   86730      25   86739   86736      24   86742
   86736      24   86742   86739      25   86748   86745      24   86751   86745
      24   86751   86748      25   86757   86754      24   86760   86754      24
   86760   86757      25   86766   86763      24   86769   86763      24   86769
   86766      25   86775   86772      24   86778   86772      24   86778   86775
      25   86784   86781      24   86787   86781      24   86787   86784      25
   86793   86790      24   86796   86790      24   86796   86793      25   86802
   86799      24   86805   86799      24   86805   86802      25   86811   86808
      24   86814   86808      24   86814   86811      25   86820   86817      24
   86823   86817      24   86823   86820      25   86829   86826      24   86832
   86826      24   86832   86829      25   86838   86835      24   86841   86835
      24   86841   86838      25   86847   86844      24   86850   86844      24
   86850   86847      25   86856   86853      24   86859   86853      24   86859
   86856      25   86865   86862      24   86868   86862      24   86868   86865
      25   86874   86871      24   86877   86871      24   86877   86874      25
   86883   86880      24   86886   86880      24   86886   86883      25   86892
   86889      24   86895   86889      24   86895   86892      25   86901   86898
      24   86904   86898      24   86904   86901      25   86910   86907      24
   86913   86907      24   86913   86910      25   86919   86916      24   86922
   86916      24   86922   86919      25   86928   86925      24   86931   86925
      24   86931   86928      25   86937   86934      24   86940   86934      24
   86940   86937      25   86946   86943      24   86949   86943      24   86949
   86946      25   86955   86952      24   86958   86952      24   86958   86955
      25   86964   86961      24   86967   86961      24   86967   86964      25
   86973   86970      24   86976   86970      24   86976   86973      25   86982
   86979      24   86985   86979      24   86985   86982      25   86991   86988
      24   86994   86988      24   86994   86991      25   87000   86997      24
   87003   86997      24   87003   87000      25   87009   87006      24   87012
   87006      24   87012   87009      25   87018   87015      24   87021   87015
      24   87021   87018      25   87027   87024      24   87030   87024      24
   87030   87027      25   87036   87033      24   87039   87033      24   87039
   87036      25   87045   87042      24   87048   87042      24   87048   87045
      25   87054   87051      24   87057   87051      24   87057   87054      25
   87063   87060      24   87066   87060      24   87066   87063      25   87072
   87069      24   87075   87069      24   87075   87072      25   87081   87078
      24   87084   87078      24   87084   87081      25   87090   87087      24
   87093   87087      24   87093   87090      25   87099   87096      24   87102
   87096      24   87102   87099      25   87108   87105      24   87111   87105
      24   87111   87108      25   87117   87114      24   87120   87114      24
   87120   87117      25   87126   87123      24   87129   87123      24   87129
   87126      25   87135   87132      24   87138   87132      24   87138   87135
      25   87144   87141      24   87147   87141      24   87147   87144      25
   87153   87150      24   87156   87150      24   87156   87153      25   87162
   87159      24   87165   87159      24   87165   87162      25   87171   87168
      24   87174   87168      24   87174   87171      25   87180   87177      24
   87183   87177      24   87183   87180      25   87189   87186      24   87192
   87186      24   87192   87189      25   87198   87195      24   87201   87195
      24   87201   87198      25   87207   87204      24   87210   87204      24
   87210   87207      25   87216   87213      24   87219   87213      24   87219
   87216      25   87225   87222      24   87228   87222      24   87228   87225
      25   87234   87231      24   87237   87231      24   87237   87234      25
   87243   87240      24   87246   87240      24   87246   87243      25   87252
   87249      24   87255   87249      24   87255   87252      25   87261   87258
      24   87264   87258      24   87264   87261      25   87270   87267      24
   87273   87267      24   87273   87270      25   87279   87276      24   87282
   87276      24   87282   87279      25   87288   87285      24   87291   87285
      24   87291   87288      25   87297   87294      24   87300   87294      24
   87300   87297      25   87306   87303      24   87309   87303      24   87309
   87306      25   87315   87312      24   87318   87312      24   87318   87315
      25   87324   87321      24   87327   87321      24   87327   87324      25
   87333   87330      24   87336   87330      24   87336   87333      25   87342
   87339      24   87345   87339      24   87345   87342      25   87351   87348
      24   87354   87348      24   87354   87351      25   87360   87357      24
   87363   87357      24   87363   87360      25   87369   87366      24   87372
   87366      24   87372   87369      25   87378   87375      24   87381   87375
      24   87381   87378      25   87387   87384      24   87390   87384      24
   87390   87387      25   87396   87393      24   87399   87393      24   87399
   87396      25   87405   87402      24   87408   87402      24   87408   87405
      25   87414   87411      24   87417   87411      24   87417   87414      25
   87423   87420      24   87426   87420      24   87426   87423      25   87432
   87429      24   87435   87429      24   87435   87432      25   87441   87438
      24   87444   87438      24   87444   87441      25   87450   87447      24
   87453   87447      24   87453   87450      25   87459   87456      24   87462
   87456      24   87462   87459      25   87468   87465      24   87471   87465
      24   87471   87468      25   87477   87474      24   87480   87474      24
   87480   87477      25   87486   87483      24   87489   87483      24   87489
   87486      25   87495   87492      24   87498   87492      24   87498   87495
      25   87504   87501      24   87507   87501      24   87507   87504      25
   87513   87510      24   87516   87510      24   87516   87513      25   87522
   87519      24   87525   87519      24   87525   87522      25   87531   87528
      24   87534   87528      24   87534   87531      25   87540   87537      24
   87543   87537      24   87543   87540      25   87549   87546      24   87552
   87546      24   87552   87549      25   87558   87555      24   87561   87555
      24   87561   87558      25   87567   87564      24   87570   87564      24
   87570   87567      25   87576   87573      24   87579   87573      24   87579
   87576      25   87585   87582      24   87588   87582      24   87588   87585
      25   87594   87591      24   87597   87591      24   87597   87594      25
   87603   87600      24   87606   87600      24   87606   87603      25   87612
   87609      24   87615   87609      24   87615   87612      25   87621   87618
      24   87624   87618      24   87624   87621      25   87630   87627      24
   87633   87627      24   87633   87630      25   87639   87636      24   87642
   87636      24   87642   87639      25   87648   87645      24   87651   87645
      24   87651   87648      25   87657   87654      24   87660   87654      24
   87660   87657      25   87666   87663      24   87669   87663      24   87669
   87666      25   87675   87672      24   87678   87672      24   87678   87675
      25   87684   87681      24   87687   87681      24   87687   87684      25
   87693   87690      24   87696   87690      24   87696   87693      25   87702
   87699      24   87705   87699      24   87705   87702      25   87711   87708
      24   87714   87708      24   87714   87711      25   87720   87717      24
   87723   87717      24   87723   87720      25   87729   87726      24   87732
   87726      24   87732   87729      25   87738   87735      24   87741   87735
      24   87741   87738      25   87747   87744      24   87750   87744      24
   87750   87747      25   87756   87753      24   87759   87753      24   87759
   87756      25   87765   87762      24   87768   87762      24   87768   87765
      25   87774   87771      24   87777   87771      24   87777   87774      25
   87783   87780      24   87786   87780      24   87786   87783      25   87792
   87789      24   87795   87789      24   87795   87792      25   87801   87798
      24   87804   87798      24   87804   87801      25   87810   87807      24
   87813   87807      24   87813   87810      25   87819   87816      24   87822
   87816      24   87822   87819      25   87828   87825      24   87831   87825
      24   87831   87828      25   87837   87834      24   87840   87834      24
   87840   87837      25   87846   87843      24   87849   87843      24   87849
   87846      25   87855   87852      24   87858   87852      24   87858   87855
      25   87864   87861      24   87867   87861      24   87867   87864      25
   87873   87870      24   87876   87870      24   87876   87873      25   87882
   87879      24   87885   87879      24   87885   87882      25   87891   87888
      24   87894   87888      24   87894   87891      25   87900   87897      24
   87903   87897      24   87903   87900      25   87909   87906      24   87912
   87906      24   87912   87909      25   87918   87915      24   87921   87915
      24   87921   87918      25   87927   87924      24   87930   87924      24
   87930   87927      25   87936   87933      24   87939   87933      24   87939
   87936      25   87945   87942      24   87948   87942      24   87948   87945
      25   87954   87951      24   87957   87951      24   87957   87954      25
   87963   87960      24   87966   87960      24   87966   87963      25   87972
   87969      24   87975   87969      24   87975   87972      25   87981   87978
      24   87984   87978      24   87984   87981      25   87990   87987      24
   87993   87987      24   87993   87990      25   87999   87996      24   88002
   87996      24   88002   87999      25   88008   88005      24   88011   88005
      24   88011   88008      25   88017   88014      24   88020   88014      24
   88020   88017      25   88026   88023      24   88029   88023      24   88029
   88026      25   88035   88032      24   88038   88032      24   88038   88035
      25   88044   88041      24   88047   88041      24   88047   88044      25
   88053   88050      24   88056   88050      24   88056   88053      25   88062
   88059      24   88065   88059      24   88065   88062      25   88071   88068
      24   88074   88068      24   88074   88071      25   88080   88077      24
   88083   88077      24   88083   88080      25   88089   88086      24   88092
   88086      24   88092   88089      25   88098   88095      24   88101   88095
      24   88101   88098      25   88107   88104      24   88110   88104      24
   88110   88107      25   88116   88113      24   88119   88113      24   88119
   88116      25   88125   88122      24   88128   88122      24   88128   88125
      25   88134   88131      24   88137   88131      24   88137   88134      25
   88143   88140      24   88146   88140      24   88146   88143      25   88152
   88149      24   88155   88149      24   88155   88152      25   88161   88158
      24   88164   88158      24   88164   88161      25   88170   88167      24
   88173   88167      24   88173   88170      25   88179   88176      24   88182
   88176      24   88182   88179      25   88188   88185      24   88191   88185
      24   88191   88188      25   88197   88194      24   88200   88194      24
   88200   88197      25   88206   88203      24   88209   88203      24   88209
   88206      25   88215   88212      24   88218   88212      24   88218   88215
      25   88224   88221      24   88227   88221      24   88227   88224      25
   88233   88230      24   88236   88230      24   88236   88233      25   88242
   88239      24   88245   88239      24   88245   88242      25   88251   88248
      24   88254   88248      24   88254   88251      25   88260   88257      24
   88263   88257      24   88263   88260      25   88269   88266      24   88272
   88266      24   88272   88269      25   88278   88275      24   88281   88275
      24   88281   88278      25   88287   88284      24   88290   88284      24
   88290   88287      25   88296   88293      24   88299   88293      24   88299
   88296      25   88305   88302      24   88308   88302      24   88308   88305
      25   88314   88311      24   88317   88311      24   88317   88314      25
   88323   88320      24   88326   88320      24   88326   88323      25   88332
   88329      24   88335   88329      24   88335   88332      25   88341   88338
      24   88344   88338      24   88344   88341      25   88350   88347      24
   88353   88347      24   88353   88350      25   88359   88356      24   88362
   88356      24   88362   88359      25   88368   88365      24   88371   88365
      24   88371   88368      25   88377   88374      24   88380   88374      24
   88380   88377      25   88386   88383      24   88389   88383      24   88389
   88386      25   88395   88392      24   88398   88392      24   88398   88395
      25   88404   88401      24   88407   88401      24   88407   88404      25
   88413   88410      24   88416   88410      24   88416   88413      25   88422
   88419      24   88425   88419      24   88425   88422      25   88431   88428
      24   88434   88428      24   88434   88431      25   88440   88437      24
   88443   88437      24   88443   88440      25   88449   88446      24   88452
   88446      24   88452   88449      25   88458   88455      24   88461   88455
      24   88461   88458      25   88467   88464      24   88470   88464      24
   88470   88467      25   88476   88473      24   88479   88473      24   88479
   88476      25   88485   88482      24   88488   88482      24   88488   88485
      25   88494   88491      24   88497   88491      24   88497   88494      25
   88503   88500      24   88506   88500      24   88506   88503      25   88512
   88509      24   88515   88509      24   88515   88512      25   88521   88518
      24   88524   88518      24   88524   88521      25   88530   88527      24
   88533   88527      24   88533   88530      25   88539   88536      24   88542
   88536      24   88542   88539      25   88548   88545      24   88551   88545
      24   88551   88548      25   88557   88554      24   88560   88554      24
   88560   88557      25   88566   88563      24   88569   88563      24   88569
   88566      25   88575   88572      24   88578   88572      24   88578   88575
      25   88584   88581      24   88587   88581      24   88587   88584      25
   88593   88590      24   88596   88590      24   88596   88593      25   88602
   88599      24   88605   88599      24   88605   88602      25   88611   88608
      24   88614   88608      24   88614   88611      25   88620   88617      24
   88623   88617      24   88623   88620      25   88629   88626      24   88632
   88626      24   88632   88629      25   88638   88635      24   88641   88635
      24   88641   88638      25   88647   88644      24   88650   88644      24
   88650   88647      25   88656   88653      24   88659   88653      24   88659
   88656      25   88665   88662      24   88668   88662      24   88668   88665
      25   88674   88671      24   88677   88671      24   88677   88674      25
   88683   88680      24   88686   88680      24   88686   88683      25   88692
   88689      24   88695   88689      24   88695   88692      25   88701   88698
      24   88704   88698      24   88704   88701      25   88710   88707      24
   88713   88707      24   88713   88710      25   88719   88716      24   88722
   88716      24   88722   88719      25   88728   88725      24   88731   88725
      24   88731   88728      25   88737   88734      24   88740   88734      24
   88740   88737      25   88746   88743      24   88749   88743      24   88749
   88746      25   88755   88752      24   88758   88752      24   88758   88755
      25   88764   88761      24   88767   88761      24   88767   88764      25
   88773   88770      24   88776   88770      24   88776   88773      25   88782
   88779      24   88785   88779      24   88785   88782      25   88791   88788
      24   88794   88788      24   88794   88791      25   88800   88797      24
   88803   88797      24   88803   88800      25   88809   88806      24   88812
   88806      24   88812   88809      25   88818   88815      24   88821   88815
      24   88821   88818      25   88827   88824      24   88830   88824      24
   88830   88827      25   88836   88833      24   88839   88833      24   88839
   88836      25   88845   88842      24   88848   88842      24   88848   88845
      25   88854   88851      24   88857   88851      24   88857   88854      25
   88863   88860      24   88866   88860      24   88866   88863      25   88872
   88869      24   88875   88869      24   88875   88872      25   88881   88878
      24   88884   88878      24   88884   88881      25   88890   88887      24
   88893   88887      24   88893   88890      25   88899   88896      24   88902
   88896      24   88902   88899      25   88908   88905      24   88911   88905
      24   88911   88908      25   88917   88914      24   88920   88914      24
   88920   88917      25   88926   88923      24   88929   88923      24   88929
   88926      25   88935   88932      24   88938   88932      24   88938   88935
      25   88944   88941      24   88947   88941      24   88947   88944      25
   88953   88950      24   88956   88950      24   88956   88953      25   88962
   88959      24   88965   88959      24   88965   88962      25   88971   88968
      24   88974   88968      24   88974   88971      25   88980   88977      24
   88983   88977      24   88983   88980      25   88989   88986      24   88992
   88986      24   88992   88989      25   88998   88995      24   89001   88995
      24   89001   88998      25   89007   89004      24   89010   89004      24
   89010   89007      25   89016   89013      24   89019   89013      24   89019
   89016      25   89025   89022      24   89028   89022      24   89028   89025
      25   89034   89031      24   89037   89031      24   89037   89034      25
   89043   89040      24   89046   89040      24   89046   89043      25   89052
   89049      24   89055   89049      24   89055   89052      25   89061   89058
      24   89064   89058      24   89064   89061      25   89070   89067      24
   89073   89067      24   89073   89070      25   89079   89076      24   89082
   89076      24   89082   89079      25   89088   89085      24   89091   89085
      24   89091   89088      25   89097   89094      24   89100   89094      24
   89100   89097      25   89106   89103      24   89109   89103      24   89109
   89106      25   89115   89112      24   89118   89112      24   89118   89115
      25   89124   89121      24   89127   89121      24   89127   89124      25
   89133   89130      24   89136   89130      24   89136   89133      25   89142
   89139      24   89145   89139      24   89145   89142      25   89151   89148
      24   89154   89148      24   89154   89151      25   89160   89157      24
   89163   89157      24   89163   89160      25   89169   89166      24   89172
   89166      24   89172   89169      25   89178   89175      24   89181   89175
      24   89181   89178      25   89187   89184      24   89190   89184      24
   89190   89187      25   89196   89193      24   89199   89193      24   89199
   89196      25   89205   89202      24   89208   89202      24   89208   89205
      25   89214   89211      24   89217   89211      24   89217   89214      25
   89223   89220      24   89226   89220      24   89226   89223      25   89232
   89229      24   89235   89229      24   89235   89232      25   89241   89238
      24   89244   89238      24   89244   89241      25   89250   89247      24
   89253   89247      24   89253   89250      25   89259   89256      24   89262
   89256      24   89262   89259      25   89268   89265      24   89271   89265
      24   89271   89268      25   89277   89274      24   89280   89274      24
   89280   89277      25   89286   89283      24   89289   89283      24   89289
   89286      25   89295   89292      24   89298   89292      24   89298   89295
      25   89304   89301      24   89307   89301      24   89307   89304      25
   89313   89310      24   89316   89310      24   89316   89313      25   89322
   89319      24   89325   89319      24   89325   89322      25   89331   89328
      24   89334   89328      24   89334   89331      25   89340   89337      24
   89343   89337      24   89343   89340      25   89349   89346      24   89352
   89346      24   89352   89349      25   89358   89355      24   89361   89355
      24   89361   89358      25   89367   89364      24   89370   89364      24
   89370   89367      25   89376   89373      24   89379   89373      24   89379
   89376      25   89385   89382      24   89388   89382      24   89388   89385
      25   89394   89391      24   89397   89391      24   89397   89394      25
   89403   89400      24   89406   89400      24   89406   89403      25   89412
   89409      24   89415   89409      24   89415   89412      25   89421   89418
      24   89424   89418      24   89424   89421      25   89430   89427      24
   89433   89427      24   89433   89430      25   89439   89436      24   89442
   89436      24   89442   89439      25   89448   89445      24   89451   89445
      24   89451   89448      25   89457   89454      24   89460   89454      24
   89460   89457      25   89466   89463      24   89469   89463      24   89469
   89466      25   89475   89472      24   89478   89472      24   89478   89475
      25   89484   89481      24   89487   89481      24   89487   89484      25
   89493   89490      24   89496   89490      24   89496   89493      25   89502
   89499      24   89505   89499      24   89505   89502      25   89511   89508
      24   89514   89508      24   89514   89511      25   89520   89517      24
   89523   89517      24   89523   89520      25   89529   89526      24   89532
   89526      24   89532   89529      25   89538   89535      24   89541   89535
      24   89541   89538      25   89547   89544      24   89550   89544      24
   89550   89547      25   89556   89553      24   89559   89553      24   89559
   89556      25   89565   89562      24   89568   89562      24   89568   89565
      25   89574   89571      24   89577   89571      24   89577   89574      25
   89583   89580      24   89586   89580      24   89586   89583      25   89592
   89589      24   89595   89589      24   89595   89592      25   89601   89598
      24   89604   89598      24   89604   89601      25   89610   89607      24
   89613   89607      24   89613   89610      25   89619   89616      24   89622
   89616      24   89622   89619      25   89628   89625      24   89631   89625
      24   89631   89628      25   89637   89634      24   89640   89634      24
   89640   89637      25   89646   89643      24   89649   89643      24   89649
   89646      25   89655   89652      24   89658   89652      24   89658   89655
      25   89664   89661      24   89667   89661      24   89667   89664      25
   89673   89670      24   89676   89670      24   89676   89673      25   89682
   89679      24   89685   89679      24   89685   89682      25   89691   89688
      24   89694   89688      24   89694   89691      25   89700   89697      24
   89703   89697      24   89703   89700      25   89709   89706      24   89712
   89706      24   89712   89709      25   89718   89715      24   89721   89715
      24   89721   89718      25   89727   89724      24   89730   89724      24
   89730   89727      25   89736   89733      24   89739   89733      24   89739
   89736      25   89745   89742      24   89748   89742      24   89748   89745
      25   89754   89751      24   89757   89751      24   89757   89754      25
   89763   89760      24   89766   89760      24   89766   89763      25   89772
   89769      24   89775   89769      24   89775   89772      25   89781   89778
      24   89784   89778      24   89784   89781      25   89790   89787      24
   89793   89787      24   89793   89790      25   89799   89796      24   89802
   89796      24   89802   89799      25   89808   89805      24   89811   89805
      24   89811   89808      25   89817   89814      24   89820   89814      24
   89820   89817      25   89826   89823      24   89829   89823      24   89829
   89826      25   89835   89832      24   89838   89832      24   89838   89835
      25   89844   89841      24   89847   89841      24   89847   89844      25
   89853   89850      24   89856   89850      24   89856   89853      25   89862
   89859      24   89865   89859      24   89865   89862      25   89871   89868
      24   89874   89868      24   89874   89871      25   89880   89877      24
   89883   89877      24   89883   89880      25   89889   89886      24   89892
   89886      24   89892   89889      25   89898   89895      24   89901   89895
      24   89901   89898      25   89907   89904      24   89910   89904      24
   89910   89907      25   89916   89913      24   89919   89913      24   89919
   89916      25   89925   89922      24   89928   89922      24   89928   89925
      25   89934   89931      24   89937   89931      24   89937   89934      25
   89943   89940      24   89946   89940      24   89946   89943      25   89952
   89949      24   89955   89949      24   89955   89952      25   89961   89958
      24   89964   89958      24   89964   89961      25   89970   89967      24
   89973   89967      24   89973   89970      25   89979   89976      24   89982
   89976      24   89982   89979      25   89988   89985      24   89991   89985
      24   89991   89988      25   89997   89994      24   90000   89994      24
   90000   89997      25   90006   90003      24   90009   90003      24   90009
   90006      25   90015   90012      24   90018   90012      24   90018   90015
      25   90024   90021      24   90027   90021      24   90027   90024      25
   90033   90030      24   90036   90030      24   90036   90033      25   90042
   90039      24   90045   90039      24   90045   90042      25   90051   90048
      24   90054   90048      24   90054   90051      25   90060   90057      24
   90063   90057      24   90063   90060      25   90069   90066      24   90072
   90066      24   90072   90069      25   90078   90075      24   90081   90075
      24   90081   90078      25   90087   90084      24   90090   90084      24
   90090   90087      25   90096   90093      24   90099   90093      24   90099
   90096      25   90105   90102      24   90108   90102      24   90108   90105
      25   90114   90111      24   90117   90111      24   90117   90114      25
   90123   90120      24   90126   90120      24   90126   90123      25   90132
   90129      24   90135   90129      24   90135   90132      25   90141   90138
      24   90144   90138      24   90144   90141      25   90150   90147      24
   90153   90147      24   90153   90150      25   90159   90156      24   90162
   90156      24   90162   90159      25   90168   90165      24   90171   90165
      24   90171   90168      25   90177   90174      24   90180   90174      24
   90180   90177      25   90186   90183      24   90189   90183      24   90189
   90186      25   90195   90192      24   90198   90192      24   90198   90195
      25   90204   90201      24   90207   90201      24   90207   90204      25
   90213   90210      24   90216   90210      24   90216   90213      25   90222
   90219      24   90225   90219      24   90225   90222      25   90231   90228
      24   90234   90228      24   90234   90231      25   90240   90237      24
   90243   90237      24   90243   90240      25   90249   90246      24   90252
   90246      24   90252   90249      25   90258   90255      24   90261   90255
      24   90261   90258      25   90267   90264      24   90270   90264      24
   90270   90267      25   90276   90273      24   90279   90273      24   90279
   90276      25   90285   90282      24   90288   90282      24   90288   90285
      25   90294   90291      24   90297   90291      24   90297   90294      25
   90303   90300      24   90306   90300      24   90306   90303      25   90312
   90309      24   90315   90309      24   90315   90312      25   90321   90318
      24   90324   90318      24   90324   90321      25   90330   90327      24
   90333   90327      24   90333   90330      25   90339   90336      24   90342
   90336      24   90342   90339      25   90348   90345      24   90351   90345
      24   90351   90348      25   90357   90354      24   90360   90354      24
   90360   90357      25   90366   90363      24   90369   90363      24   90369
   90366      25   90375   90372      24   90378   90372      24   90378   90375
      25   90384   90381      24   90387   90381      24   90387   90384      25
   90393   90390      24   90396   90390      24   90396   90393      25   90402
   90399      24   90405   90399      24   90405   90402      25   90411   90408
      24   90414   90408      24   90414   90411      25   90420   90417      24
   90423   90417      24   90423   90420      25   90429   90426      24   90432
   90426      24   90432   90429      25   90438   90435      24   90441   90435
      24   90441   90438      25   90447   90444      24   90450   90444      24
   90450   90447      25   90456   90453      24   90459   90453      24   90459
   90456      25   90465   90462      24   90468   90462      24   90468   90465
      25   90474   90471      24   90477   90471      24   90477   90474      25
   90483   90480      24   90486   90480      24   90486   90483      25   90492
   90489      24   90495   90489      24   90495   90492      25   90501   90498
      24   90504   90498      24   90504   90501      25   90510   90507      24
   90513   90507      24   90513   90510      25   90519   90516      24   90522
   90516      24   90522   90519      25   90528   90525      24   90531   90525
      24   90531   90528      25   90537   90534      24   90540   90534      24
   90540   90537      25   90546   90543      24   90549   90543      24   90549
   90546      25   90555   90552      24   90558   90552      24   90558   90555
      25   90564   90561      24   90567   90561      24   90567   90564      25
   90573   90570      24   90576   90570      24   90576   90573      25   90582
   90579      24   90585   90579      24   90585   90582      25   90591   90588
      24   90594   90588      24   90594   90591      25   90600   90597      24
   90603   90597      24   90603   90600      25   90609   90606      24   90612
   90606      24   90612   90609      25   90618   90615      24   90621   90615
      24   90621   90618      25   90627   90624      24   90630   90624      24
   90630   90627      25   90636   90633      24   90639   90633      24   90639
   90636      25   90645   90642      24   90648   90642      24   90648   90645
      25   90654   90651      24   90657   90651      24   90657   90654      25
   90663   90660      24   90666   90660      24   90666   90663      25   90672
   90669      24   90675   90669      24   90675   90672      25   90681   90678
      24   90684   90678      24   90684   90681      25   90690   90687      24
   90693   90687      24   90693   90690      25   90699   90696      24   90702
   90696      24   90702   90699      25   90708   90705      24   90711   90705
      24   90711   90708      25   90717   90714      24   90720   90714      24
   90720   90717      25   90726   90723      24   90729   90723      24   90729
   90726      25   90735   90732      24   90738   90732      24   90738   90735
      25   90744   90741      24   90747   90741      24   90747   90744      25
   90753   90750      24   90756   90750      24   90756   90753      25   90762
   90759      24   90765   90759      24   90765   90762      25   90771   90768
      24   90774   90768      24   90774   90771      25   90780   90777      24
   90783   90777      24   90783   90780      25   90789   90786      24   90792
   90786      24   90792   90789      25   90798   90795      24   90801   90795
      24   90801   90798      25   90807   90804      24   90810   90804      24
   90810   90807      25   90816   90813      24   90819   90813      24   90819
   90816      25   90825   90822      24   90828   90822      24   90828   90825
      25   90834   90831      24   90837   90831      24   90837   90834      25
   90843   90840      24   90846   90840      24   90846   90843      25   90852
   90849      24   90855   90849      24   90855   90852      25   90861   90858
      24   90864   90858      24   90864   90861      25   90870   90867      24
   90873   90867      24   90873   90870      25   90879   90876      24   90882
   90876      24   90882   90879      25   90888   90885      24   90891   90885
      24   90891   90888      25   90897   90894      24   90900   90894      24
   90900   90897      25   90906   90903      24   90909   90903      24   90909
   90906      25   90915   90912      24   90918   90912      24   90918   90915
      25   90924   90921      24   90927   90921      24   90927   90924      25
   90933   90930      24   90936   90930      24   90936   90933      25   90942
   90939      24   90945   90939      24   90945   90942      25   90951   90948
      24   90954   90948      24   90954   90951      25   90960   90957      24
   90963   90957      24   90963   90960      25   90969   90966      24   90972
   90966      24   90972   90969      25   90978   90975      24   90981   90975
      24   90981   90978      25   90987   90984      24   90990   90984      24
   90990   90987      25   90996   90993      24   90999   90993      24   90999
   90996      25   91005   91002      24   91008   91002      24   91008   91005
      25   91014   91011      24   91017   91011      24   91017   91014      25
   91023   91020      24   91026   91020      24   91026   91023      25   91032
   91029      24   91035   91029      24   91035   91032      25   91041   91038
      24   91044   91038      24   91044   91041      25   91050   91047      24
   91053   91047      24   91053   91050      25   91059   91056      24   91062
   91056      24   91062   91059      25   91068   91065      24   91071   91065
      24   91071   91068      25   91077   91074      24   91080   91074      24
   91080   91077      25   91086   91083      24   91089   91083      24   91089
   91086      25   91095   91092      24   91098   91092      24   91098   91095
      25   91104   91101      24   91107   91101      24   91107   91104      25
   91113   91110      24   91116   91110      24   91116   91113      25   91122
   91119      24   91125   91119      24   91125   91122      25   91131   91128
      24   91134   91128      24   91134   91131      25   91140   91137      24
   91143   91137      24   91143   91140      25   91149   91146      24   91152
   91146      24   91152   91149      25   91158   91155      24   91161   91155
      24   91161   91158      25   91167   91164      24   91170   91164      24
   91170   91167      25   91176   91173      24   91179   91173      24   91179
   91176      25   91185   91182      24   91188   91182      24   91188   91185
      25   91194   91191      24   91197   91191      24   91197   91194      25
   91203   91200      24   91206   91200      24   91206   91203      25   91212
   91209      24   91215   91209      24   91215   91212      25   91221   91218
      24   91224   91218      24   91224   91221      25   91230   91227      24
   91233   91227      24   91233   91230      25   91239   91236      24   91242
   91236      24   91242   91239      25   91248   91245      24   91251   91245
      24   91251   91248      25   91257   91254      24   91260   91254      24
   91260   91257      25   91266   91263      24   91269   91263      24   91269
   91266      25   91275   91272      24   91278   91272      24   91278   91275
      25   91284   91281      24   91287   91281      24   91287   91284      25
   91293   91290      24   91296   91290      24   91296   91293      25   91302
   91299      24   91305   91299      24   91305   91302      25   91311   91308
      24   91314   91308      24   91314   91311      25   91320   91317      24
   91323   91317      24   91323   91320      25   91329   91326      24   91332
   91326      24   91332   91329      25   91338   91335      24   91341   91335
      24   91341   91338      25   91347   91344      24   91350   91344      24
   91350   91347      25   91356   91353      24   91359   91353      24   91359
   91356      25   91365   91362      24   91368   91362      24   91368   91365
      25   91374   91371      24   91377   91371      24   91377   91374      25
   91383   91380      24   91386   91380      24   91386   91383      25   91392
   91389      24   91395   91389      24   91395   91392      25   91401   91398
      24   91404   91398      24   91404   91401      25   91410   91407      24
   91413   91407      24   91413   91410      25   91419   91416      24   91422
   91416      24   91422   91419      25   91428   91425      24   91431   91425
      24   91431   91428      25   91437   91434      24   91440   91434      24
   91440   91437      25   91446   91443      24   91449   91443      24   91449
   91446      25   91455   91452      24   91458   91452      24   91458   91455
      25   91464   91461      24   91467   91461      24   91467   91464      25
   91473   91470      24   91476   91470      24   91476   91473      25   91482
   91479      24   91485   91479      24   91485   91482      25   91491   91488
      24   91494   91488      24   91494   91491      25   91500   91497      24
   91503   91497      24   91503   91500      25   91509   91506      24   91512
   91506      24   91512   91509      25   91518   91515      24   91521   91515
      24   91521   91518      25   91527   91524      24   91530   91524      24
   91530   91527      25   91536   91533      24   91539   91533      24   91539
   91536      25   91545   91542      24   91548   91542      24   91548   91545
      25   91554   91551      24   91557   91551      24   91557   91554      25
   91563   91560      24   91566   91560      24   91566   91563      25   91572
   91569      24   91575   91569      24   91575   91572      25   91581   91578
      24   91584   91578      24   91584   91581      25   91590   91587      24
   91593   91587      24   91593   91590      25   91599   91596      24   91602
   91596      24   91602   91599      25   91608   91605      24   91611   91605
      24   91611   91608      25   91617   91614      24   91620   91614      24
   91620   91617      25   91626   91623      24   91629   91623      24   91629
   91626      25   91635   91632      24   91638   91632      24   91638   91635
      25   91644   91641      24   91647   91641      24   91647   91644      25
   91653   91650      24   91656   91650      24   91656   91653      25   91662
   91659      24   91665   91659      24   91665   91662      25   91671   91668
      24   91674   91668      24   91674   91671      25   91680   91677      24
   91683   91677      24   91683   91680      25   91689   91686      24   91692
   91686      24   91692   91689      25   91698   91695      24   91701   91695
      24   91701   91698      25   91707   91704      24   91710   91704      24
   91710   91707      25   91716   91713      24   91719   91713      24   91719
   91716      25   91725   91722      24   91728   91722      24   91728   91725
      25   91734   91731      24   91737   91731      24   91737   91734      25
   91743   91740      24   91746   91740      24   91746   91743      25   91752
   91749      24   91755   91749      24   91755   91752      25   91761   91758
      24   91764   91758      24   91764   91761      25   91770   91767      24
   91773   91767      24   91773   91770      25   91779   91776      24   91782
   91776      24   91782   91779      25   91788   91785      24   91791   91785
      24   91791   91788      25   91797   91794      24   91800   91794      24
   91800   91797      25   91806   91803      24   91809   91803      24   91809
   91806      25   91815   91812      24   91818   91812      24   91818   91815
      25   91824   91821      24   91827   91821      24   91827   91824      25
   91833   91830      24   91836   91830      24   91836   91833      25   91842
   91839      24   91845   91839      24   91845   91842      25   91851   91848
      24   91854   91848      24   91854   91851      25   91860   91857      24
   91863   91857      24   91863   91860      25   91869   91866      24   91872
   91866      24   91872   91869      25   91878   91875      24   91881   91875
      24   91881   91878      25   91887   91884      24   91890   91884      24
   91890   91887      25   91896   91893      24   91899   91893      24   91899
   91896      25   91905   91902      24   91908   91902      24   91908   91905
      25   91914   91911      24   91917   91911      24   91917   91914      25
   91923   91920      24   91926   91920      24   91926   91923      25   91932
   91929      24   91935   91929      24   91935   91932      25   91941   91938
      24   91944   91938      24   91944   91941      25   91950   91947      24
   91953   91947      24   91953   91950      25   91959   91956      24   91962
   91956      24   91962   91959      25   91968   91965      24   91971   91965
      24   91971   91968      25   91977   91974      24   91980   91974      24
   91980   91977      25   91986   91983      24   91989   91983      24   91989
   91986      25   91995   91992      24   91998   91992      24   91998   91995
      25   92004   92001      24   92007   92001      24   92007   92004      25
   92013   92010      24   92016   92010      24   92016   92013      25   92022
   92019      24   92025   92019      24   92025   92022      25   92031   92028
      24   92034   92028      24   92034   92031      25   92040   92037      24
   92043   92037      24   92043   92040      25   92049   92046      24   92052
   92046      24   92052   92049      25   92058   92055      24   92061   92055
      24   92061   92058      25   92067   92064      24   92070   92064      24
   92070   92067      25   92076   92073      24   92079   92073      24   92079
   92076      25   92085   92082      24   92088   92082      24   92088   92085
      25   92094   92091      24   92097   92091      24   92097   92094      25
   92103   92100      24   92106   92100      24   92106   92103      25   92112
   92109      24   92115   92109      24   92115   92112      25   92121   92118
      24   92124   92118      24   92124   92121      25   92130   92127      24
   92133   92127      24   92133   92130      25   92139   92136      24   92142
   92136      24   92142   92139      25   92148   92145      24   92151   92145
      24   92151   92148      25   92157   92154      24   92160   92154      24
   92160   92157      25   92166   92163      24   92169   92163      24   92169
   92166      25   92175   92172      24   92178   92172      24   92178   92175
      25   92184   92181      24   92187   92181      24   92187   92184      25
   92193   92190      24   92196   92190      24   92196   92193      25   92202
   92199      24   92205   92199      24   92205   92202      25   92211   92208
      24   92214   92208      24   92214   92211      25   92220   92217      24
   92223   92217      24   92223   92220      25   92229   92226      24   92232
   92226      24   92232   92229      25   92238   92235      24   92241   92235
      24   92241   92238      25   92247   92244      24   92250   92244      24
   92250   92247      25   92256   92253      24   92259   92253      24   92259
   92256      25   92265   92262      24   92268   92262      24   92268   92265
      25   92274   92271      24   92277   92271      24   92277   92274      25
   92283   92280      24   92286   92280      24   92286   92283      25   92292
   92289      24   92295   92289      24   92295   92292      25   92301   92298
      24   92304   92298      24   92304   92301      25   92310   92307      24
   92313   92307      24   92313   92310      25   92319   92316      24   92322
   92316      24   92322   92319      25   92328   92325      24   92331   92325
      24   92331   92328      25   92337   92334      24   92340   92334      24
   92340   92337      25   92346   92343      24   92349   92343      24   92349
   92346      25   92355   92352      24   92358   92352      24   92358   92355
      25   92364   92361      24   92367   92361      24   92367   92364      25
   92373   92370      24   92376   92370      24   92376   92373      25   92382
   92379      24   92385   92379      24   92385   92382      25   92391   92388
      24   92394   92388      24   92394   92391      25   92400   92397      24
   92403   92397      24   92403   92400      25   92409   92406      24   92412
   92406      24   92412   92409      25   92418   92415      24   92421   92415
      24   92421   92418      25   92427   92424      24   92430   92424      24
   92430   92427      25   92436   92433      24   92439   92433      24   92439
   92436      25   92445   92442      24   92448   92442      24   92448   92445
      25   92454   92451      24   92457   92451      24   92457   92454      25
   92463   92460      24   92466   92460      24   92466   92463      25   92472
   92469      24   92475   92469      24   92475   92472      25   92481   92478
      24   92484   92478      24   92484   92481      25   92490   92487      24
   92493   92487      24   92493   92490      25   92499   92496      24   92502
   92496      24   92502   92499      25   92508   92505      24   92511   92505
      24   92511   92508      25   92517   92514      24   92520   92514      24
   92520   92517      25   92526   92523      24   92529   92523      24   92529
   92526      25   92535   92532      24   92538   92532      24   92538   92535
      25   92544   92541      24   92547   92541      24   92547   92544      25
   92553   92550      24   92556   92550      24   92556   92553      25   92562
   92559      24   92565   92559      24   92565   92562      25   92571   92568
      24   92574   92568      24   92574   92571      25   92580   92577      24
   92583   92577      24   92583   92580      25   92589   92586      24   92592
   92586      24   92592   92589      25   92598   92595      24   92601   92595
      24   92601   92598      25   92607   92604      24   92610   92604      24
   92610   92607      25   92616   92613      24   92619   92613      24   92619
   92616      25   92625   92622      24   92628   92622      24   92628   92625
      25   92634   92631      24   92637   92631      24   92637   92634      25
   92643   92640      24   92646   92640      24   92646   92643      25   92652
   92649      24   92655   92649      24   92655   92652      25   92661   92658
      24   92664   92658      24   92664   92661      25   92670   92667      24
   92673   92667      24   92673   92670      25   92679   92676      24   92682
   92676      24   92682   92679      25   92688   92685      24   92691   92685
      24   92691   92688      25   92697   92694      24   92700   92694      24
   92700   92697      25   92706   92703      24   92709   92703      24   92709
   92706      25   92715   92712      24   92718   92712      24   92718   92715
      25   92724   92721      24   92727   92721      24   92727   92724      25
   92733   92730      24   92736   92730      24   92736   92733      25   92742
   92739      24   92745   92739      24   92745   92742      25   92751   92748
      24   92754   92748      24   92754   92751      25   92760   92757      24
   92763   92757      24   92763   92760      25   92769   92766      24   92772
   92766      24   92772   92769      25   92778   92775      24   92781   92775
      24   92781   92778      25   92787   92784      24   92790   92784      24
   92790   92787      25   92796   92793      24   92799   92793      24   92799
   92796      25   92805   92802      24   92808   92802      24   92808   92805
      25   92814   92811      24   92817   92811      24   92817   92814      25
   92823   92820      24   92826   92820      24   92826   92823      25   92832
   92829      24   92835   92829      24   92835   92832      25   92841   92838
      24   92844   92838      24   92844   92841      25   92850   92847      24
   92853   92847      24   92853   92850      25   92859   92856      24   92862
   92856      24   92862   92859      25   92868   92865      24   92871   92865
      24   92871   92868      25   92877   92874      24   92880   92874      24
   92880   92877      25   92886   92883      24   92889   92883      24   92889
   92886      25   92895   92892      24   92898   92892      24   92898   92895
      25   92904   92901      24   92907   92901      24   92907   92904      25
   92913   92910      24   92916   92910      24   92916   92913      25   92922
   92919      24   92925   92919      24   92925   92922      25   92931   92928
      24   92934   92928      24   92934   92931      25   92940   92937      24
   92943   92937      24   92943   92940      25   92949   92946      24   92952
   92946      24   92952   92949      25   92958   92955      24   92961   92955
      24   92961   92958      25   92967   92964      24   92970   92964      24
   92970   92967      25   92976   92973      24   92979   92973      24   92979
   92976      25   92985   92982      24   92988   92982      24   92988   92985
      25   92994   92991      24   92997   92991      24   92997   92994      25
   93003   93000      24   93006   93000      24   93006   93003      25   93012
   93009      24   93015   93009      24   93015   93012      25   93021   93018
      24   93024   93018      24   93024   93021      25   93030   93027      24
   93033   93027      24   93033   93030      25   93039   93036      24   93042
   93036      24   93042   93039      25   93048   93045      24   93051   93045
      24   93051   93048      25   93057   93054      24   93060   93054      24
   93060   93057      25   93066   93063      24   93069   93063      24   93069
   93066      25   93075   93072      24   93078   93072      24   93078   93075
      25   93084   93081      24   93087   93081      24   93087   93084      25
   93093   93090      24   93096   93090      24   93096   93093      25   93102
   93099      24   93105   93099      24   93105   93102      25   93111   93108
      24   93114   93108      24   93114   93111      25   93120   93117      24
   93123   93117      24   93123   93120      25   93129   93126      24   93132
   93126      24   93132   93129      25   93138   93135      24   93141   93135
      24   93141   93138      25   93147   93144      24   93150   93144      24
   93150   93147      25   93156   93153      24   93159   93153      24   93159
   93156      25   93165   93162      24   93168   93162      24   93168   93165
      25   93174   93171      24   93177   93171      24   93177   93174      25
   93183   93180      24   93186   93180      24   93186   93183      25   93192
   93189      24   93195   93189      24   93195   93192      25   93201   93198
      24   93204   93198      24   93204   93201      25   93210   93207      24
   93213   93207      24   93213   93210      25   93219   93216      24   93222
   93216      24   93222   93219      25   93228   93225      24   93231   93225
      24   93231   93228      25   93237   93234      24   93240   93234      24
   93240   93237      25   93246   93243      24   93249   93243      24   93249
   93246      25   93255   93252      24   93258   93252      24   93258   93255
      25   93264   93261      24   93267   93261      24   93267   93264      25
   93273   93270      24   93276   93270      24   93276   93273      25   93282
   93279      24   93285   93279      24   93285   93282      25   93291   93288
      24   93294   93288      24   93294   93291      25   93300   93297      24
   93303   93297      24   93303   93300      25   93309   93306      24   93312
   93306      24   93312   93309      25   93318   93315      24   93321   93315
      24   93321   93318      25   93327   93324      24   93330   93324      24
   93330   93327      25   93336   93333      24   93339   93333      24   93339
   93336      25   93345   93342      24   93348   93342      24   93348   93345
      25   93354   93351      24   93357   93351      24   93357   93354      25
   93363   93360      24   93366   93360      24   93366   93363      25   93372
   93369      24   93375   93369      24   93375   93372      25   93381   93378
      24   93384   93378      24   93384   93381      25   93390   93387      24
   93393   93387      24   93393   93390      25   93399   93396      24   93402
   93396      24   93402   93399      25   93408   93405      24   93411   93405
      24   93411   93408      25   93417   93414      24   93420   93414      24
   93420   93417      25   93426   93423      24   93429   93423      24   93429
   93426      25   93435   93432      24   93438   93432      24   93438   93435
      25   93444   93441      24   93447   93441      24   93447   93444      25
   93453   93450      24   93456   93450      24   93456   93453      25   93462
   93459      24   93465   93459      24   93465   93462      25   93471   93468
      24   93474   93468      24   93474   93471      25   93480   93477      24
   93483   93477      24   93483   93480      25   93489   93486      24   93492
   93486      24   93492   93489      25   93498   93495      24   93501   93495
      24   93501   93498      25   93507   93504      24   93510   93504      24
   93510   93507      25   93516   93513      24   93519   93513      24   93519
   93516      25   93525   93522      24   93528   93522      24   93528   93525
      25   93534   93531      24   93537   93531      24   93537   93534      25
   93543   93540      24   93546   93540      24   93546   93543      25   93552
   93549      24   93555   93549      24   93555   93552      25   93561   93558
      24   93564   93558      24   93564   93561      25   93570   93567      24
   93573   93567      24   93573   93570      25   93579   93576      24   93582
   93576      24   93582   93579      25   93588   93585      24   93591   93585
      24   93591   93588      25   93597   93594      24   93600   93594      24
   93600   93597      25   93606   93603      24   93609   93603      24   93609
   93606      25   93615   93612      24   93618   93612      24   93618   93615
      25   93624   93621      24   93627   93621      24   93627   93624      25
   93633   93630      24   93636   93630      24   93636   93633      25   93642
   93639      24   93645   93639      24   93645   93642      25   93651   93648
      24   93654   93648      24   93654   93651      25   93660   93657      24
   93663   93657      24   93663   93660      25   93669   93666      24   93672
   93666      24   93672   93669      25   93678   93675      24   93681   93675
      24   93681   93678      25   93687   93684      24   93690   93684      24
   93690   93687      25   93696   93693      24   93699   93693      24   93699
   93696      25   93705   93702      24   93708   93702      24   93708   93705
      25   93714   93711      24   93717   93711      24   93717   93714      25
   93723   93720      24   93726   93720      24   93726   93723      25   93732
   93729      24   93735   93729      24   93735   93732      25   93741   93738
      24   93744   93738      24   93744   93741      25   93750   93747      24
   93753   93747      24   93753   93750      25   93759   93756      24   93762
   93756      24   93762   93759      25   93768   93765      24   93771   93765
      24   93771   93768      25   93777   93774      24   93780   93774      24
   93780   93777      25   93786   93783      24   93789   93783      24   93789
   93786      25   93795   93792      24   93798   93792      24   93798   93795
      25   93804   93801      24   93807   93801      24   93807   93804      25
   93813   93810      24   93816   93810      24   93816   93813      25   93822
   93819      24   93825   93819      24   93825   93822      25   93831   93828
      24   93834   93828      24   93834   93831      25   93840   93837      24
   93843   93837      24   93843   93840      25   93849   93846      24   93852
   93846      24   93852   93849      25   93858   93855      24   93861   93855
      24   93861   93858      25   93867   93864      24   93870   93864      24
   93870   93867      25   93876   93873      24   93879   93873      24   93879
   93876      25   93885   93882      24   93888   93882      24   93888   93885
      25   93894   93891      24   93897   93891      24   93897   93894      25
   93903   93900      24   93906   93900      24   93906   93903      25   93912
   93909      24   93915   93909      24   93915   93912      25   93921   93918
      24   93924   93918      24   93924   93921      25   93930   93927      24
   93933   93927      24   93933   93930      25   93939   93936      24   93942
   93936      24   93942   93939      25   93948   93945      24   93951   93945
      24   93951   93948      25   93957   93954      24   93960   93954      24
   93960   93957      25   93966   93963      24   93969   93963      24   93969
   93966      25   93975   93972      24   93978   93972      24   93978   93975
      25   93984   93981      24   93987   93981      24   93987   93984      25
   93993   93990      24   93996   93990      24   93996   93993      25   94002
   93999      24   94005   93999      24   94005   94002      25   94011   94008
      24   94014   94008      24   94014   94011      25   94020   94017      24
   94023   94017      24   94023   94020      25   94029   94026      24   94032
   94026      24   94032   94029      25   94038   94035      24   94041   94035
      24   94041   94038      25   94047   94044      24   94050   94044      24
   94050   94047      25   94056   94053      24   94059   94053      24   94059
   94056      25   94065   94062      24   94068   94062      24   94068   94065
      25   94074   94071      24   94077   94071      24   94077   94074      25
   94083   94080      24   94086   94080      24   94086   94083      25   94092
   94089      24   94095   94089      24   94095   94092      25   94101   94098
      24   94104   94098      24   94104   94101      25   94110   94107      24
   94113   94107      24   94113   94110      25   94119   94116      24   94122
   94116      24   94122   94119      25   94128   94125      24   94131   94125
      24   94131   94128      25   94137   94134      24   94140   94134      24
   94140   94137      25   94146   94143      24   94149   94143      24   94149
   94146      25   94155   94152      24   94158   94152      24   94158   94155
      25   94164   94161      24   94167   94161      24   94167   94164      25
   94173   94170      24   94176   94170      24   94176   94173      25   94182
   94179      24   94185   94179      24   94185   94182      25   94191   94188
      24   94194   94188      24   94194   94191      25   94200   94197      24
   94203   94197      24   94203   94200      25   94209   94206      24   94212
   94206      24   94212   94209      25   94218   94215      24   94221   94215
      24   94221   94218      25   94227   94224      24   94230   94224      24
   94230   94227      25   94236   94233      24   94239   94233      24   94239
   94236      25   94245   94242      24   94248   94242      24   94248   94245
      25   94254   94251      24   94257   94251      24   94257   94254      25
   94263   94260      24   94266   94260      24   94266   94263      25   94272
   94269      24   94275   94269      24   94275   94272      25   94281   94278
      24   94284   94278      24   94284   94281      25   94290   94287      24
   94293   94287      24   94293   94290      25   94299   94296      24   94302
   94296      24   94302   94299      25   94308   94305      24   94311   94305
      24   94311   94308      25   94317   94314      24   94320   94314      24
   94320   94317      25   94326   94323      24   94329   94323      24   94329
   94326      25   94335   94332      24   94338   94332      24   94338   94335
      25   94344   94341      24   94347   94341      24   94347   94344      25
   94353   94350      24   94356   94350      24   94356   94353      25   94362
   94359      24   94365   94359      24   94365   94362      25   94371   94368
      24   94374   94368      24   94374   94371      25   94380   94377      24
   94383   94377      24   94383   94380      25   94389   94386      24   94392
   94386      24   94392   94389      25   94398   94395      24   94401   94395
      24   94401   94398      25   94407   94404      24   94410   94404      24
   94410   94407      25   94416   94413      24   94419   94413      24   94419
   94416      25   94425   94422      24   94428   94422      24   94428   94425
      25   94434   94431      24   94437   94431      24   94437   94434      25
   94443   94440      24   94446   94440      24   94446   94443      25   94452
   94449      24   94455   94449      24   94455   94452      25   94461   94458
      24   94464   94458      24   94464   94461      25   94470   94467      24
   94473   94467      24   94473   94470      25   94479   94476      24   94482
   94476      24   94482   94479      25   94488   94485      24   94491   94485
      24   94491   94488      25   94497   94494      24   94500   94494      24
   94500   94497      25   94506   94503      24   94509   94503      24   94509
   94506      25   94515   94512      24   94518   94512      24   94518   94515
      25   94524   94521      24   94527   94521      24   94527   94524      25
   94533   94530      24   94536   94530      24   94536   94533      25   94542
   94539      24   94545   94539      24   94545   94542      25   94551   94548
      24   94554   94548      24   94554   94551      25   94560   94557      24
   94563   94557      24   94563   94560      25   94569   94566      24   94572
   94566      24   94572   94569      25   94578   94575      24   94581   94575
      24   94581   94578      25   94587   94584      24   94590   94584      24
   94590   94587      25   94596   94593      24   94599   94593      24   94599
   94596      25   94605   94602      24   94608   94602      24   94608   94605
      25   94614   94611      24   94617   94611      24   94617   94614      25
   94623   94620      24   94626   94620      24   94626   94623      25   94632
   94629      24   94635   94629      24   94635   94632      25   94641   94638
      24   94644   94638      24   94644   94641      25   94650   94647      24
   94653   94647      24   94653   94650      25   94659   94656      24   94662
   94656      24   94662   94659      25   94668   94665      24   94671   94665
      24   94671   94668      25   94677   94674      24   94680   94674      24
   94680   94677      25   94686   94683      24   94689   94683      24   94689
   94686      25   94695   94692      24   94698   94692      24   94698   94695
      25   94704   94701      24   94707   94701      24   94707   94704      25
   94713   94710      24   94716   94710      24   94716   94713      25   94722
   94719      24   94725   94719      24   94725   94722      25   94731   94728
      24   94734   94728      24   94734   94731      25   94740   94737      24
   94743   94737      24   94743   94740      25   94749   94746      24   94752
   94746      24   94752   94749      25   94758   94755      24   94761   94755
      24   94761   94758      25   94767   94764      24   94770   94764      24
   94770   94767      25   94776   94773      24   94779   94773      24   94779
   94776      25   94785   94782      24   94788   94782      24   94788   94785
      25   94794   94791      24   94797   94791      24   94797   94794      25
   94803   94800      24   94806   94800      24   94806   94803      25   94812
   94809      24   94815   94809      24   94815   94812      25   94821   94818
      24   94824   94818      24   94824   94821      25   94830   94827      24
   94833   94827      24   94833   94830      25   94839   94836      24   94842
   94836      24   94842   94839      25   94848   94845      24   94851   94845
      24   94851   94848      25   94857   94854      24   94860   94854      24
   94860   94857      25   94866   94863      24   94869   94863      24   94869
   94866      25   94875   94872      24   94878   94872      24   94878   94875
      25   94884   94881      24   94887   94881      24   94887   94884      25
   94893   94890      24   94896   94890      24   94896   94893      25   94902
   94899      24   94905   94899      24   94905   94902      25   94911   94908
      24   94914   94908      24   94914   94911      25   94920   94917      24
   94923   94917      24   94923   94920      25   94929   94926      24   94932
   94926      24   94932   94929      25   94938   94935      24   94941   94935
      24   94941   94938      25   94947   94944      24   94950   94944      24
   94950   94947      25   94956   94953      24   94959   94953      24   94959
   94956      25   94965   94962      24   94968   94962      24   94968   94965
      25   94974   94971      24   94977   94971      24   94977   94974      25
   94983   94980      24   94986   94980      24   94986   94983      25   94992
   94989      24   94995   94989      24   94995   94992      25   95001   94998
      24   95004   94998      24   95004   95001      25   95010   95007      24
   95013   95007      24   95013   95010      25   95019   95016      24   95022
   95016      24   95022   95019      25   95028   95025      24   95031   95025
      24   95031   95028      25   95037   95034      24   95040   95034      24
   95040   95037      25   95046   95043      24   95049   95043      24   95049
   95046      25   95055   95052      24   95058   95052      24   95058   95055
      25   95064   95061      24   95067   95061      24   95067   95064      25
   95073   95070      24   95076   95070      24   95076   95073      25   95082
   95079      24   95085   95079      24   95085   95082      25   95091   95088
      24   95094   95088      24   95094   95091      25   95100   95097      24
   95103   95097      24   95103   95100      25   95109   95106      24   95112
   95106      24   95112   95109      25   95118   95115      24   95121   95115
      24   95121   95118      25   95127   95124      24   95130   95124      24
   95130   95127      25   95136   95133      24   95139   95133      24   95139
   95136      25   95145   95142      24   95148   95142      24   95148   95145
      25   95154   95151      24   95157   95151      24   95157   95154      25
   95163   95160      24   95166   95160      24   95166   95163      25   95172
   95169      24   95175   95169      24   95175   95172      25   95181   95178
      24   95184   95178      24   95184   95181      25   95190   95187      24
   95193   95187      24   95193   95190      25   95199   95196      24   95202
   95196      24   95202   95199      25   95208   95205      24   95211   95205
      24   95211   95208      25   95217   95214      24   95220   95214      24
   95220   95217      25   95226   95223      24   95229   95223      24   95229
   95226      25   95235   95232      24   95238   95232      24   95238   95235
      25   95244   95241      24   95247   95241      24   95247   95244      25
   95253   95250      24   95256   95250      24   95256   95253      25   95262
   95259      24   95265   95259      24   95265   95262      25   95271   95268
      24   95274   95268      24   95274   95271      25   95280   95277      24
   95283   95277      24   95283   95280      25   95289   95286      24   95292
   95286      24   95292   95289      25   95298   95295      24   95301   95295
      24   95301   95298      25   95307   95304      24   95310   95304      24
   95310   95307      25   95316   95313      24   95319   95313      24   95319
   95316      25   95325   95322      24   95328   95322      24   95328   95325
      25   95334   95331      24   95337   95331      24   95337   95334      25
   95343   95340      24   95346   95340      24   95346   95343      25   95352
   95349      24   95355   95349      24   95355   95352      25   95361   95358
      24   95364   95358      24   95364   95361      25   95370   95367      24
   95373   95367      24   95373   95370      25   95379   95376      24   95382
   95376      24   95382   95379      25   95388   95385      24   95391   95385
      24   95391   95388      25   95397   95394      24   95400   95394      24
   95400   95397      25   95406   95403      24   95409   95403      24   95409
   95406      25   95415   95412      24   95418   95412      24   95418   95415
      25   95424   95421      24   95427   95421      24   95427   95424      25
   95433   95430      24   95436   95430      24   95436   95433      25   95442
   95439      24   95445   95439      24   95445   95442      25   95451   95448
      24   95454   95448      24   95454   95451      25   95460   95457      24
   95463   95457      24   95463   95460      25   95469   95466      24   95472
   95466      24   95472   95469      25   95478   95475      24   95481   95475
      24   95481   95478      25   95487   95484      24   95490   95484      24
   95490   95487      25   95496   95493      24   95499   95493      24   95499
   95496      25   95505   95502      24   95508   95502      24   95508   95505
      25   95514   95511      24   95517   95511      24   95517   95514      25
   95523   95520      24   95526   95520      24   95526   95523      25   95532
   95529      24   95535   95529      24   95535   95532      25   95541   95538
      24   95544   95538      24   95544   95541      25   95550   95547      24
   95553   95547      24   95553   95550      25   95559   95556      24   95562
   95556      24   95562   95559      25   95568   95565      24   95571   95565
      24   95571   95568      25   95577   95574      24   95580   95574      24
   95580   95577      25   95586   95583      24   95589   95583      24   95589
   95586      25   95595   95592      24   95598   95592      24   95598   95595
      25   95604   95601      24   95607   95601      24   95607   95604      25
   95613   95610      24   95616   95610      24   95616   95613      25   95622
   95619      24   95625   95619      24   95625   95622      25   95631   95628
      24   95634   95628      24   95634   95631      25   95640   95637      24
   95643   95637      24   95643   95640      25   95649   95646      24   95652
   95646      24   95652   95649      25   95658   95655      24   95661   95655
      24   95661   95658      25   95667   95664      24   95670   95664      24
   95670   95667      25   95676   95673      24   95679   95673      24   95679
   95676      25   95685   95682      24   95688   95682      24   95688   95685
      25   95694   95691      24   95697   95691      24   95697   95694      25
   95703   95700      24   95706   95700      24   95706   95703      25   95712
   95709      24   95715   95709      24   95715   95712      25   95721   95718
      24   95724   95718      24   95724   95721      25   95730   95727      24
   95733   95727      24   95733   95730      25   95739   95736      24   95742
   95736      24   95742   95739      25   95748   95745      24   95751   95745
      24   95751   95748      25   95757   95754      24   95760   95754      24
   95760   95757      25   95766   95763      24   95769   95763      24   95769
   95766      25   95775   95772      24   95778   95772      24   95778   95775
      25   95784   95781      24   95787   95781      24   95787   95784      25
   95793   95790      24   95796   95790      24   95796   95793      25   95802
   95799      24   95805   95799      24   95805   95802      25   95811   95808
      24   95814   95808      24   95814   95811      25   95820   95817      24
   95823   95817      24   95823   95820      25   95829   95826      24   95832
   95826      24   95832   95829      25   95838   95835      24   95841   95835
      24   95841   95838      25   95847   95844      24   95850   95844      24
   95850   95847      25   95856   95853      24   95859   95853      24   95859
   95856      25   95865   95862      24   95868   95862      24   95868   95865
      25   95874   95871      24   95877   95871      24   95877   95874      25
   95883   95880      24   95886   95880      24   95886   95883      25   95892
   95889      24   95895   95889      24   95895   95892      25   95901   95898
      24   95904   95898      24   95904   95901      25   95910   95907      24
   95913   95907      24   95913   95910      25   95919   95916      24   95922
   95916      24   95922   95919      25   95928   95925      24   95931   95925
      24   95931   95928      25   95937   95934      24   95940   95934      24
   95940   95937      25   95946   95943      24   95949   95943      24   95949
   95946      25   95955   95952      24   95958   95952      24   95958   95955
      25   95964   95961      24   95967   95961      24   95967   95964      25
   95973   95970      24   95976   95970      24   95976   95973      25   95982
   95979      24   95985   95979      24   95985   95982      25   95991   95988
      24   95994   95988      24   95994   95991      25   96000   95997      24
   96003   95997      24   96003   96000      25   96009   96006      24   96012
   96006      24   96012   96009      25   96018   96015      24   96021   96015
      24   96021   96018      25   96027   96024      24   96030   96024      24
   96030   96027      25   96036   96033      24   96039   96033      24   96039
   96036      25   96045   96042      24   96048   96042      24   96048   96045
      25   96054   96051      24   96057   96051      24   96057   96054      25
   96063   96060      24   96066   96060      24   96066   96063      25   96072
   96069      24   96075   96069      24   96075   96072      25   96081   96078
      24   96084   96078      24   96084   96081      25   96090   96087      24
   96093   96087      24   96093   96090      25   96099   96096      24   96102
   96096      24   96102   96099      25   96108   96105      24   96111   96105
      24   96111   96108      25   96117   96114      24   96120   96114      24
   96120   96117      25   96126   96123      24   96129   96123      24   96129
   96126      25   96135   96132      24   96138   96132      24   96138   96135
      25   96144   96141      24   96147   96141      24   96147   96144      25
   96153   96150      24   96156   96150      24   96156   96153      25   96162
   96159      24   96165   96159      24   96165   96162      25   96171   96168
      24   96174   96168      24   96174   96171      25   96180   96177      24
   96183   96177      24   96183   96180      25   96189   96186      24   96192
   96186      24   96192   96189      25   96198   96195      24   96201   96195
      24   96201   96198      25   96207   96204      24   96210   96204      24
   96210   96207      25   96216   96213      24   96219   96213      24   96219
   96216      25   96225   96222      24   96228   96222      24   96228   96225
      25   96234   96231      24   96237   96231      24   96237   96234      25
   96243   96240      24   96246   96240      24   96246   96243      25   96252
   96249      24   96255   96249      24   96255   96252      25   96261   96258
      24   96264   96258      24   96264   96261      25   96270   96267      24
   96273   96267      24   96273   96270      25   96279   96276      24   96282
   96276      24   96282   96279      25   96288   96285      24   96291   96285
      24   96291   96288      25   96297   96294      24   96300   96294      24
   96300   96297      25   96306   96303      24   96309   96303      24   96309
   96306      25   96315   96312      24   96318   96312      24   96318   96315
      25   96324   96321      24   96327   96321      24   96327   96324      25
   96333   96330      24   96336   96330      24   96336   96333      25   96342
   96339      24   96345   96339      24   96345   96342      25   96351   96348
      24   96354   96348      24   96354   96351      25   96360   96357      24
   96363   96357      24   96363   96360      25   96369   96366      24   96372
   96366      24   96372   96369      25   96378   96375      24   96381   96375
      24   96381   96378      25   96387   96384      24   96390   96384      24
   96390   96387      25   96396   96393      24   96399   96393      24   96399
   96396      25   96405   96402      24   96408   96402      24   96408   96405
      25   96414   96411      24   96417   96411      24   96417   96414      25
   96423   96420      24   96426   96420      24   96426   96423      25   96432
   96429      24   96435   96429      24   96435   96432      25   96441   96438
      24   96444   96438      24   96444   96441      25   96450   96447      24
   96453   96447      24   96453   96450      25   96459   96456      24   96462
   96456      24   96462   96459      25   96468   96465      24   96471   96465
      24   96471   96468      25   96477   96474      24   96480   96474      24
   96480   96477      25   96486   96483      24   96489   96483      24   96489
   96486      25   96495   96492      24   96498   96492      24   96498   96495
      25   96504   96501      24   96507   96501      24   96507   96504      25
   96513   96510      24   96516   96510      24   96516   96513      25   96522
   96519      24   96525   96519      24   96525   96522      25   96531   96528
      24   96534   96528      24   96534   96531      25   96540   96537      24
   96543   96537      24   96543   96540      25   96549   96546      24   96552
   96546      24   96552   96549      25   96558   96555      24   96561   96555
      24   96561   96558      25   96567   96564      24   96570   96564      24
   96570   96567      25   96576   96573      24   96579   96573      24   96579
   96576      25   96585   96582      24   96588   96582      24   96588   96585
      25   96594   96591      24   96597   96591      24   96597   96594      25
   96603   96600      24   96606   96600      24   96606   96603      25   96612
   96609      24   96615   96609      24   96615   96612      25   96621   96618
      24   96624   96618      24   96624   96621      25   96630   96627      24
   96633   96627      24   96633   96630      25   96639   96636      24   96642
   96636      24   96642   96639      25   96648   96645      24   96651   96645
      24   96651   96648      25   96657   96654      24   96660   96654      24
   96660   96657      25   96666   96663      24   96669   96663      24   96669
   96666      25   96675   96672      24   96678   96672      24   96678   96675
      25   96684   96681      24   96687   96681      24   96687   96684      25
   96693   96690      24   96696   96690      24   96696   96693      25   96702
   96699      24   96705   96699      24   96705   96702      25   96711   96708
      24   96714   96708      24   96714   96711      25   96720   96717      24
   96723   96717      24   96723   96720      25   96729   96726      24   96732
   96726      24   96732   96729      25   96738   96735      24   96741   96735
      24   96741   96738      25   96747   96744      24   96750   96744      24
   96750   96747      25   96756   96753      24   96759   96753      24   96759
   96756      25   96765   96762      24   96768   96762      24   96768   96765
      25   96774   96771      24   96777   96771      24   96777   96774      25
   96783   96780      24   96786   96780      24   96786   96783      25   96792
   96789      24   96795   96789      24   96795   96792      25   96801   96798
      24   96804   96798      24   96804   96801      25   96810   96807      24
   96813   96807      24   96813   96810      25   96819   96816      24   96822
   96816      24   96822   96819      25   96828   96825      24   96831   96825
      24   96831   96828      25   96837   96834      24   96840   96834      24
   96840   96837      25   96846   96843      24   96849   96843      24   96849
   96846      25   96855   96852      24   96858   96852      24   96858   96855
      25   96864   96861      24   96867   96861      24   96867   96864      25
   96873   96870      24   96876   96870      24   96876   96873      25   96882
   96879      24   96885   96879      24   96885   96882      25   96891   96888
      24   96894   96888      24   96894   96891      25   96900   96897      24
   96903   96897      24   96903   96900      25   96909   96906      24   96912
   96906      24   96912   96909      25   96918   96915      24   96921   96915
      24   96921   96918      25   96927   96924      24   96930   96924      24
   96930   96927      25   96936   96933      24   96939   96933      24   96939
   96936      25   96945   96942      24   96948   96942      24   96948   96945
      25   96954   96951      24   96957   96951      24   96957   96954      25
   96963   96960      24   96966   96960      24   96966   96963      25   96972
   96969      24   96975   96969      24   96975   96972      25   96981   96978
      24   96984   96978      24   96984   96981      25   96990   96987      24
   96993   96987      24   96993   96990      25   96999   96996      24   97002
   96996      24   97002   96999      25   97008   97005      24   97011   97005
      24   97011   97008      25   97017   97014      24   97020   97014      24
   97020   97017      25   97026   97023      24   97029   97023      24   97029
   97026      25   97035   97032      24   97038   97032      24   97038   97035
      25   97044   97041      24   97047   97041      24   97047   97044      25
   97053   97050      24   97056   97050      24   97056   97053      25   97062
   97059      24   97065   97059      24   97065   97062      25   97071   97068
      24   97074   97068      24   97074   97071      25   97080   97077      24
   97083   97077      24   97083   97080      25   97089   97086      24   97092
   97086      24   97092   97089      25   97098   97095      24   97101   97095
      24   97101   97098      25   97107   97104      24   97110   97104      24
   97110   97107      25   97116   97113      24   97119   97113      24   97119
   97116      25   97125   97122      24   97128   97122      24   97128   97125
      25   97134   97131      24   97137   97131      24   97137   97134      25
   97143   97140      24   97146   97140      24   97146   97143      25   97152
   97149      24   97155   97149      24   97155   97152      25   97161   97158
      24   97164   97158      24   97164   97161      25   97170   97167      24
   97173   97167      24   97173   97170      25   97179   97176      24   97182
   97176      24   97182   97179      25   97188   97185      24   97191   97185
      24   97191   97188      25   97197   97194      24   97200   97194      24
   97200   97197      25   97206   97203      24   97209   97203      24   97209
   97206      25   97215   97212      24   97218   97212      24   97218   97215
      25   97224   97221      24   97227   97221      24   97227   97224      25
   97233   97230      24   97236   97230      24   97236   97233      25   97242
   97239      24   97245   97239      24   97245   97242      25   97251   97248
      24   97254   97248      24   97254   97251      25   97260   97257      24
   97263   97257      24   97263   97260      25   97269   97266      24   97272
   97266      24   97272   97269      25   97278   97275      24   97281   97275
      24   97281   97278      25   97287   97284      24   97290   97284      24
   97290   97287      25   97296   97293      24   97299   97293      24   97299
   97296      25   97305   97302      24   97308   97302      24   97308   97305
      25   97314   97311      24   97317   97311      24   97317   97314      25
   97323   97320      24   97326   97320      24   97326   97323      25   97332
   97329      24   97335   97329      24   97335   97332      25   97341   97338
      24   97344   97338      24   97344   97341      25   97350   97347      24
   97353   97347      24   97353   97350      25   97359   97356      24   97362
   97356      24   97362   97359      25   97368   97365      24   97371   97365
      24   97371   97368      25   97377   97374      24   97380   97374      24
   97380   97377      25   97386   97383      24   97389   97383      24   97389
   97386      25   97395   97392      24   97398   97392      24   97398   97395
      25   97404   97401      24   97407   97401      24   97407   97404      25
   97413   97410      24   97416   97410      24   97416   97413      25   97422
   97419      24   97425   97419      24   97425   97422      25   97431   97428
      24   97434   97428      24   97434   97431      25   97440   97437      24
   97443   97437      24   97443   97440      25   97449   97446      24   97452
   97446      24   97452   97449      25   97458   97455      24   97461   97455
      24   97461   97458      25   97467   97464      24   97470   97464      24
   97470   97467      25   97476   97473      24   97479   97473      24   97479
   97476      25   97485   97482      24   97488   97482      24   97488   97485
      25   97494   97491      24   97497   97491      24   97497   97494      25
   97503   97500      24   97506   97500      24   97506   97503      25   97512
   97509      24   97515   97509      24   97515   97512      25   97521   97518
      24   97524   97518      24   97524   97521      25   97530   97527      24
   97533   97527      24   97533   97530      25   97539   97536      24   97542
   97536      24   97542   97539      25   97548   97545      24   97551   97545
      24   97551   97548      25   97557   97554      24   97560   97554      24
   97560   97557      25   97566   97563      24   97569   97563      24   97569
   97566      25   97575   97572      24   97578   97572      24   97578   97575
      25   97584   97581      24   97587   97581      24   97587   97584      25
   97593   97590      24   97596   97590      24   97596   97593      25   97602
   97599      24   97605   97599      24   97605   97602      25   97611   97608
      24   97614   97608      24   97614   97611      25   97620   97617      24
   97623   97617      24   97623   97620      25   97629   97626      24   97632
   97626      24   97632   97629      25   97638   97635      24   97641   97635
      24   97641   97638      25   97647   97644      24   97650   97644      24
   97650   97647      25   97656   97653      24   97659   97653      24   97659
   97656      25   97665   97662      24   97668   97662      24   97668   97665
      25   97674   97671      24   97677   97671      24   97677   97674      25
   97683   97680      24   97686   97680      24   97686   97683      25   97692
   97689      24   97695   97689      24   97695   97692      25   97701   97698
      24   97704   97698      24   97704   97701      25   97710   97707      24
   97713   97707      24   97713   97710      25   97719   97716      24   97722
   97716      24   97722   97719      25   97728   97725      24   97731   97725
      24   97731   97728      25   97737   97734      24   97740   97734      24
   97740   97737      25   97746   97743      24   97749   97743      24   97749
   97746      25   97755   97752      24   97758   97752      24   97758   97755
      25   97764   97761      24   97767   97761      24   97767   97764      25
   97773   97770      24   97776   97770      24   97776   97773      25   97782
   97779      24   97785   97779      24   97785   97782      25   97791   97788
      24   97794   97788      24   97794   97791      25   97800   97797      24
   97803   97797      24   97803   97800      25   97809   97806      24   97812
   97806      24   97812   97809      25   97818   97815      24   97821   97815
      24   97821   97818      25   97827   97824      24   97830   97824      24
   97830   97827      25   97836   97833      24   97839   97833      24   97839
   97836      25   97845   97842      24   97848   97842      24   97848   97845
      25   97854   97851      24   97857   97851      24   97857   97854      25
   97863   97860      24   97866   97860      24   97866   97863      25   97872
   97869      24   97875   97869      24   97875   97872      25   97881   97878
      24   97884   97878      24   97884   97881      25
%FLAG BONDS_WITHOUT_HYDROGEN                                                    
%FORMAT(10I8)                                                                   
      42      45       1      36      42       1      36      39       1      33
      36       1      30      33       1      27      30       1      27      45
       1      24      27       1      21      24       1      18      21       1
      15      45       1      15      18       1      12      15       1       9
      12       1       6       9       1       6      42       1       3       6
       1       0      39       1       0       3       1      78     105       4
     171     174       5     165     168       7     159     162       7     159
     165      10     156     159      11     150     153      13     147     156
      11     147     150      14     141     147      10     141     144       7
     138     165      10     138     141      10     135     138      11     132
     135      15     129     132      17     126     129      17     123     126
      17     120     171      18     120     123      19     114     270       4
     111     114      21     108     111      22     102     105      21     102
     108      22      99     102      22      99     171      23      93     111
      22      93      99      22      90      93      23      90     120      18
      87      90       5     336     339       5     330     333       7     324
     327       7     324     330      10     321     324      11     315     318
      13     312     321      11     312     315      14     306     312      10
     306     309       7     303     330      10     303     306      10     300
     303      11     297     300      15     294     297      17     291     294
      17     288     291      17     285     336      18     285     288      19
     279     435       4     276     279      21     273     276      22     267
     270      21     267     273      22     264     267      22     264     336
      23     258     276      22     258     264      22     255     258      23
     255     285      18     252     255       5     501     504       5     495
     498       7     489     492       7     489     495      10     486     489
      11     480     483      13     477     486      11     477     480      14
     471     477      10     471     474       7     468     495      10     468
     471      10     465     468      11     462     465      15     459     462
      17     456     459      17     453     456      17     450     501      18
     450     453      19     444     600       4     441     444      21     438
     441      22     432     435      21     432     438      22     429     432
      22     429     501      23     423     441      22     423     429      22
     420     423      23     420     450      18     417     420       5     666
     669       5     660     663       7     654     657       7     654     660
      10     651     654      11     645     648      13     642     651      11
     642     645      14     636     642      10     636     639       7     633
     660      10     633     636      10     630     633      11     627     630
      15     624     627      17     621     624      17     618     621      17
     615     666      18     615     618      19     609     765       4     606
     609      21     603     606      22     597     600      21     597     603
      22     594     597      22     594     666      23     588     606      22
     588     594      22     585     588      23     585     615      18     582
     585       5     831     834       5     825     828       7     819     822
       7     819     825      10     816     819      11     810     813      13
     807     816      11     807     810      14     801     807      10     801
     804       7     798     825      10     798     801      10     795     798
      11     792     795      15     789     792      17     786     789      17
     783     786      17     780     831      18     780     783      19     774
     930       4     771     774      21     768     771      22     762     765
      21     762     768      22     759     762      22     759     831      23
     753     771      22     753     759      22     750     753      23     750
     780      18     747     750       5     996     999       5     990     993
       7     984     987       7     984     990      10     981     984      11
     975     978      13     972     981      11     972     975      14     966
     972      10     966     969       7     963     990      10     963     966
      10     960     963      11     957     960      15     954     957      17
     951     954      17     948     951      17     945     996      18     945
     948      19     939    1095       4     936     939      21     933     936
      22     927     930      21     927     933      22     924     927      22
     924     996      23     918     936      22     918     924      22     915
     918      23     915     945      18     912     915       5    1161    1164
       5    1155    1158       7    1149    1152       7    1149    1155      10
    1146    1149      11    1140    1143      13    1137    1146      11    1137
    1140      14    1131    1137      10    1131    1134       7    1128    1155
      10    1128    1131      10    1125    1128      11    1122    1125      15
    1119    1122      17    1116    1119      17    1113    1116      17    1110
    1161      18    1110    1113      19    1104    1260       4    1101    1104
      21    1098    1101      22    1092    1095      21    1092    1098      22
    1089    1092      22    1089    1161      23    1083    1101      22    1083
    1089      22    1080    1083      23    1080    1110      18    1077    1080
       5    1326    1329       5    1320    1323       7    1314    1317       7
    1314    1320      10    1311    1314      11    1305    1308      13    1302
    1311      11    1302    1305      14    1296    1302      10    1296    1299
       7    1293    1320      10    1293    1296      10    1290    1293      11
    1287    1290      15    1284    1287      17    1281    1284      17    1278
    1281      17    1275    1326      18    1275    1278      19    1269    1425
       4    1266    1269      21    1263    1266      22    1257    1260      21
    1257    1263      22    1254    1257      22    1254    1326      23    1248
    1266      22    1248    1254      22    1245    1248      23    1245    1275
      18    1242    1245       5    1491    1494       5    1485    1488       7
    1479    1482       7    1479    1485      10    1476    1479      11    1470
    1473      13    1467    1476      11    1467    1470      14    1461    1467
      10    1461    1464       7    1458    1485      10    1458    1461      10
    1455    1458      11    1452    1455      15    1449    1452      17    1446
    1449      17    1443    1446      17    1440    1491      18    1440    1443
      19    1434    1590       4    1431    1434      21    1428    1431      22
    1422    1425      21    1422    1428      22    1419    1422      22    1419
    1491      23    1413    1431      22    1413    1419      22    1410    1413
      23    1410    1440      18    1407    1410       5    1656    1659       5
    1650    1653       7    1644    1647       7    1644    1650      10    1641
    1644      11    1635    1638      13    1632    1641      11    1632    1635
      14    1626    1632      10    1626    1629       7    1623    1650      10
    1623    1626      10    1620    1623      11    1617    1620      15    1614
    1617      17    1611    1614      17    1608    1611      17    1605    1656
      18    1605    1608      19    1599    1737       4    1596    1599      21
    1593    1596      22    1587    1590      21    1587    1593      22    1584
    1587      22    1584    1656      23    1578    1596      22    1578    1584
      22    1575    1578      23    1575    1605      18    1572    1575       5
    1746    1773       4    1839    1842       5    1833    1836       7    1827
    1830       7    1827    1833      10    1824    1827      11    1818    1821
      13    1815    1824      11    1815    1818      14    1809    1815      10
    1809    1812       7    1806    1833      10    1806    1809      10    1803
    1806      11    1800    1803      15    1797    1800      17    1794    1797
      17    1791    1794      17    1788    1839      18    1788    1791      19
    1782    1938       4    1779    1782      21    1776    1779      22    1770
    1773      21    1770    1776      22    1767    1770      22    1767    1839
      23    1761    1779      22    1761    1767      22    1758    1761      23
    1758    1788      18    1755    1758       5    2004    2007       5    1998
    2001       7    1992    1995       7    1992    1998      10    1989    1992
      11    1983    1986      13    1980    1989      11    1980    1983      14
    1974    1980      10    1974    1977       7    1971    1998      10    1971
    1974      10    1968    1971      11    1965    1968      15    1962    1965
      17    1959    1962      17    1956    1959      17    1953    2004      18
    1953    1956      19    1947    2103       4    1944    1947      21    1941
    1944      22    1935    1938      21    1935    1941      22    1932    1935
      22    1932    2004      23    1926    1944      22    1926    1932      22
    1923    1926      23    1923    1953      18    1920    1923       5    2169
    2172       5    2163    2166       7    2157    2160       7    2157    2163
      10    2154    2157      11    2148    2151      13    2145    2154      11
    2145    2148      14    2139    2145      10    2139    2142       7    2136
    2163      10    2136    2139      10    2133    2136      11    2130    2133
      15    2127    2130      17    2124    2127      17    2121    2124      17
    2118    2169      18    2118    2121      19    2112    2268       4    2109
    2112      21    2106    2109      22    2100    2103      21    2100    2106
      22    2097    2100      22    2097    2169      23    2091    2109      22
    2091    2097      22    2088    2091      23    2088    2118      18    2085
    2088       5    2334    2337       5    2328    2331       7    2322    2325
       7    2322    2328      10    2319    2322      11    2313    2316      13
    2310    2319      11    2310    2313      14    2304    2310      10    2304
    2307       7    2301    2328      10    2301    2304      10    2298    2301
      11    2295    2298      15    2292    2295      17    2289    2292      17
    2286    2289      17    2283    2334      18    2283    2286      19    2277
    2433       4    2274    2277      21    2271    2274      22    2265    2268
      21    2265    2271      22    2262    2265      22    2262    2334      23
    2256    2274      22    2256    2262      22    2253    2256      23    2253
    2283      18    2250    2253       5    2499    2502       5    2493    2496
       7    2487    2490       7    2487    2493      10    2484    2487      11
    2478    2481      13    2475    2484      11    2475    2478      14    2469
    2475      10    2469    2472       7    2466    2493      10    2466    2469
      10    2463    2466      11    2460    2463      15    2457    2460      17
    2454    2457      17    2451    2454      17    2448    2499      18    2448
    2451      19    2442    2598       4    2439    2442      21    2436    2439
      22    2430    2433      21    2430    2436      22    2427    2430      22
    2427    2499      23    2421    2439      22    2421    2427      22    2418
    2421      23    2418    2448      18    2415    2418       5    2664    2667
       5    2658    2661       7    2652    2655       7    2652    2658      10
    2649    2652      11    2643    2646      13    2640    2649      11    2640
    2643      14    2634    2640      10    2634    2637       7    2631    2658
      10    2631    2634      10    2628    2631      11    2625    2628      15
    2622    2625      17    2619    2622      17    2616    2619      17    2613
    2664      18    2613    2616      19    2607    2763       4    2604    2607
      21    2601    2604      22    2595    2598      21    2595    2601      22
    2592    2595      22    2592    2664      23    2586    2604      22    2586
    2592      22    2583    2586      23    2583    2613      18    2580    2583
       5    2829    2832       5    2823    2826       7    2817    2820       7
    2817    2823      10    2814    2817      11    2808    2811      13    2805
    2814      11    2805    2808      14    2799    2805      10    2799    2802
       7    2796    2823      10    2796    2799      10    2793    2796      11
    2790    2793      15    2787    2790      17    2784    2787      17    2781
    2784      17    2778    2829      18    2778    2781      19    2772    2928
       4    2769    2772      21    2766    2769      22    2760    2763      21
    2760    2766      22    2757    2760      22    2757    2829      23    2751
    2769      22    2751    2757      22    2748    2751      23    2748    2778
      18    2745    2748       5    2994    2997       5    2988    2991       7
    2982    2985       7    2982    2988      10    2979    2982      11    2973
    2976      13    2970    2979      11    2970    2973      14    2964    2970
      10    2964    2967       7    2961    2988      10    2961    2964      10
    2958    2961      11    2955    2958      15    2952    2955      17    2949
    2952      17    2946    2949      17    2943    2994      18    2943    2946
      19    2937    3093       4    2934    2937      21    2931    2934      22
    2925    2928      21    2925    2931      22    2922    2925      22    2922
    2994      23    2916    2934      22    2916    2922      22    2913    2916
      23    2913    2943      18    2910    2913       5    3159    3162       5
    3153    3156       7    3147    3150       7    3147    3153      10    3144
    3147      11    3138    3141      13    3135    3144      11    3135    3138
      14    3129    3135      10    3129    3132       7    3126    3153      10
    3126    3129      10    3123    3126      11    3120    3123      15    3117
    3120      17    3114    3117      17    3111    3114      17    3108    3159
      18    3108    3111      19    3102    3258       4    3099    3102      21
    3096    3099      22    3090    3093      21    3090    3096      22    3087
    3090      22    3087    3159      23    3081    3099      22    3081    3087
      22    3078    3081      23    3078    3108      18    3075    3078       5
    3324    3327       5    3318    3321       7    3312    3315       7    3312
    3318      10    3309    3312      11    3303    3306      13    3300    3309
      11    3300    3303      14    3294    3300      10    3294    3297       7
    3291    3318      10    3291    3294      10    3288    3291      11    3285
    3288      15    3282    3285      17    3279    3282      17    3276    3279
      17    3273    3324      18    3273    3276      19    3267    3405       4
    3264    3267      21    3261    3264      22    3255    3258      21    3255
    3261      22    3252    3255      22    3252    3324      23    3246    3264
      22    3246    3252      22    3243    3246      23    3243    3273      18
    3240    3243       5
%FLAG ANGLES_INC_HYDROGEN                                                       
%FORMAT(10I8)                                                                   
      39       0      48       2      36      33      72       2      36      39
      75       2      33      30      69       2      30      33      72       2
      27      30      69       2      27      24      66       2      24      21
      63       2      21      24      66       2      21      18      60       2
      18      21      63       2      15      12      57       2      15      18
      60       2      12       9      54       2       9      12      57       2
       6       9      54       2       6       3      51       2       3       0
      48       2       0      39      75       2       0       3      51       2
      84      78     105       3      81      78      84       4      81      78
     105       3      78     105     180       3     231     150     234       6
     213     132     216       6     207     129     210       7     201     126
     204       7     195     123     198       6     192     114     270       3
     183     108     186       8     168     165     246       9     165     168
     249      10     165     159     240      11     165     138     219      12
     162     159     240      13     159     162     243      10     159     165
     246      12     156     159     240      16     156     147     228      18
     153     150     231      19     153     150     234      19     150     147
     228      21     150     153     237      22     147     141     222      12
     147     150     231      24     147     150     234      24     144     141
     222       9     141     138     219      12     141     147     228      12
     141     144     225      10     138     165     246      12     138     141
     222      12     135     132     213      28     135     132     216      28
     135     138     219      18     132     129     210      30     132     129
     207      30     129     132     213      31     129     132     216      31
     129     126     204      30     129     126     201      30     126     129
     210      30     126     129     207      30     126     123     195      31
     126     123     198      31     123     126     204      30     123     126
     201      30     120     123     195      37     120     123     198      37
     117      99     171      38     114     111     189      39     114     270
     345       3     111     108     186      40     111     108     183      40
     111     114     192      41     108     102     177      40     108     111
     189      40     105     102     177      39     102     105     180      41
     102     108     186      40     102     108     183      40     102      99
     117      40      99     102     177      40      96      93     111      40
      96      93      99      40      93     111     189      40      93      99
     117      40      90      93      96      38     396     315     399       6
     378     297     381       6     372     294     375       7     366     291
     369       7     360     288     363       6     357     279     435       3
     348     273     351       8     333     330     411       9     330     333
     414      10     330     324     405      11     330     303     384      12
     327     324     405      13     324     327     408      10     324     330
     411      12     321     324     405      16     321     312     393      18
     318     315     396      19     318     315     399      19     315     312
     393      21     315     318     402      22     312     306     387      12
     312     315     396      24     312     315     399      24     309     306
     387       9     306     303     384      12     306     312     393      12
     306     309     390      10     303     330     411      12     303     306
     387      12     300     297     378      28     300     297     381      28
     300     303     384      18     297     294     375      30     297     294
     372      30     294     297     378      31     294     297     381      31
     294     291     369      30     294     291     366      30     291     294
     375      30     291     294     372      30     291     288     360      31
     291     288     363      31     288     291     369      30     288     291
     366      30     285     288     360      37     285     288     363      37
     282     264     336      38     279     276     354      39     279     435
     510       3     276     273     351      40     276     273     348      40
     276     279     357      41     273     267     342      40     273     276
     354      40     270     267     342      39     267     270     345      41
     267     273     351      40     267     273     348      40     267     264
     282      40     264     267     342      40     261     258     276      40
     261     258     264      40     258     276     354      40     258     264
     282      40     255     258     261      38     561     480     564       6
     543     462     546       6     537     459     540       7     531     456
     534       7     525     453     528       6     522     444     600       3
     513     438     516       8     498     495     576       9     495     498
     579      10     495     489     570      11     495     468     549      12
     492     489     570      13     489     492     573      10     489     495
     576      12     486     489     570      16     486     477     558      18
     483     480     561      19     483     480     564      19     480     477
     558      21     480     483     567      22     477     471     552      12
     477     480     561      24     477     480     564      24     474     471
     552       9     471     468     549      12     471     477     558      12
     471     474     555      10     468     495     576      12     468     471
     552      12     465     462     543      28     465     462     546      28
     465     468     549      18     462     459     540      30     462     459
     537      30     459     462     543      31     459     462     546      31
     459     456     534      30     459     456     531      30     456     459
     540      30     456     459     537      30     456     453     525      31
     456     453     528      31     453     456     534      30     453     456
     531      30     450     453     525      37     450     453     528      37
     447     429     501      38     444     441     519      39     444     600
     675       3     441     438     516      40     441     438     513      40
     441     444     522      41     438     432     507      40     438     441
     519      40     435     432     507      39     432     435     510      41
     432     438     516      40     432     438     513      40     432     429
     447      40     429     432     507      40     426     423     441      40
     426     423     429      40     423     441     519      40     423     429
     447      40     420     423     426      38     726     645     729       6
     708     627     711       6     702     624     705       7     696     621
     699       7     690     618     693       6     687     609     765       3
     678     603     681       8     663     660     741       9     660     663
     744      10     660     654     735      11     660     633     714      12
     657     654     735      13     654     657     738      10     654     660
     741      12     651     654     735      16     651     642     723      18
     648     645     726      19     648     645     729      19     645     642
     723      21     645     648     732      22     642     636     717      12
     642     645     726      24     642     645     729      24     639     636
     717       9     636     633     714      12     636     642     723      12
     636     639     720      10     633     660     741      12     633     636
     717      12     630     627     708      28     630     627     711      28
     630     633     714      18     627     624     705      30     627     624
     702      30     624     627     708      31     624     627     711      31
     624     621     699      30     624     621     696      30     621     624
     705      30     621     624     702      30     621     618     690      31
     621     618     693      31     618     621     699      30     618     621
     696      30     615     618     690      37     615     618     693      37
     612     594     666      38     609     606     684      39     609     765
     840       3     606     603     681      40     606     603     678      40
     606     609     687      41     603     597     672      40     603     606
     684      40     600     597     672      39     597     600     675      41
     597     603     681      40     597     603     678      40     597     594
     612      40     594     597     672      40     591     588     606      40
     591     588     594      40     588     606     684      40     588     594
     612      40     585     588     591      38     891     810     894       6
     873     792     876       6     867     789     870       7     861     786
     864       7     855     783     858       6     852     774     930       3
     843     768     846       8     828     825     906       9     825     828
     909      10     825     819     900      11     825     798     879      12
     822     819     900      13     819     822     903      10     819     825
     906      12     816     819     900      16     816     807     888      18
     813     810     891      19     813     810     894      19     810     807
     888      21     810     813     897      22     807     801     882      12
     807     810     891      24     807     810     894      24     804     801
     882       9     801     798     879      12     801     807     888      12
     801     804     885      10     798     825     906      12     798     801
     882      12     795     792     873      28     795     792     876      28
     795     798     879      18     792     789     870      30     792     789
     867      30     789     792     873      31     789     792     876      31
     789     786     864      30     789     786     861      30     786     789
     870      30     786     789     867      30     786     783     855      31
     786     783     858      31     783     786     864      30     783     786
     861      30     780     783     855      37     780     783     858      37
     777     759     831      38     774     771     849      39     774     930
    1005       3     771     768     846      40     771     768     843      40
     771     774     852      41     768     762     837      40     768     771
     849      40     765     762     837      39     762     765     840      41
     762     768     846      40     762     768     843      40     762     759
     777      40     759     762     837      40     756     753     771      40
     756     753     759      40     753     771     849      40     753     759
     777      40     750     753     756      38    1056     975    1059       6
    1038     957    1041       6    1032     954    1035       7    1026     951
    1029       7    1020     948    1023       6    1017     939    1095       3
    1008     933    1011       8     993     990    1071       9     990     993
    1074      10     990     984    1065      11     990     963    1044      12
     987     984    1065      13     984     987    1068      10     984     990
    1071      12     981     984    1065      16     981     972    1053      18
     978     975    1056      19     978     975    1059      19     975     972
    1053      21     975     978    1062      22     972     966    1047      12
     972     975    1056      24     972     975    1059      24     969     966
    1047       9     966     963    1044      12     966     972    1053      12
     966     969    1050      10     963     990    1071      12     963     966
    1047      12     960     957    1038      28     960     957    1041      28
     960     963    1044      18     957     954    1035      30     957     954
    1032      30     954     957    1038      31     954     957    1041      31
     954     951    1029      30     954     951    1026      30     951     954
    1035      30     951     954    1032      30     951     948    1020      31
     951     948    1023      31     948     951    1029      30     948     951
    1026      30     945     948    1020      37     945     948    1023      37
     942     924     996      38     939     936    1014      39     939    1095
    1170       3     936     933    1011      40     936     933    1008      40
     936     939    1017      41     933     927    1002      40     933     936
    1014      40     930     927    1002      39     927     930    1005      41
     927     933    1011      40     927     933    1008      40     927     924
     942      40     924     927    1002      40     921     918     936      40
     921     918     924      40     918     936    1014      40     918     924
     942      40     915     918     921      38    1221    1140    1224       6
    1203    1122    1206       6    1197    1119    1200       7    1191    1116
    1194       7    1185    1113    1188       6    1182    1104    1260       3
    1173    1098    1176       8    1158    1155    1236       9    1155    1158
    1239      10    1155    1149    1230      11    1155    1128    1209      12
    1152    1149    1230      13    1149    1152    1233      10    1149    1155
    1236      12    1146    1149    1230      16    1146    1137    1218      18
    1143    1140    1221      19    1143    1140    1224      19    1140    1137
    1218      21    1140    1143    1227      22    1137    1131    1212      12
    1137    1140    1221      24    1137    1140    1224      24    1134    1131
    1212       9    1131    1128    1209      12    1131    1137    1218      12
    1131    1134    1215      10    1128    1155    1236      12    1128    1131
    1212      12    1125    1122    1203      28    1125    1122    1206      28
    1125    1128    1209      18    1122    1119    1200      30    1122    1119
    1197      30    1119    1122    1203      31    1119    1122    1206      31
    1119    1116    1194      30    1119    1116    1191      30    1116    1119
    1200      30    1116    1119    1197      30    1116    1113    1185      31
    1116    1113    1188      31    1113    1116    1194      30    1113    1116
    1191      30    1110    1113    1185      37    1110    1113    1188      37
    1107    1089    1161      38    1104    1101    1179      39    1104    1260
    1335       3    1101    1098    1176      40    1101    1098    1173      40
    1101    1104    1182      41    1098    1092    1167      40    1098    1101
    1179      40    1095    1092    1167      39    1092    1095    1170      41
    1092    1098    1176      40    1092    1098    1173      40    1092    1089
    1107      40    1089    1092    1167      40    1086    1083    1101      40
    1086    1083    1089      40    1083    1101    1179      40    1083    1089
    1107      40    1080    1083    1086      38    1386    1305    1389       6
    1368    1287    1371       6    1362    1284    1365       7    1356    1281
    1359       7    1350    1278    1353       6    1347    1269    1425       3
    1338    1263    1341       8    1323    1320    1401       9    1320    1323
    1404      10    1320    1314    1395      11    1320    1293    1374      12
    1317    1314    1395      13    1314    1317    1398      10    1314    1320
    1401      12    1311    1314    1395      16    1311    1302    1383      18
    1308    1305    1386      19    1308    1305    1389      19    1305    1302
    1383      21    1305    1308    1392      22    1302    1296    1377      12
    1302    1305    1386      24    1302    1305    1389      24    1299    1296
    1377       9    1296    1293    1374      12    1296    1302    1383      12
    1296    1299    1380      10    1293    1320    1401      12    1293    1296
    1377      12    1290    1287    1368      28    1290    1287    1371      28
    1290    1293    1374      18    1287    1284    1365      30    1287    1284
    1362      30    1284    1287    1368      31    1284    1287    1371      31
    1284    1281    1359      30    1284    1281    1356      30    1281    1284
    1365      30    1281    1284    1362      30    1281    1278    1350      31
    1281    1278    1353      31    1278    1281    1359      30    1278    1281
    1356      30    1275    1278    1350      37    1275    1278    1353      37
    1272    1254    1326      38    1269    1266    1344      39    1269    1425
    1500       3    1266    1263    1341      40    1266    1263    1338      40
    1266    1269    1347      41    1263    1257    1332      40    1263    1266
    1344      40    1260    1257    1332      39    1257    1260    1335      41
    1257    1263    1341      40    1257    1263    1338      40    1257    1254
    1272      40    1254    1257    1332      40    1251    1248    1266      40
    1251    1248    1254      40    1248    1266    1344      40    1248    1254
    1272      40    1245    1248    1251      38    1551    1470    1554       6
    1533    1452    1536       6    1527    1449    1530       7    1521    1446
    1524       7    1515    1443    1518       6    1512    1434    1590       3
    1503    1428    1506       8    1488    1485    1566       9    1485    1488
    1569      10    1485    1479    1560      11    1485    1458    1539      12
    1482    1479    1560      13    1479    1482    1563      10    1479    1485
    1566      12    1476    1479    1560      16    1476    1467    1548      18
    1473    1470    1551      19    1473    1470    1554      19    1470    1467
    1548      21    1470    1473    1557      22    1467    1461    1542      12
    1467    1470    1551      24    1467    1470    1554      24    1464    1461
    1542       9    1461    1458    1539      12    1461    1467    1548      12
    1461    1464    1545      10    1458    1485    1566      12    1458    1461
    1542      12    1455    1452    1533      28    1455    1452    1536      28
    1455    1458    1539      18    1452    1449    1530      30    1452    1449
    1527      30    1449    1452    1533      31    1449    1452    1536      31
    1449    1446    1524      30    1449    1446    1521      30    1446    1449
    1530      30    1446    1449    1527      30    1446    1443    1515      31
    1446    1443    1518      31    1443    1446    1524      30    1443    1446
    1521      30    1440    1443    1515      37    1440    1443    1518      37
    1437    1419    1491      38    1434    1431    1509      39    1434    1590
    1665       3    1431    1428    1506      40    1431    1428    1503      40
    1431    1434    1512      41    1428    1422    1497      40    1428    1431
    1509      40    1425    1422    1497      39    1422    1425    1500      41
    1422    1428    1506      40    1422    1428    1503      40    1422    1419
    1437      40    1419    1422    1497      40    1416    1413    1431      40
    1416    1413    1419      40    1413    1431    1509      40    1413    1419
    1437      40    1410    1413    1416      38    1716    1635    1719       6
    1698    1617    1701       6    1692    1614    1695       7    1686    1611
    1689       7    1680    1608    1683       6    1677    1599    1737       3
    1668    1593    1671       8    1653    1650    1731       9    1650    1653
    1734      10    1650    1644    1725      11    1650    1623    1704      12
    1647    1644    1725      13    1644    1647    1728      10    1644    1650
    1731      12    1641    1644    1725      16    1641    1632    1713      18
    1638    1635    1716      19    1638    1635    1719      19    1635    1632
    1713      21    1635    1638    1722      22    1632    1626    1707      12
    1632    1635    1716      24    1632    1635    1719      24    1629    1626
    1707       9    1626    1623    1704      12    1626    1632    1713      12
    1626    1629    1710      10    1623    1650    1731      12    1623    1626
    1707      12    1620    1617    1698      28    1620    1617    1701      28
    1620    1623    1704      18    1617    1614    1695      30    1617    1614
    1692      30    1614    1617    1698      31    1614    1617    1701      31
    1614    1611    1689      30    1614    1611    1686      30    1611    1614
    1695      30    1611    1614    1692      30    1611    1608    1680      31
    1611    1608    1683      31    1608    1611    1689      30    1608    1611
    1686      30    1605    1608    1680      37    1605    1608    1683      37
    1602    1584    1656      38    1599    1596    1674      39    1599    1737
    1740       3    1599    1737    1743       3    1596    1593    1671      40
    1596    1593    1668      40    1596    1599    1677      41    1593    1587
    1662      40    1593    1596    1674      40    1590    1587    1662      39
    1587    1590    1665      41    1587    1593    1671      40    1587    1593
    1668      40    1587    1584    1602      40    1584    1587    1662      40
    1581    1578    1596      40    1581    1578    1584      40    1578    1596
    1674      40    1578    1584    1602      40    1575    1578    1581      38
    1740    1737    1743       4    1752    1746    1773       3    1749    1746
    1752       4    1749    1746    1773       3    1746    1773    1848       3
    1899    1818    1902       6    1881    1800    1884       6    1875    1797
    1878       7    1869    1794    1872       7    1863    1791    1866       6
    1860    1782    1938       3    1851    1776    1854       8    1836    1833
    1914       9    1833    1836    1917      10    1833    1827    1908      11
    1833    1806    1887      12    1830    1827    1908      13    1827    1830
    1911      10    1827    1833    1914      12    1824    1827    1908      16
    1824    1815    1896      18    1821    1818    1899      19    1821    1818
    1902      19    1818    1815    1896      21    1818    1821    1905      22
    1815    1809    1890      12    1815    1818    1899      24    1815    1818
    1902      24    1812    1809    1890       9    1809    1806    1887      12
    1809    1815    1896      12    1809    1812    1893      10    1806    1833
    1914      12    1806    1809    1890      12    1803    1800    1881      28
    1803    1800    1884      28    1803    1806    1887      18    1800    1797
    1878      30    1800    1797    1875      30    1797    1800    1881      31
    1797    1800    1884      31    1797    1794    1872      30    1797    1794
    1869      30    1794    1797    1878      30    1794    1797    1875      30
    1794    1791    1863      31    1794    1791    1866      31    1791    1794
    1872      30    1791    1794    1869      30    1788    1791    1863      37
    1788    1791    1866      37    1785    1767    1839      38    1782    1779
    1857      39    1782    1938    2013       3    1779    1776    1854      40
    1779    1776    1851      40    1779    1782    1860      41    1776    1770
    1845      40    1776    1779    1857      40    1773    1770    1845      39
    1770    1773    1848      41    1770    1776    1854      40    1770    1776
    1851      40    1770    1767    1785      40    1767    1770    1845      40
    1764    1761    1779      40    1764    1761    1767      40    1761    1779
    1857      40    1761    1767    1785      40    1758    1761    1764      38
    2064    1983    2067       6    2046    1965    2049       6    2040    1962
    2043       7    2034    1959    2037       7    2028    1956    2031       6
    2025    1947    2103       3    2016    1941    2019       8    2001    1998
    2079       9    1998    2001    2082      10    1998    1992    2073      11
    1998    1971    2052      12    1995    1992    2073      13    1992    1995
    2076      10    1992    1998    2079      12    1989    1992    2073      16
    1989    1980    2061      18    1986    1983    2064      19    1986    1983
    2067      19    1983    1980    2061      21    1983    1986    2070      22
    1980    1974    2055      12    1980    1983    2064      24    1980    1983
    2067      24    1977    1974    2055       9    1974    1971    2052      12
    1974    1980    2061      12    1974    1977    2058      10    1971    1998
    2079      12    1971    1974    2055      12    1968    1965    2046      28
    1968    1965    2049      28    1968    1971    2052      18    1965    1962
    2043      30    1965    1962    2040      30    1962    1965    2046      31
    1962    1965    2049      31    1962    1959    2037      30    1962    1959
    2034      30    1959    1962    2043      30    1959    1962    2040      30
    1959    1956    2028      31    1959    1956    2031      31    1956    1959
    2037      30    1956    1959    2034      30    1953    1956    2028      37
    1953    1956    2031      37    1950    1932    2004      38    1947    1944
    2022      39    1947    2103    2178       3    1944    1941    2019      40
    1944    1941    2016      40    1944    1947    2025      41    1941    1935
    2010      40    1941    1944    2022      40    1938    1935    2010      39
    1935    1938    2013      41    1935    1941    2019      40    1935    1941
    2016      40    1935    1932    1950      40    1932    1935    2010      40
    1929    1926    1944      40    1929    1926    1932      40    1926    1944
    2022      40    1926    1932    1950      40    1923    1926    1929      38
    2229    2148    2232       6    2211    2130    2214       6    2205    2127
    2208       7    2199    2124    2202       7    2193    2121    2196       6
    2190    2112    2268       3    2181    2106    2184       8    2166    2163
    2244       9    2163    2166    2247      10    2163    2157    2238      11
    2163    2136    2217      12    2160    2157    2238      13    2157    2160
    2241      10    2157    2163    2244      12    2154    2157    2238      16
    2154    2145    2226      18    2151    2148    2229      19    2151    2148
    2232      19    2148    2145    2226      21    2148    2151    2235      22
    2145    2139    2220      12    2145    2148    2229      24    2145    2148
    2232      24    2142    2139    2220       9    2139    2136    2217      12
    2139    2145    2226      12    2139    2142    2223      10    2136    2163
    2244      12    2136    2139    2220      12    2133    2130    2211      28
    2133    2130    2214      28    2133    2136    2217      18    2130    2127
    2208      30    2130    2127    2205      30    2127    2130    2211      31
    2127    2130    2214      31    2127    2124    2202      30    2127    2124
    2199      30    2124    2127    2208      30    2124    2127    2205      30
    2124    2121    2193      31    2124    2121    2196      31    2121    2124
    2202      30    2121    2124    2199      30    2118    2121    2193      37
    2118    2121    2196      37    2115    2097    2169      38    2112    2109
    2187      39    2112    2268    2343       3    2109    2106    2184      40
    2109    2106    2181      40    2109    2112    2190      41    2106    2100
    2175      40    2106    2109    2187      40    2103    2100    2175      39
    2100    2103    2178      41    2100    2106    2184      40    2100    2106
    2181      40    2100    2097    2115      40    2097    2100    2175      40
    2094    2091    2109      40    2094    2091    2097      40    2091    2109
    2187      40    2091    2097    2115      40    2088    2091    2094      38
    2394    2313    2397       6    2376    2295    2379       6    2370    2292
    2373       7    2364    2289    2367       7    2358    2286    2361       6
    2355    2277    2433       3    2346    2271    2349       8    2331    2328
    2409       9    2328    2331    2412      10    2328    2322    2403      11
    2328    2301    2382      12    2325    2322    2403      13    2322    2325
    2406      10    2322    2328    2409      12    2319    2322    2403      16
    2319    2310    2391      18    2316    2313    2394      19    2316    2313
    2397      19    2313    2310    2391      21    2313    2316    2400      22
    2310    2304    2385      12    2310    2313    2394      24    2310    2313
    2397      24    2307    2304    2385       9    2304    2301    2382      12
    2304    2310    2391      12    2304    2307    2388      10    2301    2328
    2409      12    2301    2304    2385      12    2298    2295    2376      28
    2298    2295    2379      28    2298    2301    2382      18    2295    2292
    2373      30    2295    2292    2370      30    2292    2295    2376      31
    2292    2295    2379      31    2292    2289    2367      30    2292    2289
    2364      30    2289    2292    2373      30    2289    2292    2370      30
    2289    2286    2358      31    2289    2286    2361      31    2286    2289
    2367      30    2286    2289    2364      30    2283    2286    2358      37
    2283    2286    2361      37    2280    2262    2334      38    2277    2274
    2352      39    2277    2433    2508       3    2274    2271    2349      40
    2274    2271    2346      40    2274    2277    2355      41    2271    2265
    2340      40    2271    2274    2352      40    2268    2265    2340      39
    2265    2268    2343      41    2265    2271    2349      40    2265    2271
    2346      40    2265    2262    2280      40    2262    2265    2340      40
    2259    2256    2274      40    2259    2256    2262      40    2256    2274
    2352      40    2256    2262    2280      40    2253    2256    2259      38
    2559    2478    2562       6    2541    2460    2544       6    2535    2457
    2538       7    2529    2454    2532       7    2523    2451    2526       6
    2520    2442    2598       3    2511    2436    2514       8    2496    2493
    2574       9    2493    2496    2577      10    2493    2487    2568      11
    2493    2466    2547      12    2490    2487    2568      13    2487    2490
    2571      10    2487    2493    2574      12    2484    2487    2568      16
    2484    2475    2556      18    2481    2478    2559      19    2481    2478
    2562      19    2478    2475    2556      21    2478    2481    2565      22
    2475    2469    2550      12    2475    2478    2559      24    2475    2478
    2562      24    2472    2469    2550       9    2469    2466    2547      12
    2469    2475    2556      12    2469    2472    2553      10    2466    2493
    2574      12    2466    2469    2550      12    2463    2460    2541      28
    2463    2460    2544      28    2463    2466    2547      18    2460    2457
    2538      30    2460    2457    2535      30    2457    2460    2541      31
    2457    2460    2544      31    2457    2454    2532      30    2457    2454
    2529      30    2454    2457    2538      30    2454    2457    2535      30
    2454    2451    2523      31    2454    2451    2526      31    2451    2454
    2532      30    2451    2454    2529      30    2448    2451    2523      37
    2448    2451    2526      37    2445    2427    2499      38    2442    2439
    2517      39    2442    2598    2673       3    2439    2436    2514      40
    2439    2436    2511      40    2439    2442    2520      41    2436    2430
    2505      40    2436    2439    2517      40    2433    2430    2505      39
    2430    2433    2508      41    2430    2436    2514      40    2430    2436
    2511      40    2430    2427    2445      40    2427    2430    2505      40
    2424    2421    2439      40    2424    2421    2427      40    2421    2439
    2517      40    2421    2427    2445      40    2418    2421    2424      38
    2724    2643    2727       6    2706    2625    2709       6    2700    2622
    2703       7    2694    2619    2697       7    2688    2616    2691       6
    2685    2607    2763       3    2676    2601    2679       8    2661    2658
    2739       9    2658    2661    2742      10    2658    2652    2733      11
    2658    2631    2712      12    2655    2652    2733      13    2652    2655
    2736      10    2652    2658    2739      12    2649    2652    2733      16
    2649    2640    2721      18    2646    2643    2724      19    2646    2643
    2727      19    2643    2640    2721      21    2643    2646    2730      22
    2640    2634    2715      12    2640    2643    2724      24    2640    2643
    2727      24    2637    2634    2715       9    2634    2631    2712      12
    2634    2640    2721      12    2634    2637    2718      10    2631    2658
    2739      12    2631    2634    2715      12    2628    2625    2706      28
    2628    2625    2709      28    2628    2631    2712      18    2625    2622
    2703      30    2625    2622    2700      30    2622    2625    2706      31
    2622    2625    2709      31    2622    2619    2697      30    2622    2619
    2694      30    2619    2622    2703      30    2619    2622    2700      30
    2619    2616    2688      31    2619    2616    2691      31    2616    2619
    2697      30    2616    2619    2694      30    2613    2616    2688      37
    2613    2616    2691      37    2610    2592    2664      38    2607    2604
    2682      39    2607    2763    2838       3    2604    2601    2679      40
    2604    2601    2676      40    2604    2607    2685      41    2601    2595
    2670      40    2601    2604    2682      40    2598    2595    2670      39
    2595    2598    2673      41    2595    2601    2679      40    2595    2601
    2676      40    2595    2592    2610      40    2592    2595    2670      40
    2589    2586    2604      40    2589    2586    2592      40    2586    2604
    2682      40    2586    2592    2610      40    2583    2586    2589      38
    2889    2808    2892       6    2871    2790    2874       6    2865    2787
    2868       7    2859    2784    2862       7    2853    2781    2856       6
    2850    2772    2928       3    2841    2766    2844       8    2826    2823
    2904       9    2823    2826    2907      10    2823    2817    2898      11
    2823    2796    2877      12    2820    2817    2898      13    2817    2820
    2901      10    2817    2823    2904      12    2814    2817    2898      16
    2814    2805    2886      18    2811    2808    2889      19    2811    2808
    2892      19    2808    2805    2886      21    2808    2811    2895      22
    2805    2799    2880      12    2805    2808    2889      24    2805    2808
    2892      24    2802    2799    2880       9    2799    2796    2877      12
    2799    2805    2886      12    2799    2802    2883      10    2796    2823
    2904      12    2796    2799    2880      12    2793    2790    2871      28
    2793    2790    2874      28    2793    2796    2877      18    2790    2787
    2868      30    2790    2787    2865      30    2787    2790    2871      31
    2787    2790    2874      31    2787    2784    2862      30    2787    2784
    2859      30    2784    2787    2868      30    2784    2787    2865      30
    2784    2781    2853      31    2784    2781    2856      31    2781    2784
    2862      30    2781    2784    2859      30    2778    2781    2853      37
    2778    2781    2856      37    2775    2757    2829      38    2772    2769
    2847      39    2772    2928    3003       3    2769    2766    2844      40
    2769    2766    2841      40    2769    2772    2850      41    2766    2760
    2835      40    2766    2769    2847      40    2763    2760    2835      39
    2760    2763    2838      41    2760    2766    2844      40    2760    2766
    2841      40    2760    2757    2775      40    2757    2760    2835      40
    2754    2751    2769      40    2754    2751    2757      40    2751    2769
    2847      40    2751    2757    2775      40    2748    2751    2754      38
    3054    2973    3057       6    3036    2955    3039       6    3030    2952
    3033       7    3024    2949    3027       7    3018    2946    3021       6
    3015    2937    3093       3    3006    2931    3009       8    2991    2988
    3069       9    2988    2991    3072      10    2988    2982    3063      11
    2988    2961    3042      12    2985    2982    3063      13    2982    2985
    3066      10    2982    2988    3069      12    2979    2982    3063      16
    2979    2970    3051      18    2976    2973    3054      19    2976    2973
    3057      19    2973    2970    3051      21    2973    2976    3060      22
    2970    2964    3045      12    2970    2973    3054      24    2970    2973
    3057      24    2967    2964    3045       9    2964    2961    3042      12
    2964    2970    3051      12    2964    2967    3048      10    2961    2988
    3069      12    2961    2964    3045      12    2958    2955    3036      28
    2958    2955    3039      28    2958    2961    3042      18    2955    2952
    3033      30    2955    2952    3030      30    2952    2955    3036      31
    2952    2955    3039      31    2952    2949    3027      30    2952    2949
    3024      30    2949    2952    3033      30    2949    2952    3030      30
    2949    2946    3018      31    2949    2946    3021      31    2946    2949
    3027      30    2946    2949    3024      30    2943    2946    3018      37
    2943    2946    3021      37    2940    2922    2994      38    2937    2934
    3012      39    2937    3093    3168       3    2934    2931    3009      40
    2934    2931    3006      40    2934    2937    3015      41    2931    2925
    3000      40    2931    2934    3012      40    2928    2925    3000      39
    2925    2928    3003      41    2925    2931    3009      40    2925    2931
    3006      40    2925    2922    2940      40    2922    2925    3000      40
    2919    2916    2934      40    2919    2916    2922      40    2916    2934
    3012      40    2916    2922    2940      40    2913    2916    2919      38
    3219    3138    3222       6    3201    3120    3204       6    3195    3117
    3198       7    3189    3114    3192       7    3183    3111    3186       6
    3180    3102    3258       3    3171    3096    3174       8    3156    3153
    3234       9    3153    3156    3237      10    3153    3147    3228      11
    3153    3126    3207      12    3150    3147    3228      13    3147    3150
    3231      10    3147    3153    3234      12    3144    3147    3228      16
    3144    3135    3216      18    3141    3138    3219      19    3141    3138
    3222      19    3138    3135    3216      21    3138    3141    3225      22
    3135    3129    3210      12    3135    3138    3219      24    3135    3138
    3222      24    3132    3129    3210       9    3129    3126    3207      12
    3129    3135    3216      12    3129    3132    3213      10    3126    3153
    3234      12    3126    3129    3210      12    3123    3120    3201      28
    3123    3120    3204      28    3123    3126    3207      18    3120    3117
    3198      30    3120    3117    3195      30    3117    3120    3201      31
    3117    3120    3204      31    3117    3114    3192      30    3117    3114
    3189      30    3114    3117    3198      30    3114    3117    3195      30
    3114    3111    3183      31    3114    3111    3186      31    3111    3114
    3192      30    3111    3114    3189      30    3108    3111    3183      37
    3108    3111    3186      37    3105    3087    3159      38    3102    3099
    3177      39    3102    3258    3333       3    3099    3096    3174      40
    3099    3096    3171      40    3099    3102    3180      41    3096    3090
    3165      40    3096    3099    3177      40    3093    3090    3165      39
    3090    3093    3168      41    3090    3096    3174      40    3090    3096
    3171      40    3090    3087    3105      40    3087    3090    3165      40
    3084    3081    3099      40    3084    3081    3087      40    3081    3099
    3177      40    3081    3087    3105      40    3078    3081    3084      38
    3384    3303    3387       6    3366    3285    3369       6    3360    3282
    3363       7    3354    3279    3357       7    3348    3276    3351       6
    3345    3267    3405       3    3336    3261    3339       8    3321    3318
    3399       9    3318    3321    3402      10    3318    3312    3393      11
    3318    3291    3372      12    3315    3312    3393      13    3312    3315
    3396      10    3312    3318    3399      12    3309    3312    3393      16
    3309    3300    3381      18    3306    3303    3384      19    3306    3303
    3387      19    3303    3300    3381      21    3303    3306    3390      22
    3300    3294    3375      12    3300    3303    3384      24    3300    3303
    3387      24    3297    3294    3375       9    3294    3291    3372      12
    3294    3300    3381      12    3294    3297    3378      10    3291    3318
    3399      12    3291    3294    3375      12    3288    3285    3366      28
    3288    3285    3369      28    3288    3291    3372      18    3285    3282
    3363      30    3285    3282    3360      30    3282    3285    3366      31
    3282    3285    3369      31    3282    3279    3357      30    3282    3279
    3354      30    3279    3282    3363      30    3279    3282    3360      30
    3279    3276    3348      31    3279    3276    3351      31    3276    3279
    3357      30    3276    3279    3354      30    3273    3276    3348      37
    3273    3276    3351      37    3270    3252    3324      38    3267    3264
    3342      39    3267    3405    3408       3    3267    3405    3411       3
    3264    3261    3339      40    3264    3261    3336      40    3264    3267
    3345      41    3261    3255    3330      40    3261    3264    3342      40
    3258    3255    3330      39    3255    3258    3333      41    3255    3261
    3339      40    3255    3261    3336      40    3255    3252    3270      40
    3252    3255    3330      40    3249    3246    3264      40    3249    3246
    3252      40    3246    3264    3342      40    3246    3252    3270      40
    3243    3246    3249      38    3408    3405    3411       4
%FLAG ANGLES_WITHOUT_HYDROGEN                                                   
%FORMAT(10I8)                                                                   
      39      36      42       1      36      42      45       1      33      36
      42       1      33      36      39       1      30      33      36       1
      30      27      45       1      27      30      33       1      27      45
      42       1      24      27      30       1      24      27      45       1
      21      24      27       1      18      15      45       1      18      21
      24       1      15      45      27       1      15      45      42       1
      15      18      21       1      12      15      45       1      12      15
      18       1       9      12      15       1       9       6      42       1
       6       9      12       1       6      42      45       1       6      42
      36       1       3       6       9       1       3       6      42       1
       3       0      39       1       0      39      36       1       0       3
       6       1      78     105     102       5     162     159     165      14
     159     165     168      14     156     159     162      15     156     159
     165      17     150     147     156      20     147     156     159      23
     147     150     153      25     144     141     147      14     141     138
     165      26     141     147     156      17     141     147     150      27
     138     165     168      14     138     165     159      26     138     141
     147      26     138     141     144      14     135     138     165      17
     135     138     141      17     132     135     138      29     129     132
     135      32     126     129     132      33     123     126     129      33
     123     120     171      34     120     171     174      35     120     123
     126      36     114     270     267       5     111     114     270       5
     108     111     114      42     105     102     108      42     102     108
     111      43     102      99     171      44      99     102     105      42
      99     102     108      43      99     171     174      45      99     171
     120      46      99      93     111      43      93     111     108      43
      93     111     114      42      93      99     102      43      93      99
     171      44      93      90     120      46      90      93     111      44
      90      93      99      44      90     120     171      47      90     120
     123      34      87      90      93      45      87      90     120      35
     327     324     330      14     324     330     333      14     321     324
     327      15     321     324     330      17     315     312     321      20
     312     321     324      23     312     315     318      25     309     306
     312      14     306     303     330      26     306     312     321      17
     306     312     315      27     303     330     333      14     303     330
     324      26     303     306     312      26     303     306     309      14
     300     303     330      17     300     303     306      17     297     300
     303      29     294     297     300      32     291     294     297      33
     288     291     294      33     288     285     336      34     285     336
     339      35     285     288     291      36     279     435     432       5
     276     279     435       5     273     276     279      42     270     267
     273      42     267     273     276      43     267     264     336      44
     264     267     270      42     264     267     273      43     264     336
     339      45     264     336     285      46     264     258     276      43
     258     276     273      43     258     276     279      42     258     264
     267      43     258     264     336      44     258     255     285      46
     255     258     276      44     255     258     264      44     255     285
     336      47     255     285     288      34     252     255     258      45
     252     255     285      35     492     489     495      14     489     495
     498      14     486     489     492      15     486     489     495      17
     480     477     486      20     477     486     489      23     477     480
     483      25     474     471     477      14     471     468     495      26
     471     477     486      17     471     477     480      27     468     495
     498      14     468     495     489      26     468     471     477      26
     468     471     474      14     465     468     495      17     465     468
     471      17     462     465     468      29     459     462     465      32
     456     459     462      33     453     456     459      33     453     450
     501      34     450     501     504      35     450     453     456      36
     444     600     597       5     441     444     600       5     438     441
     444      42     435     432     438      42     432     438     441      43
     432     429     501      44     429     432     435      42     429     432
     438      43     429     501     504      45     429     501     450      46
     429     423     441      43     423     441     438      43     423     441
     444      42     423     429     432      43     423     429     501      44
     423     420     450      46     420     423     441      44     420     423
     429      44     420     450     501      47     420     450     453      34
     417     420     423      45     417     420     450      35     657     654
     660      14     654     660     663      14     651     654     657      15
     651     654     660      17     645     642     651      20     642     651
     654      23     642     645     648      25     639     636     642      14
     636     633     660      26     636     642     651      17     636     642
     645      27     633     660     663      14     633     660     654      26
     633     636     642      26     633     636     639      14     630     633
     660      17     630     633     636      17     627     630     633      29
     624     627     630      32     621     624     627      33     618     621
     624      33     618     615     666      34     615     666     669      35
     615     618     621      36     609     765     762       5     606     609
     765       5     603     606     609      42     600     597     603      42
     597     603     606      43     597     594     666      44     594     597
     600      42     594     597     603      43     594     666     669      45
     594     666     615      46     594     588     606      43     588     606
     603      43     588     606     609      42     588     594     597      43
     588     594     666      44     588     585     615      46     585     588
     606      44     585     588     594      44     585     615     666      47
     585     615     618      34     582     585     588      45     582     585
     615      35     822     819     825      14     819     825     828      14
     816     819     822      15     816     819     825      17     810     807
     816      20     807     816     819      23     807     810     813      25
     804     801     807      14     801     798     825      26     801     807
     816      17     801     807     810      27     798     825     828      14
     798     825     819      26     798     801     807      26     798     801
     804      14     795     798     825      17     795     798     801      17
     792     795     798      29     789     792     795      32     786     789
     792      33     783     786     789      33     783     780     831      34
     780     831     834      35     780     783     786      36     774     930
     927       5     771     774     930       5     768     771     774      42
     765     762     768      42     762     768     771      43     762     759
     831      44     759     762     765      42     759     762     768      43
     759     831     834      45     759     831     780      46     759     753
     771      43     753     771     768      43     753     771     774      42
     753     759     762      43     753     759     831      44     753     750
     780      46     750     753     771      44     750     753     759      44
     750     780     831      47     750     780     783      34     747     750
     753      45     747     750     780      35     987     984     990      14
     984     990     993      14     981     984     987      15     981     984
     990      17     975     972     981      20     972     981     984      23
     972     975     978      25     969     966     972      14     966     963
     990      26     966     972     981      17     966     972     975      27
     963     990     993      14     963     990     984      26     963     966
     972      26     963     966     969      14     960     963     990      17
     960     963     966      17     957     960     963      29     954     957
     960      32     951     954     957      33     948     951     954      33
     948     945     996      34     945     996     999      35     945     948
     951      36     939    1095    1092       5     936     939    1095       5
     933     936     939      42     930     927     933      42     927     933
     936      43     927     924     996      44     924     927     930      42
     924     927     933      43     924     996     999      45     924     996
     945      46     924     918     936      43     918     936     933      43
     918     936     939      42     918     924     927      43     918     924
     996      44     918     915     945      46     915     918     936      44
     915     918     924      44     915     945     996      47     915     945
     948      34     912     915     918      45     912     915     945      35
    1152    1149    1155      14    1149    1155    1158      14    1146    1149
    1152      15    1146    1149    1155      17    1140    1137    1146      20
    1137    1146    1149      23    1137    1140    1143      25    1134    1131
    1137      14    1131    1128    1155      26    1131    1137    1146      17
    1131    1137    1140      27    1128    1155    1158      14    1128    1155
    1149      26    1128    1131    1137      26    1128    1131    1134      14
    1125    1128    1155      17    1125    1128    1131      17    1122    1125
    1128      29    1119    1122    1125      32    1116    1119    1122      33
    1113    1116    1119      33    1113    1110    1161      34    1110    1161
    1164      35    1110    1113    1116      36    1104    1260    1257       5
    1101    1104    1260       5    1098    1101    1104      42    1095    1092
    1098      42    1092    1098    1101      43    1092    1089    1161      44
    1089    1092    1095      42    1089    1092    1098      43    1089    1161
    1164      45    1089    1161    1110      46    1089    1083    1101      43
    1083    1101    1098      43    1083    1101    1104      42    1083    1089
    1092      43    1083    1089    1161      44    1083    1080    1110      46
    1080    1083    1101      44    1080    1083    1089      44    1080    1110
    1161      47    1080    1110    1113      34    1077    1080    1083      45
    1077    1080    1110      35    1317    1314    1320      14    1314    1320
    1323      14    1311    1314    1317      15    1311    1314    1320      17
    1305    1302    1311      20    1302    1311    1314      23    1302    1305
    1308      25    1299    1296    1302      14    1296    1293    1320      26
    1296    1302    1311      17    1296    1302    1305      27    1293    1320
    1323      14    1293    1320    1314      26    1293    1296    1302      26
    1293    1296    1299      14    1290    1293    1320      17    1290    1293
    1296      17    1287    1290    1293      29    1284    1287    1290      32
    1281    1284    1287      33    1278    1281    1284      33    1278    1275
    1326      34    1275    1326    1329      35    1275    1278    1281      36
    1269    1425    1422       5    1266    1269    1425       5    1263    1266
    1269      42    1260    1257    1263      42    1257    1263    1266      43
    1257    1254    1326      44    1254    1257    1260      42    1254    1257
    1263      43    1254    1326    1329      45    1254    1326    1275      46
    1254    1248    1266      43    1248    1266    1263      43    1248    1266
    1269      42    1248    1254    1257      43    1248    1254    1326      44
    1248    1245    1275      46    1245    1248    1266      44    1245    1248
    1254      44    1245    1275    1326      47    1245    1275    1278      34
    1242    1245    1248      45    1242    1245    1275      35    1482    1479
    1485      14    1479    1485    1488      14    1476    1479    1482      15
    1476    1479    1485      17    1470    1467    1476      20    1467    1476
    1479      23    1467    1470    1473      25    1464    1461    1467      14
    1461    1458    1485      26    1461    1467    1476      17    1461    1467
    1470      27    1458    1485    1488      14    1458    1485    1479      26
    1458    1461    1467      26    1458    1461    1464      14    1455    1458
    1485      17    1455    1458    1461      17    1452    1455    1458      29
    1449    1452    1455      32    1446    1449    1452      33    1443    1446
    1449      33    1443    1440    1491      34    1440    1491    1494      35
    1440    1443    1446      36    1434    1590    1587       5    1431    1434
    1590       5    1428    1431    1434      42    1425    1422    1428      42
    1422    1428    1431      43    1422    1419    1491      44    1419    1422
    1425      42    1419    1422    1428      43    1419    1491    1494      45
    1419    1491    1440      46    1419    1413    1431      43    1413    1431
    1428      43    1413    1431    1434      42    1413    1419    1422      43
    1413    1419    1491      44    1413    1410    1440      46    1410    1413
    1431      44    1410    1413    1419      44    1410    1440    1491      47
    1410    1440    1443      34    1407    1410    1413      45    1407    1410
    1440      35    1647    1644    1650      14    1644    1650    1653      14
    1641    1644    1647      15    1641    1644    1650      17    1635    1632
    1641      20    1632    1641    1644      23    1632    1635    1638      25
    1629    1626    1632      14    1626    1623    1650      26    1626    1632
    1641      17    1626    1632    1635      27    1623    1650    1653      14
    1623    1650    1644      26    1623    1626    1632      26    1623    1626
    1629      14    1620    1623    1650      17    1620    1623    1626      17
    1617    1620    1623      29    1614    1617    1620      32    1611    1614
    1617      33    1608    1611    1614      33    1608    1605    1656      34
    1605    1656    1659      35    1605    1608    1611      36    1596    1599
    1737       5    1593    1596    1599      42    1590    1587    1593      42
    1587    1593    1596      43    1587    1584    1656      44    1584    1587
    1590      42    1584    1587    1593      43    1584    1656    1659      45
    1584    1656    1605      46    1584    1578    1596      43    1578    1596
    1593      43    1578    1596    1599      42    1578    1584    1587      43
    1578    1584    1656      44    1578    1575    1605      46    1575    1578
    1596      44    1575    1578    1584      44    1575    1605    1656      47
    1575    1605    1608      34    1572    1575    1578      45    1572    1575
    1605      35    1746    1773    1770       5    1830    1827    1833      14
    1827    1833    1836      14    1824    1827    1830      15    1824    1827
    1833      17    1818    1815    1824      20    1815    1824    1827      23
    1815    1818    1821      25    1812    1809    1815      14    1809    1806
    1833      26    1809    1815    1824      17    1809    1815    1818      27
    1806    1833    1836      14    1806    1833    1827      26    1806    1809
    1815      26    1806    1809    1812      14    1803    1806    1833      17
    1803    1806    1809      17    1800    1803    1806      29    1797    1800
    1803      32    1794    1797    1800      33    1791    1794    1797      33
    1791    1788    1839      34    1788    1839    1842      35    1788    1791
    1794      36    1782    1938    1935       5    1779    1782    1938       5
    1776    1779    1782      42    1773    1770    1776      42    1770    1776
    1779      43    1770    1767    1839      44    1767    1770    1773      42
    1767    1770    1776      43    1767    1839    1842      45    1767    1839
    1788      46    1767    1761    1779      43    1761    1779    1776      43
    1761    1779    1782      42    1761    1767    1770      43    1761    1767
    1839      44    1761    1758    1788      46    1758    1761    1779      44
    1758    1761    1767      44    1758    1788    1839      47    1758    1788
    1791      34    1755    1758    1761      45    1755    1758    1788      35
    1995    1992    1998      14    1992    1998    2001      14    1989    1992
    1995      15    1989    1992    1998      17    1983    1980    1989      20
    1980    1989    1992      23    1980    1983    1986      25    1977    1974
    1980      14    1974    1971    1998      26    1974    1980    1989      17
    1974    1980    1983      27    1971    1998    2001      14    1971    1998
    1992      26    1971    1974    1980      26    1971    1974    1977      14
    1968    1971    1998      17    1968    1971    1974      17    1965    1968
    1971      29    1962    1965    1968      32    1959    1962    1965      33
    1956    1959    1962      33    1956    1953    2004      34    1953    2004
    2007      35    1953    1956    1959      36    1947    2103    2100       5
    1944    1947    2103       5    1941    1944    1947      42    1938    1935
    1941      42    1935    1941    1944      43    1935    1932    2004      44
    1932    1935    1938      42    1932    1935    1941      43    1932    2004
    2007      45    1932    2004    1953      46    1932    1926    1944      43
    1926    1944    1941      43    1926    1944    1947      42    1926    1932
    1935      43    1926    1932    2004      44    1926    1923    1953      46
    1923    1926    1944      44    1923    1926    1932      44    1923    1953
    2004      47    1923    1953    1956      34    1920    1923    1926      45
    1920    1923    1953      35    2160    2157    2163      14    2157    2163
    2166      14    2154    2157    2160      15    2154    2157    2163      17
    2148    2145    2154      20    2145    2154    2157      23    2145    2148
    2151      25    2142    2139    2145      14    2139    2136    2163      26
    2139    2145    2154      17    2139    2145    2148      27    2136    2163
    2166      14    2136    2163    2157      26    2136    2139    2145      26
    2136    2139    2142      14    2133    2136    2163      17    2133    2136
    2139      17    2130    2133    2136      29    2127    2130    2133      32
    2124    2127    2130      33    2121    2124    2127      33    2121    2118
    2169      34    2118    2169    2172      35    2118    2121    2124      36
    2112    2268    2265       5    2109    2112    2268       5    2106    2109
    2112      42    2103    2100    2106      42    2100    2106    2109      43
    2100    2097    2169      44    2097    2100    2103      42    2097    2100
    2106      43    2097    2169    2172      45    2097    2169    2118      46
    2097    2091    2109      43    2091    2109    2106      43    2091    2109
    2112      42    2091    2097    2100      43    2091    2097    2169      44
    2091    2088    2118      46    2088    2091    2109      44    2088    2091
    2097      44    2088    2118    2169      47    2088    2118    2121      34
    2085    2088    2091      45    2085    2088    2118      35    2325    2322
    2328      14    2322    2328    2331      14    2319    2322    2325      15
    2319    2322    2328      17    2313    2310    2319      20    2310    2319
    2322      23    2310    2313    2316      25    2307    2304    2310      14
    2304    2301    2328      26    2304    2310    2319      17    2304    2310
    2313      27    2301    2328    2331      14    2301    2328    2322      26
    2301    2304    2310      26    2301    2304    2307      14    2298    2301
    2328      17    2298    2301    2304      17    2295    2298    2301      29
    2292    2295    2298      32    2289    2292    2295      33    2286    2289
    2292      33    2286    2283    2334      34    2283    2334    2337      35
    2283    2286    2289      36    2277    2433    2430       5    2274    2277
    2433       5    2271    2274    2277      42    2268    2265    2271      42
    2265    2271    2274      43    2265    2262    2334      44    2262    2265
    2268      42    2262    2265    2271      43    2262    2334    2337      45
    2262    2334    2283      46    2262    2256    2274      43    2256    2274
    2271      43    2256    2274    2277      42    2256    2262    2265      43
    2256    2262    2334      44    2256    2253    2283      46    2253    2256
    2274      44    2253    2256    2262      44    2253    2283    2334      47
    2253    2283    2286      34    2250    2253    2256      45    2250    2253
    2283      35    2490    2487    2493      14    2487    2493    2496      14
    2484    2487    2490      15    2484    2487    2493      17    2478    2475
    2484      20    2475    2484    2487      23    2475    2478    2481      25
    2472    2469    2475      14    2469    2466    2493      26    2469    2475
    2484      17    2469    2475    2478      27    2466    2493    2496      14
    2466    2493    2487      26    2466    2469    2475      26    2466    2469
    2472      14    2463    2466    2493      17    2463    2466    2469      17
    2460    2463    2466      29    2457    2460    2463      32    2454    2457
    2460      33    2451    2454    2457      33    2451    2448    2499      34
    2448    2499    2502      35    2448    2451    2454      36    2442    2598
    2595       5    2439    2442    2598       5    2436    2439    2442      42
    2433    2430    2436      42    2430    2436    2439      43    2430    2427
    2499      44    2427    2430    2433      42    2427    2430    2436      43
    2427    2499    2502      45    2427    2499    2448      46    2427    2421
    2439      43    2421    2439    2436      43    2421    2439    2442      42
    2421    2427    2430      43    2421    2427    2499      44    2421    2418
    2448      46    2418    2421    2439      44    2418    2421    2427      44
    2418    2448    2499      47    2418    2448    2451      34    2415    2418
    2421      45    2415    2418    2448      35    2655    2652    2658      14
    2652    2658    2661      14    2649    2652    2655      15    2649    2652
    2658      17    2643    2640    2649      20    2640    2649    2652      23
    2640    2643    2646      25    2637    2634    2640      14    2634    2631
    2658      26    2634    2640    2649      17    2634    2640    2643      27
    2631    2658    2661      14    2631    2658    2652      26    2631    2634
    2640      26    2631    2634    2637      14    2628    2631    2658      17
    2628    2631    2634      17    2625    2628    2631      29    2622    2625
    2628      32    2619    2622    2625      33    2616    2619    2622      33
    2616    2613    2664      34    2613    2664    2667      35    2613    2616
    2619      36    2607    2763    2760       5    2604    2607    2763       5
    2601    2604    2607      42    2598    2595    2601      42    2595    2601
    2604      43    2595    2592    2664      44    2592    2595    2598      42
    2592    2595    2601      43    2592    2664    2667      45    2592    2664
    2613      46    2592    2586    2604      43    2586    2604    2601      43
    2586    2604    2607      42    2586    2592    2595      43    2586    2592
    2664      44    2586    2583    2613      46    2583    2586    2604      44
    2583    2586    2592      44    2583    2613    2664      47    2583    2613
    2616      34    2580    2583    2586      45    2580    2583    2613      35
    2820    2817    2823      14    2817    2823    2826      14    2814    2817
    2820      15    2814    2817    2823      17    2808    2805    2814      20
    2805    2814    2817      23    2805    2808    2811      25    2802    2799
    2805      14    2799    2796    2823      26    2799    2805    2814      17
    2799    2805    2808      27    2796    2823    2826      14    2796    2823
    2817      26    2796    2799    2805      26    2796    2799    2802      14
    2793    2796    2823      17    2793    2796    2799      17    2790    2793
    2796      29    2787    2790    2793      32    2784    2787    2790      33
    2781    2784    2787      33    2781    2778    2829      34    2778    2829
    2832      35    2778    2781    2784      36    2772    2928    2925       5
    2769    2772    2928       5    2766    2769    2772      42    2763    2760
    2766      42    2760    2766    2769      43    2760    2757    2829      44
    2757    2760    2763      42    2757    2760    2766      43    2757    2829
    2832      45    2757    2829    2778      46    2757    2751    2769      43
    2751    2769    2766      43    2751    2769    2772      42    2751    2757
    2760      43    2751    2757    2829      44    2751    2748    2778      46
    2748    2751    2769      44    2748    2751    2757      44    2748    2778
    2829      47    2748    2778    2781      34    2745    2748    2751      45
    2745    2748    2778      35    2985    2982    2988      14    2982    2988
    2991      14    2979    2982    2985      15    2979    2982    2988      17
    2973    2970    2979      20    2970    2979    2982      23    2970    2973
    2976      25    2967    2964    2970      14    2964    2961    2988      26
    2964    2970    2979      17    2964    2970    2973      27    2961    2988
    2991      14    2961    2988    2982      26    2961    2964    2970      26
    2961    2964    2967      14    2958    2961    2988      17    2958    2961
    2964      17    2955    2958    2961      29    2952    2955    2958      32
    2949    2952    2955      33    2946    2949    2952      33    2946    2943
    2994      34    2943    2994    2997      35    2943    2946    2949      36
    2937    3093    3090       5    2934    2937    3093       5    2931    2934
    2937      42    2928    2925    2931      42    2925    2931    2934      43
    2925    2922    2994      44    2922    2925    2928      42    2922    2925
    2931      43    2922    2994    2997      45    2922    2994    2943      46
    2922    2916    2934      43    2916    2934    2931      43    2916    2934
    2937      42    2916    2922    2925      43    2916    2922    2994      44
    2916    2913    2943      46    2913    2916    2934      44    2913    2916
    2922      44    2913    2943    2994      47    2913    2943    2946      34
    2910    2913    2916      45    2910    2913    2943      35    3150    3147
    3153      14    3147    3153    3156      14    3144    3147    3150      15
    3144    3147    3153      17    3138    3135    3144      20    3135    3144
    3147      23    3135    3138    3141      25    3132    3129    3135      14
    3129    3126    3153      26    3129    3135    3144      17    3129    3135
    3138      27    3126    3153    3156      14    3126    3153    3147      26
    3126    3129    3135      26    3126    3129    3132      14    3123    3126
    3153      17    3123    3126    3129      17    3120    3123    3126      29
    3117    3120    3123      32    3114    3117    3120      33    3111    3114
    3117      33    3111    3108    3159      34    3108    3159    3162      35
    3108    3111    3114      36    3102    3258    3255       5    3099    3102
    3258       5    3096    3099    3102      42    3093    3090    3096      42
    3090    3096    3099      43    3090    3087    3159      44    3087    3090
    3093      42    3087    3090    3096      43    3087    3159    3162      45
    3087    3159    3108      46    3087    3081    3099      43    3081    3099
    3096      43    3081    3099    3102      42    3081    3087    3090      43
    3081    3087    3159      44    3081    3078    3108      46    3078    3081
    3099      44    3078    3081    3087      44    3078    3108    3159      47
    3078    3108    3111      34    3075    3078    3081      45    3075    3078
    3108      35    3315    3312    3318      14    3312    3318    3321      14
    3309    3312    3315      15    3309    3312    3318      17    3303    3300
    3309      20    3300    3309    3312      23    3300    3303    3306      25
    3297    3294    3300      14    3294    3291    3318      26    3294    3300
    3309      17    3294    3300    3303      27    3291    3318    3321      14
    3291    3318    3312      26    3291    3294    3300      26    3291    3294
    3297      14    3288    3291    3318      17    3288    3291    3294      17
    3285    3288    3291      29    3282    3285    3288      32    3279    3282
    3285      33    3276    3279    3282      33    3276    3273    3324      34
    3273    3324    3327      35    3273    3276    3279      36    3264    3267
    3405       5    3261    3264    3267      42    3258    3255    3261      42
    3255    3261    3264      43    3255    3252    3324      44    3252    3255
    3258      42    3252    3255    3261      43    3252    3324    3327      45
    3252    3324    3273      46    3252    3246    3264      43    3246    3264
    3261      43    3246    3264    3267      42    3246    3252    3255      43
    3246    3252    3324      44    3246    3243    3273      46    3243    3246
    3264      44    3243    3246    3252      44    3243    3273    3324      47
    3243    3273    3276      34    3240    3243    3246      45    3240    3243
    3273      35
%FLAG DIHEDRALS_INC_HYDROGEN                                                    
%FORMAT(10I8)                                                                   
      69      30      33      72       1      63      21      24      66       1
      60      18      21      63       1      54       9      12      57       1
      48       0      39      75       1      48       0       3      51       1
      45      27      30      69       1      45      27      24      66       1
      45      15      12      57       1      45      15      18      60       1
      42      36      33      72       1      42      36      39      75       1
      42       6       9      54       1      42       6       3      51       1
      39      36      33      72       1      39       0       3      51       1
      36      33      30      69       1      48       0      39      36       1
      33      36      39      75       1      30      27      24      66       1
      27      30      33      72       1      27      24      21      63       1
      24      27      30      69       1      24      21      18      60       1
      18      15      12      57       1      18      21      24      66       1
      15      12       9      54       1      15      18      21      63       1
      12      15      18      60       1       9       6       3      51       1
       6       9      12      57       1      48       0       3       6       1
       3       6       9      54       1       3       0      39      75       1
      84      78     105     180       2      84      78     105     102       2
      81      78     105     180       2      81      78     105     102       2
      78     105     102     177       4      78     105    -102     177       3
      78     105    -102     177       5     246     165     168     249       6
     240     159     162     243       6     240     159     165     246       7
     234     150     153     237       8     231     150     153     237       8
     228     147     150     231       7     228     147     150     234       7
     222     141     147     228       7     222     141     144     225       6
     219     138     165     246       7     219     138     141     222       7
     210     129     132     213       7     210     129     132     216       7
     207     129     132     213       7     207     129     132     216       7
     204     126     129     210       9     204     126     129     207       9
     201     126     129     210       9     201     126     129     207       9
     198     123     126     204       7     198     123     126     201       7
     195     123     126     204       7     195     123     126     201       7
     192     114     270     345       2     192     114     270     267       2
     189     111     114     192       3     189     111     114     270       4
     189     111    -114     270       3     189     111    -114     270       5
     186     108     111     189      10     183     108     111     189      10
     177     102     105     180       3     177     102     108     186      10
     177     102     108     183      10     171      99     102     177       7
     171     120     123     195      11     171     120     123     198      11
     168     165     159     240       7     168     165     138     219      12
     168     165    -138     219      13     165     159     162     243      12
     165     159    -162     243      14     165     138     141     222       7
     162     159     165     246      12     162     159    -165     246      13
     159     165     168     249      12     159     165    -168     249      14
     159     165     138     219       7     159     156     147     228      17
     156     159     162     243       6     156     159     165     246      12
     156     159    -165     246      13     156     147     141     222      12
     156     147    -141     222      13     156     147     150     231      12
     156     147    -150     231      13     156     147     150     234      12
     156     147    -150     234      13     153     150     147     228      12
     153     150    -147     228      13     150     147     141     222       7
     147     156     159     240      17     147     141     138     219       7
     147     141     144     225      12     147     141    -144     225      14
     147     150     153     237      12     147     150    -153     237      14
     144     141     138     219      12     144     141    -138     219      13
     144     141     147     228      12     144     141    -147     228      13
     141     138     165     246       7     141     147     150     231       7
     141     147     150     234       7     138     165     168     249      12
     138     165    -168     249      14     138     165     159     240       7
     138     135     132     213      17     138     135     132     216      17
     138     141     147     228       7     138     141     144     225      12
     138     141    -144     225      14     135     132     129     210      12
     135     132    -129     210      13     135     132     129     207      12
     135     132    -129     207      13     135     138     165     246      12
     135     138    -165     246      13     135     138     141     222      12
     135     138    -141     222      13     132     135     138     219      17
     132     129     126     204      23     132     129     126     201      23
     129     126     123     195       7     129     126     123     198       7
     126     129     132     213       7     126     129     132     216       7
     123     126     129     210      23     123     126     129     207      23
     120     123     126     204       7     120     123     126     201       7
     117      99     102     177      10     117      99     171     174      30
     117      99    -171     174       3     117      99    -171     174      31
     117      99     171     120      11     114     111     108     186       7
     114     111     108     183       7     114     270     267     342       4
     114     270    -267     342       3     114     270    -267     342       5
     111     108     102     177      14     111     114     270     345       2
     111      93      99     117      14     108     102     105     180       3
     108     102      99     117      14     108     111     114     192       3
     105     102     108     186       7     105     102     108     183       7
     105     102      99     117       7     102     108     111     189      14
      99     102     105     180       3      99     102     108     186      14
      99     102     108     183      14      99      93     111     189      14
      96      93     111     189      10      96      93     111     108      14
      96      93     111     114       7      96      93      99     102      14
      96      93      99     171       7      96      93      99     117      10
      96      93      90     120      11      93     111     108     186      14
      93     111     108     183      14      93     111     114     192       3
      93      99     102     177      14      90      93     111     189       7
      90      93      99     117       7      90     120     123     195      11
      90     120     123     198      11      87      90      93      96      30
      87      90     -93      96       3      87      90     -93      96      31
     411     330     333     414       6     405     324     327     408       6
     405     324     330     411       7     399     315     318     402       8
     396     315     318     402       8     393     312     315     396       7
     393     312     315     399       7     387     306     312     393       7
     387     306     309     390       6     384     303     330     411       7
     384     303     306     387       7     375     294     297     378       7
     375     294     297     381       7     372     294     297     378       7
     372     294     297     381       7     369     291     294     375       9
     369     291     294     372       9     366     291     294     375       9
     366     291     294     372       9     363     288     291     369       7
     363     288     291     366       7     360     288     291     369       7
     360     288     291     366       7     357     279     435     510       2
     357     279     435     432       2     354     276     279     357       3
     354     276     279     435       4     354     276    -279     435       3
     354     276    -279     435       5     351     273     276     354      10
     348     273     276     354      10     342     267     270     345       3
     342     267     273     351      10     342     267     273     348      10
     336     264     267     342       7     336     285     288     360      11
     336     285     288     363      11     333     330     324     405       7
     333     330     303     384      12     333     330    -303     384      13
     330     324     327     408      12     330     324    -327     408      14
     330     303     306     387       7     327     324     330     411      12
     327     324    -330     411      13     324     330     333     414      12
     324     330    -333     414      14     324     330     303     384       7
     324     321     312     393      17     321     324     327     408       6
     321     324     330     411      12     321     324    -330     411      13
     321     312     306     387      12     321     312    -306     387      13
     321     312     315     396      12     321     312    -315     396      13
     321     312     315     399      12     321     312    -315     399      13
     318     315     312     393      12     318     315    -312     393      13
     315     312     306     387       7     312     321     324     405      17
     312     306     303     384       7     312     306     309     390      12
     312     306    -309     390      14     312     315     318     402      12
     312     315    -318     402      14     309     306     303     384      12
     309     306    -303     384      13     309     306     312     393      12
     309     306    -312     393      13     306     303     330     411       7
     306     312     315     396       7     306     312     315     399       7
     303     330     333     414      12     303     330    -333     414      14
     303     330     324     405       7     303     300     297     378      17
     303     300     297     381      17     303     306     312     393       7
     303     306     309     390      12     303     306    -309     390      14
     300     297     294     375      12     300     297    -294     375      13
     300     297     294     372      12     300     297    -294     372      13
     300     303     330     411      12     300     303    -330     411      13
     300     303     306     387      12     300     303    -306     387      13
     297     300     303     384      17     297     294     291     369      23
     297     294     291     366      23     294     291     288     360       7
     294     291     288     363       7     291     294     297     378       7
     291     294     297     381       7     288     291     294     375      23
     288     291     294     372      23     285     288     291     369       7
     285     288     291     366       7     282     264     267     342      10
     282     264     336     339      30     282     264    -336     339       3
     282     264    -336     339      31     282     264     336     285      11
     279     276     273     351       7     279     276     273     348       7
     279     435     432     507       4     279     435    -432     507       3
     279     435    -432     507       5     276     273     267     342      14
     276     279     435     510       2     276     258     264     282      14
     273     267     270     345       3     273     267     264     282      14
     273     276     279     357       3     270     267     273     351       7
     270     267     273     348       7     270     267     264     282       7
     267     273     276     354      14     264     267     270     345       3
     264     267     273     351      14     264     267     273     348      14
     264     258     276     354      14     261     258     276     354      10
     261     258     276     273      14     261     258     276     279       7
     261     258     264     267      14     261     258     264     336       7
     261     258     264     282      10     261     258     255     285      11
     258     276     273     351      14     258     276     273     348      14
     258     276     279     357       3     258     264     267     342      14
     255     258     276     354       7     255     258     264     282       7
     255     285     288     360      11     255     285     288     363      11
     252     255     258     261      30     252     255    -258     261       3
     252     255    -258     261      31     576     495     498     579       6
     570     489     492     573       6     570     489     495     576       7
     564     480     483     567       8     561     480     483     567       8
     558     477     480     561       7     558     477     480     564       7
     552     471     477     558       7     552     471     474     555       6
     549     468     495     576       7     549     468     471     552       7
     540     459     462     543       7     540     459     462     546       7
     537     459     462     543       7     537     459     462     546       7
     534     456     459     540       9     534     456     459     537       9
     531     456     459     540       9     531     456     459     537       9
     528     453     456     534       7     528     453     456     531       7
     525     453     456     534       7     525     453     456     531       7
     522     444     600     675       2     522     444     600     597       2
     519     441     444     522       3     519     441     444     600       4
     519     441    -444     600       3     519     441    -444     600       5
     516     438     441     519      10     513     438     441     519      10
     507     432     435     510       3     507     432     438     516      10
     507     432     438     513      10     501     429     432     507       7
     501     450     453     525      11     501     450     453     528      11
     498     495     489     570       7     498     495     468     549      12
     498     495    -468     549      13     495     489     492     573      12
     495     489    -492     573      14     495     468     471     552       7
     492     489     495     576      12     492     489    -495     576      13
     489     495     498     579      12     489     495    -498     579      14
     489     495     468     549       7     489     486     477     558      17
     486     489     492     573       6     486     489     495     576      12
     486     489    -495     576      13     486     477     471     552      12
     486     477    -471     552      13     486     477     480     561      12
     486     477    -480     561      13     486     477     480     564      12
     486     477    -480     564      13     483     480     477     558      12
     483     480    -477     558      13     480     477     471     552       7
     477     486     489     570      17     477     471     468     549       7
     477     471     474     555      12     477     471    -474     555      14
     477     480     483     567      12     477     480    -483     567      14
     474     471     468     549      12     474     471    -468     549      13
     474     471     477     558      12     474     471    -477     558      13
     471     468     495     576       7     471     477     480     561       7
     471     477     480     564       7     468     495     498     579      12
     468     495    -498     579      14     468     495     489     570       7
     468     465     462     543      17     468     465     462     546      17
     468     471     477     558       7     468     471     474     555      12
     468     471    -474     555      14     465     462     459     540      12
     465     462    -459     540      13     465     462     459     537      12
     465     462    -459     537      13     465     468     495     576      12
     465     468    -495     576      13     465     468     471     552      12
     465     468    -471     552      13     462     465     468     549      17
     462     459     456     534      23     462     459     456     531      23
     459     456     453     525       7     459     456     453     528       7
     456     459     462     543       7     456     459     462     546       7
     453     456     459     540      23     453     456     459     537      23
     450     453     456     534       7     450     453     456     531       7
     447     429     432     507      10     447     429     501     504      30
     447     429    -501     504       3     447     429    -501     504      31
     447     429     501     450      11     444     441     438     516       7
     444     441     438     513       7     444     600     597     672       4
     444     600    -597     672       3     444     600    -597     672       5
     441     438     432     507      14     441     444     600     675       2
     441     423     429     447      14     438     432     435     510       3
     438     432     429     447      14     438     441     444     522       3
     435     432     438     516       7     435     432     438     513       7
     435     432     429     447       7     432     438     441     519      14
     429     432     435     510       3     429     432     438     516      14
     429     432     438     513      14     429     423     441     519      14
     426     423     441     519      10     426     423     441     438      14
     426     423     441     444       7     426     423     429     432      14
     426     423     429     501       7     426     423     429     447      10
     426     423     420     450      11     423     441     438     516      14
     423     441     438     513      14     423     441     444     522       3
     423     429     432     507      14     420     423     441     519       7
     420     423     429     447       7     420     450     453     525      11
     420     450     453     528      11     417     420     423     426      30
     417     420    -423     426       3     417     420    -423     426      31
     741     660     663     744       6     735     654     657     738       6
     735     654     660     741       7     729     645     648     732       8
     726     645     648     732       8     723     642     645     726       7
     723     642     645     729       7     717     636     642     723       7
     717     636     639     720       6     714     633     660     741       7
     714     633     636     717       7     705     624     627     708       7
     705     624     627     711       7     702     624     627     708       7
     702     624     627     711       7     699     621     624     705       9
     699     621     624     702       9     696     621     624     705       9
     696     621     624     702       9     693     618     621     699       7
     693     618     621     696       7     690     618     621     699       7
     690     618     621     696       7     687     609     765     840       2
     687     609     765     762       2     684     606     609     687       3
     684     606     609     765       4     684     606    -609     765       3
     684     606    -609     765       5     681     603     606     684      10
     678     603     606     684      10     672     597     600     675       3
     672     597     603     681      10     672     597     603     678      10
     666     594     597     672       7     666     615     618     690      11
     666     615     618     693      11     663     660     654     735       7
     663     660     633     714      12     663     660    -633     714      13
     660     654     657     738      12     660     654    -657     738      14
     660     633     636     717       7     657     654     660     741      12
     657     654    -660     741      13     654     660     663     744      12
     654     660    -663     744      14     654     660     633     714       7
     654     651     642     723      17     651     654     657     738       6
     651     654     660     741      12     651     654    -660     741      13
     651     642     636     717      12     651     642    -636     717      13
     651     642     645     726      12     651     642    -645     726      13
     651     642     645     729      12     651     642    -645     729      13
     648     645     642     723      12     648     645    -642     723      13
     645     642     636     717       7     642     651     654     735      17
     642     636     633     714       7     642     636     639     720      12
     642     636    -639     720      14     642     645     648     732      12
     642     645    -648     732      14     639     636     633     714      12
     639     636    -633     714      13     639     636     642     723      12
     639     636    -642     723      13     636     633     660     741       7
     636     642     645     726       7     636     642     645     729       7
     633     660     663     744      12     633     660    -663     744      14
     633     660     654     735       7     633     630     627     708      17
     633     630     627     711      17     633     636     642     723       7
     633     636     639     720      12     633     636    -639     720      14
     630     627     624     705      12     630     627    -624     705      13
     630     627     624     702      12     630     627    -624     702      13
     630     633     660     741      12     630     633    -660     741      13
     630     633     636     717      12     630     633    -636     717      13
     627     630     633     714      17     627     624     621     699      23
     627     624     621     696      23     624     621     618     690       7
     624     621     618     693       7     621     624     627     708       7
     621     624     627     711       7     618     621     624     705      23
     618     621     624     702      23     615     618     621     699       7
     615     618     621     696       7     612     594     597     672      10
     612     594     666     669      30     612     594    -666     669       3
     612     594    -666     669      31     612     594     666     615      11
     609     606     603     681       7     609     606     603     678       7
     609     765     762     837       4     609     765    -762     837       3
     609     765    -762     837       5     606     603     597     672      14
     606     609     765     840       2     606     588     594     612      14
     603     597     600     675       3     603     597     594     612      14
     603     606     609     687       3     600     597     603     681       7
     600     597     603     678       7     600     597     594     612       7
     597     603     606     684      14     594     597     600     675       3
     594     597     603     681      14     594     597     603     678      14
     594     588     606     684      14     591     588     606     684      10
     591     588     606     603      14     591     588     606     609       7
     591     588     594     597      14     591     588     594     666       7
     591     588     594     612      10     591     588     585     615      11
     588     606     603     681      14     588     606     603     678      14
     588     606     609     687       3     588     594     597     672      14
     585     588     606     684       7     585     588     594     612       7
     585     615     618     690      11     585     615     618     693      11
     582     585     588     591      30     582     585    -588     591       3
     582     585    -588     591      31     906     825     828     909       6
     900     819     822     903       6     900     819     825     906       7
     894     810     813     897       8     891     810     813     897       8
     888     807     810     891       7     888     807     810     894       7
     882     801     807     888       7     882     801     804     885       6
     879     798     825     906       7     879     798     801     882       7
     870     789     792     873       7     870     789     792     876       7
     867     789     792     873       7     867     789     792     876       7
     864     786     789     870       9     864     786     789     867       9
     861     786     789     870       9     861     786     789     867       9
     858     783     786     864       7     858     783     786     861       7
     855     783     786     864       7     855     783     786     861       7
     852     774     930    1005       2     852     774     930     927       2
     849     771     774     852       3     849     771     774     930       4
     849     771    -774     930       3     849     771    -774     930       5
     846     768     771     849      10     843     768     771     849      10
     837     762     765     840       3     837     762     768     846      10
     837     762     768     843      10     831     759     762     837       7
     831     780     783     855      11     831     780     783     858      11
     828     825     819     900       7     828     825     798     879      12
     828     825    -798     879      13     825     819     822     903      12
     825     819    -822     903      14     825     798     801     882       7
     822     819     825     906      12     822     819    -825     906      13
     819     825     828     909      12     819     825    -828     909      14
     819     825     798     879       7     819     816     807     888      17
     816     819     822     903       6     816     819     825     906      12
     816     819    -825     906      13     816     807     801     882      12
     816     807    -801     882      13     816     807     810     891      12
     816     807    -810     891      13     816     807     810     894      12
     816     807    -810     894      13     813     810     807     888      12
     813     810    -807     888      13     810     807     801     882       7
     807     816     819     900      17     807     801     798     879       7
     807     801     804     885      12     807     801    -804     885      14
     807     810     813     897      12     807     810    -813     897      14
     804     801     798     879      12     804     801    -798     879      13
     804     801     807     888      12     804     801    -807     888      13
     801     798     825     906       7     801     807     810     891       7
     801     807     810     894       7     798     825     828     909      12
     798     825    -828     909      14     798     825     819     900       7
     798     795     792     873      17     798     795     792     876      17
     798     801     807     888       7     798     801     804     885      12
     798     801    -804     885      14     795     792     789     870      12
     795     792    -789     870      13     795     792     789     867      12
     795     792    -789     867      13     795     798     825     906      12
     795     798    -825     906      13     795     798     801     882      12
     795     798    -801     882      13     792     795     798     879      17
     792     789     786     864      23     792     789     786     861      23
     789     786     783     855       7     789     786     783     858       7
     786     789     792     873       7     786     789     792     876       7
     783     786     789     870      23     783     786     789     867      23
     780     783     786     864       7     780     783     786     861       7
     777     759     762     837      10     777     759     831     834      30
     777     759    -831     834       3     777     759    -831     834      31
     777     759     831     780      11     774     771     768     846       7
     774     771     768     843       7     774     930     927    1002       4
     774     930    -927    1002       3     774     930    -927    1002       5
     771     768     762     837      14     771     774     930    1005       2
     771     753     759     777      14     768     762     765     840       3
     768     762     759     777      14     768     771     774     852       3
     765     762     768     846       7     765     762     768     843       7
     765     762     759     777       7     762     768     771     849      14
     759     762     765     840       3     759     762     768     846      14
     759     762     768     843      14     759     753     771     849      14
     756     753     771     849      10     756     753     771     768      14
     756     753     771     774       7     756     753     759     762      14
     756     753     759     831       7     756     753     759     777      10
     756     753     750     780      11     753     771     768     846      14
     753     771     768     843      14     753     771     774     852       3
     753     759     762     837      14     750     753     771     849       7
     750     753     759     777       7     750     780     783     855      11
     750     780     783     858      11     747     750     753     756      30
     747     750    -753     756       3     747     750    -753     756      31
    1071     990     993    1074       6    1065     984     987    1068       6
    1065     984     990    1071       7    1059     975     978    1062       8
    1056     975     978    1062       8    1053     972     975    1056       7
    1053     972     975    1059       7    1047     966     972    1053       7
    1047     966     969    1050       6    1044     963     990    1071       7
    1044     963     966    1047       7    1035     954     957    1038       7
    1035     954     957    1041       7    1032     954     957    1038       7
    1032     954     957    1041       7    1029     951     954    1035       9
    1029     951     954    1032       9    1026     951     954    1035       9
    1026     951     954    1032       9    1023     948     951    1029       7
    1023     948     951    1026       7    1020     948     951    1029       7
    1020     948     951    1026       7    1017     939    1095    1170       2
    1017     939    1095    1092       2    1014     936     939    1017       3
    1014     936     939    1095       4    1014     936    -939    1095       3
    1014     936    -939    1095       5    1011     933     936    1014      10
    1008     933     936    1014      10    1002     927     930    1005       3
    1002     927     933    1011      10    1002     927     933    1008      10
     996     924     927    1002       7     996     945     948    1020      11
     996     945     948    1023      11     993     990     984    1065       7
     993     990     963    1044      12     993     990    -963    1044      13
     990     984     987    1068      12     990     984    -987    1068      14
     990     963     966    1047       7     987     984     990    1071      12
     987     984    -990    1071      13     984     990     993    1074      12
     984     990    -993    1074      14     984     990     963    1044       7
     984     981     972    1053      17     981     984     987    1068       6
     981     984     990    1071      12     981     984    -990    1071      13
     981     972     966    1047      12     981     972    -966    1047      13
     981     972     975    1056      12     981     972    -975    1056      13
     981     972     975    1059      12     981     972    -975    1059      13
     978     975     972    1053      12     978     975    -972    1053      13
     975     972     966    1047       7     972     981     984    1065      17
     972     966     963    1044       7     972     966     969    1050      12
     972     966    -969    1050      14     972     975     978    1062      12
     972     975    -978    1062      14     969     966     963    1044      12
     969     966    -963    1044      13     969     966     972    1053      12
     969     966    -972    1053      13     966     963     990    1071       7
     966     972     975    1056       7     966     972     975    1059       7
     963     990     993    1074      12     963     990    -993    1074      14
     963     990     984    1065       7     963     960     957    1038      17
     963     960     957    1041      17     963     966     972    1053       7
     963     966     969    1050      12     963     966    -969    1050      14
     960     957     954    1035      12     960     957    -954    1035      13
     960     957     954    1032      12     960     957    -954    1032      13
     960     963     990    1071      12     960     963    -990    1071      13
     960     963     966    1047      12     960     963    -966    1047      13
     957     960     963    1044      17     957     954     951    1029      23
     957     954     951    1026      23     954     951     948    1020       7
     954     951     948    1023       7     951     954     957    1038       7
     951     954     957    1041       7     948     951     954    1035      23
     948     951     954    1032      23     945     948     951    1029       7
     945     948     951    1026       7     942     924     927    1002      10
     942     924     996     999      30     942     924    -996     999       3
     942     924    -996     999      31     942     924     996     945      11
     939     936     933    1011       7     939     936     933    1008       7
     939    1095    1092    1167       4     939    1095   -1092    1167       3
     939    1095   -1092    1167       5     936     933     927    1002      14
     936     939    1095    1170       2     936     918     924     942      14
     933     927     930    1005       3     933     927     924     942      14
     933     936     939    1017       3     930     927     933    1011       7
     930     927     933    1008       7     930     927     924     942       7
     927     933     936    1014      14     924     927     930    1005       3
     924     927     933    1011      14     924     927     933    1008      14
     924     918     936    1014      14     921     918     936    1014      10
     921     918     936     933      14     921     918     936     939       7
     921     918     924     927      14     921     918     924     996       7
     921     918     924     942      10     921     918     915     945      11
     918     936     933    1011      14     918     936     933    1008      14
     918     936     939    1017       3     918     924     927    1002      14
     915     918     936    1014       7     915     918     924     942       7
     915     945     948    1020      11     915     945     948    1023      11
     912     915     918     921      30     912     915    -918     921       3
     912     915    -918     921      31    1236    1155    1158    1239       6
    1230    1149    1152    1233       6    1230    1149    1155    1236       7
    1224    1140    1143    1227       8    1221    1140    1143    1227       8
    1218    1137    1140    1221       7    1218    1137    1140    1224       7
    1212    1131    1137    1218       7    1212    1131    1134    1215       6
    1209    1128    1155    1236       7    1209    1128    1131    1212       7
    1200    1119    1122    1203       7    1200    1119    1122    1206       7
    1197    1119    1122    1203       7    1197    1119    1122    1206       7
    1194    1116    1119    1200       9    1194    1116    1119    1197       9
    1191    1116    1119    1200       9    1191    1116    1119    1197       9
    1188    1113    1116    1194       7    1188    1113    1116    1191       7
    1185    1113    1116    1194       7    1185    1113    1116    1191       7
    1182    1104    1260    1335       2    1182    1104    1260    1257       2
    1179    1101    1104    1182       3    1179    1101    1104    1260       4
    1179    1101   -1104    1260       3    1179    1101   -1104    1260       5
    1176    1098    1101    1179      10    1173    1098    1101    1179      10
    1167    1092    1095    1170       3    1167    1092    1098    1176      10
    1167    1092    1098    1173      10    1161    1089    1092    1167       7
    1161    1110    1113    1185      11    1161    1110    1113    1188      11
    1158    1155    1149    1230       7    1158    1155    1128    1209      12
    1158    1155   -1128    1209      13    1155    1149    1152    1233      12
    1155    1149   -1152    1233      14    1155    1128    1131    1212       7
    1152    1149    1155    1236      12    1152    1149   -1155    1236      13
    1149    1155    1158    1239      12    1149    1155   -1158    1239      14
    1149    1155    1128    1209       7    1149    1146    1137    1218      17
    1146    1149    1152    1233       6    1146    1149    1155    1236      12
    1146    1149   -1155    1236      13    1146    1137    1131    1212      12
    1146    1137   -1131    1212      13    1146    1137    1140    1221      12
    1146    1137   -1140    1221      13    1146    1137    1140    1224      12
    1146    1137   -1140    1224      13    1143    1140    1137    1218      12
    1143    1140   -1137    1218      13    1140    1137    1131    1212       7
    1137    1146    1149    1230      17    1137    1131    1128    1209       7
    1137    1131    1134    1215      12    1137    1131   -1134    1215      14
    1137    1140    1143    1227      12    1137    1140   -1143    1227      14
    1134    1131    1128    1209      12    1134    1131   -1128    1209      13
    1134    1131    1137    1218      12    1134    1131   -1137    1218      13
    1131    1128    1155    1236       7    1131    1137    1140    1221       7
    1131    1137    1140    1224       7    1128    1155    1158    1239      12
    1128    1155   -1158    1239      14    1128    1155    1149    1230       7
    1128    1125    1122    1203      17    1128    1125    1122    1206      17
    1128    1131    1137    1218       7    1128    1131    1134    1215      12
    1128    1131   -1134    1215      14    1125    1122    1119    1200      12
    1125    1122   -1119    1200      13    1125    1122    1119    1197      12
    1125    1122   -1119    1197      13    1125    1128    1155    1236      12
    1125    1128   -1155    1236      13    1125    1128    1131    1212      12
    1125    1128   -1131    1212      13    1122    1125    1128    1209      17
    1122    1119    1116    1194      23    1122    1119    1116    1191      23
    1119    1116    1113    1185       7    1119    1116    1113    1188       7
    1116    1119    1122    1203       7    1116    1119    1122    1206       7
    1113    1116    1119    1200      23    1113    1116    1119    1197      23
    1110    1113    1116    1194       7    1110    1113    1116    1191       7
    1107    1089    1092    1167      10    1107    1089    1161    1164      30
    1107    1089   -1161    1164       3    1107    1089   -1161    1164      31
    1107    1089    1161    1110      11    1104    1101    1098    1176       7
    1104    1101    1098    1173       7    1104    1260    1257    1332       4
    1104    1260   -1257    1332       3    1104    1260   -1257    1332       5
    1101    1098    1092    1167      14    1101    1104    1260    1335       2
    1101    1083    1089    1107      14    1098    1092    1095    1170       3
    1098    1092    1089    1107      14    1098    1101    1104    1182       3
    1095    1092    1098    1176       7    1095    1092    1098    1173       7
    1095    1092    1089    1107       7    1092    1098    1101    1179      14
    1089    1092    1095    1170       3    1089    1092    1098    1176      14
    1089    1092    1098    1173      14    1089    1083    1101    1179      14
    1086    1083    1101    1179      10    1086    1083    1101    1098      14
    1086    1083    1101    1104       7    1086    1083    1089    1092      14
    1086    1083    1089    1161       7    1086    1083    1089    1107      10
    1086    1083    1080    1110      11    1083    1101    1098    1176      14
    1083    1101    1098    1173      14    1083    1101    1104    1182       3
    1083    1089    1092    1167      14    1080    1083    1101    1179       7
    1080    1083    1089    1107       7    1080    1110    1113    1185      11
    1080    1110    1113    1188      11    1077    1080    1083    1086      30
    1077    1080   -1083    1086       3    1077    1080   -1083    1086      31
    1401    1320    1323    1404       6    1395    1314    1317    1398       6
    1395    1314    1320    1401       7    1389    1305    1308    1392       8
    1386    1305    1308    1392       8    1383    1302    1305    1386       7
    1383    1302    1305    1389       7    1377    1296    1302    1383       7
    1377    1296    1299    1380       6    1374    1293    1320    1401       7
    1374    1293    1296    1377       7    1365    1284    1287    1368       7
    1365    1284    1287    1371       7    1362    1284    1287    1368       7
    1362    1284    1287    1371       7    1359    1281    1284    1365       9
    1359    1281    1284    1362       9    1356    1281    1284    1365       9
    1356    1281    1284    1362       9    1353    1278    1281    1359       7
    1353    1278    1281    1356       7    1350    1278    1281    1359       7
    1350    1278    1281    1356       7    1347    1269    1425    1500       2
    1347    1269    1425    1422       2    1344    1266    1269    1347       3
    1344    1266    1269    1425       4    1344    1266   -1269    1425       3
    1344    1266   -1269    1425       5    1341    1263    1266    1344      10
    1338    1263    1266    1344      10    1332    1257    1260    1335       3
    1332    1257    1263    1341      10    1332    1257    1263    1338      10
    1326    1254    1257    1332       7    1326    1275    1278    1350      11
    1326    1275    1278    1353      11    1323    1320    1314    1395       7
    1323    1320    1293    1374      12    1323    1320   -1293    1374      13
    1320    1314    1317    1398      12    1320    1314   -1317    1398      14
    1320    1293    1296    1377       7    1317    1314    1320    1401      12
    1317    1314   -1320    1401      13    1314    1320    1323    1404      12
    1314    1320   -1323    1404      14    1314    1320    1293    1374       7
    1314    1311    1302    1383      17    1311    1314    1317    1398       6
    1311    1314    1320    1401      12    1311    1314   -1320    1401      13
    1311    1302    1296    1377      12    1311    1302   -1296    1377      13
    1311    1302    1305    1386      12    1311    1302   -1305    1386      13
    1311    1302    1305    1389      12    1311    1302   -1305    1389      13
    1308    1305    1302    1383      12    1308    1305   -1302    1383      13
    1305    1302    1296    1377       7    1302    1311    1314    1395      17
    1302    1296    1293    1374       7    1302    1296    1299    1380      12
    1302    1296   -1299    1380      14    1302    1305    1308    1392      12
    1302    1305   -1308    1392      14    1299    1296    1293    1374      12
    1299    1296   -1293    1374      13    1299    1296    1302    1383      12
    1299    1296   -1302    1383      13    1296    1293    1320    1401       7
    1296    1302    1305    1386       7    1296    1302    1305    1389       7
    1293    1320    1323    1404      12    1293    1320   -1323    1404      14
    1293    1320    1314    1395       7    1293    1290    1287    1368      17
    1293    1290    1287    1371      17    1293    1296    1302    1383       7
    1293    1296    1299    1380      12    1293    1296   -1299    1380      14
    1290    1287    1284    1365      12    1290    1287   -1284    1365      13
    1290    1287    1284    1362      12    1290    1287   -1284    1362      13
    1290    1293    1320    1401      12    1290    1293   -1320    1401      13
    1290    1293    1296    1377      12    1290    1293   -1296    1377      13
    1287    1290    1293    1374      17    1287    1284    1281    1359      23
    1287    1284    1281    1356      23    1284    1281    1278    1350       7
    1284    1281    1278    1353       7    1281    1284    1287    1368       7
    1281    1284    1287    1371       7    1278    1281    1284    1365      23
    1278    1281    1284    1362      23    1275    1278    1281    1359       7
    1275    1278    1281    1356       7    1272    1254    1257    1332      10
    1272    1254    1326    1329      30    1272    1254   -1326    1329       3
    1272    1254   -1326    1329      31    1272    1254    1326    1275      11
    1269    1266    1263    1341       7    1269    1266    1263    1338       7
    1269    1425    1422    1497       4    1269    1425   -1422    1497       3
    1269    1425   -1422    1497       5    1266    1263    1257    1332      14
    1266    1269    1425    1500       2    1266    1248    1254    1272      14
    1263    1257    1260    1335       3    1263    1257    1254    1272      14
    1263    1266    1269    1347       3    1260    1257    1263    1341       7
    1260    1257    1263    1338       7    1260    1257    1254    1272       7
    1257    1263    1266    1344      14    1254    1257    1260    1335       3
    1254    1257    1263    1341      14    1254    1257    1263    1338      14
    1254    1248    1266    1344      14    1251    1248    1266    1344      10
    1251    1248    1266    1263      14    1251    1248    1266    1269       7
    1251    1248    1254    1257      14    1251    1248    1254    1326       7
    1251    1248    1254    1272      10    1251    1248    1245    1275      11
    1248    1266    1263    1341      14    1248    1266    1263    1338      14
    1248    1266    1269    1347       3    1248    1254    1257    1332      14
    1245    1248    1266    1344       7    1245    1248    1254    1272       7
    1245    1275    1278    1350      11    1245    1275    1278    1353      11
    1242    1245    1248    1251      30    1242    1245   -1248    1251       3
    1242    1245   -1248    1251      31    1566    1485    1488    1569       6
    1560    1479    1482    1563       6    1560    1479    1485    1566       7
    1554    1470    1473    1557       8    1551    1470    1473    1557       8
    1548    1467    1470    1551       7    1548    1467    1470    1554       7
    1542    1461    1467    1548       7    1542    1461    1464    1545       6
    1539    1458    1485    1566       7    1539    1458    1461    1542       7
    1530    1449    1452    1533       7    1530    1449    1452    1536       7
    1527    1449    1452    1533       7    1527    1449    1452    1536       7
    1524    1446    1449    1530       9    1524    1446    1449    1527       9
    1521    1446    1449    1530       9    1521    1446    1449    1527       9
    1518    1443    1446    1524       7    1518    1443    1446    1521       7
    1515    1443    1446    1524       7    1515    1443    1446    1521       7
    1512    1434    1590    1665       2    1512    1434    1590    1587       2
    1509    1431    1434    1512       3    1509    1431    1434    1590       4
    1509    1431   -1434    1590       3    1509    1431   -1434    1590       5
    1506    1428    1431    1509      10    1503    1428    1431    1509      10
    1497    1422    1425    1500       3    1497    1422    1428    1506      10
    1497    1422    1428    1503      10    1491    1419    1422    1497       7
    1491    1440    1443    1515      11    1491    1440    1443    1518      11
    1488    1485    1479    1560       7    1488    1485    1458    1539      12
    1488    1485   -1458    1539      13    1485    1479    1482    1563      12
    1485    1479   -1482    1563      14    1485    1458    1461    1542       7
    1482    1479    1485    1566      12    1482    1479   -1485    1566      13
    1479    1485    1488    1569      12    1479    1485   -1488    1569      14
    1479    1485    1458    1539       7    1479    1476    1467    1548      17
    1476    1479    1482    1563       6    1476    1479    1485    1566      12
    1476    1479   -1485    1566      13    1476    1467    1461    1542      12
    1476    1467   -1461    1542      13    1476    1467    1470    1551      12
    1476    1467   -1470    1551      13    1476    1467    1470    1554      12
    1476    1467   -1470    1554      13    1473    1470    1467    1548      12
    1473    1470   -1467    1548      13    1470    1467    1461    1542       7
    1467    1476    1479    1560      17    1467    1461    1458    1539       7
    1467    1461    1464    1545      12    1467    1461   -1464    1545      14
    1467    1470    1473    1557      12    1467    1470   -1473    1557      14
    1464    1461    1458    1539      12    1464    1461   -1458    1539      13
    1464    1461    1467    1548      12    1464    1461   -1467    1548      13
    1461    1458    1485    1566       7    1461    1467    1470    1551       7
    1461    1467    1470    1554       7    1458    1485    1488    1569      12
    1458    1485   -1488    1569      14    1458    1485    1479    1560       7
    1458    1455    1452    1533      17    1458    1455    1452    1536      17
    1458    1461    1467    1548       7    1458    1461    1464    1545      12
    1458    1461   -1464    1545      14    1455    1452    1449    1530      12
    1455    1452   -1449    1530      13    1455    1452    1449    1527      12
    1455    1452   -1449    1527      13    1455    1458    1485    1566      12
    1455    1458   -1485    1566      13    1455    1458    1461    1542      12
    1455    1458   -1461    1542      13    1452    1455    1458    1539      17
    1452    1449    1446    1524      23    1452    1449    1446    1521      23
    1449    1446    1443    1515       7    1449    1446    1443    1518       7
    1446    1449    1452    1533       7    1446    1449    1452    1536       7
    1443    1446    1449    1530      23    1443    1446    1449    1527      23
    1440    1443    1446    1524       7    1440    1443    1446    1521       7
    1437    1419    1422    1497      10    1437    1419    1491    1494      30
    1437    1419   -1491    1494       3    1437    1419   -1491    1494      31
    1437    1419    1491    1440      11    1434    1431    1428    1506       7
    1434    1431    1428    1503       7    1434    1590    1587    1662       4
    1434    1590   -1587    1662       3    1434    1590   -1587    1662       5
    1431    1428    1422    1497      14    1431    1434    1590    1665       2
    1431    1413    1419    1437      14    1428    1422    1425    1500       3
    1428    1422    1419    1437      14    1428    1431    1434    1512       3
    1425    1422    1428    1506       7    1425    1422    1428    1503       7
    1425    1422    1419    1437       7    1422    1428    1431    1509      14
    1419    1422    1425    1500       3    1419    1422    1428    1506      14
    1419    1422    1428    1503      14    1419    1413    1431    1509      14
    1416    1413    1431    1509      10    1416    1413    1431    1428      14
    1416    1413    1431    1434       7    1416    1413    1419    1422      14
    1416    1413    1419    1491       7    1416    1413    1419    1437      10
    1416    1413    1410    1440      11    1413    1431    1428    1506      14
    1413    1431    1428    1503      14    1413    1431    1434    1512       3
    1413    1419    1422    1497      14    1410    1413    1431    1509       7
    1410    1413    1419    1437       7    1410    1440    1443    1515      11
    1410    1440    1443    1518      11    1407    1410    1413    1416      30
    1407    1410   -1413    1416       3    1407    1410   -1413    1416      31
    1731    1650    1653    1734       6    1725    1644    1647    1728       6
    1725    1644    1650    1731       7    1719    1635    1638    1722       8
    1716    1635    1638    1722       8    1713    1632    1635    1716       7
    1713    1632    1635    1719       7    1707    1626    1632    1713       7
    1707    1626    1629    1710       6    1704    1623    1650    1731       7
    1704    1623    1626    1707       7    1695    1614    1617    1698       7
    1695    1614    1617    1701       7    1692    1614    1617    1698       7
    1692    1614    1617    1701       7    1689    1611    1614    1695       9
    1689    1611    1614    1692       9    1686    1611    1614    1695       9
    1686    1611    1614    1692       9    1683    1608    1611    1689       7
    1683    1608    1611    1686       7    1680    1608    1611    1689       7
    1680    1608    1611    1686       7    1677    1599    1737    1740       2
    1677    1599    1737    1743       2    1674    1596    1599    1677       3
    1674    1596    1599    1737       4    1674    1596   -1599    1737       3
    1674    1596   -1599    1737       5    1671    1593    1596    1674      10
    1668    1593    1596    1674      10    1662    1587    1590    1665       3
    1662    1587    1593    1671      10    1662    1587    1593    1668      10
    1656    1584    1587    1662       7    1656    1605    1608    1680      11
    1656    1605    1608    1683      11    1653    1650    1644    1725       7
    1653    1650    1623    1704      12    1653    1650   -1623    1704      13
    1650    1644    1647    1728      12    1650    1644   -1647    1728      14
    1650    1623    1626    1707       7    1647    1644    1650    1731      12
    1647    1644   -1650    1731      13    1644    1650    1653    1734      12
    1644    1650   -1653    1734      14    1644    1650    1623    1704       7
    1644    1641    1632    1713      17    1641    1644    1647    1728       6
    1641    1644    1650    1731      12    1641    1644   -1650    1731      13
    1641    1632    1626    1707      12    1641    1632   -1626    1707      13
    1641    1632    1635    1716      12    1641    1632   -1635    1716      13
    1641    1632    1635    1719      12    1641    1632   -1635    1719      13
    1638    1635    1632    1713      12    1638    1635   -1632    1713      13
    1635    1632    1626    1707       7    1632    1641    1644    1725      17
    1632    1626    1623    1704       7    1632    1626    1629    1710      12
    1632    1626   -1629    1710      14    1632    1635    1638    1722      12
    1632    1635   -1638    1722      14    1629    1626    1623    1704      12
    1629    1626   -1623    1704      13    1629    1626    1632    1713      12
    1629    1626   -1632    1713      13    1626    1623    1650    1731       7
    1626    1632    1635    1716       7    1626    1632    1635    1719       7
    1623    1650    1653    1734      12    1623    1650   -1653    1734      14
    1623    1650    1644    1725       7    1623    1620    1617    1698      17
    1623    1620    1617    1701      17    1623    1626    1632    1713       7
    1623    1626    1629    1710      12    1623    1626   -1629    1710      14
    1620    1617    1614    1695      12    1620    1617   -1614    1695      13
    1620    1617    1614    1692      12    1620    1617   -1614    1692      13
    1620    1623    1650    1731      12    1620    1623   -1650    1731      13
    1620    1623    1626    1707      12    1620    1623   -1626    1707      13
    1617    1620    1623    1704      17    1617    1614    1611    1689      23
    1617    1614    1611    1686      23    1614    1611    1608    1680       7
    1614    1611    1608    1683       7    1611    1614    1617    1698       7
    1611    1614    1617    1701       7    1608    1611    1614    1695      23
    1608    1611    1614    1692      23    1605    1608    1611    1689       7
    1605    1608    1611    1686       7    1602    1584    1587    1662      10
    1602    1584    1656    1659      30    1602    1584   -1656    1659       3
    1602    1584   -1656    1659      31    1602    1584    1656    1605      11
    1599    1596    1593    1671       7    1599    1596    1593    1668       7
    1596    1593    1587    1662      14    1596    1599    1737    1740       2
    1596    1599    1737    1743       2    1596    1578    1584    1602      14
    1593    1587    1590    1665       3    1593    1587    1584    1602      14
    1593    1596    1599    1677       3    1590    1587    1593    1671       7
    1590    1587    1593    1668       7    1590    1587    1584    1602       7
    1587    1593    1596    1674      14    1584    1587    1590    1665       3
    1584    1587    1593    1671      14    1584    1587    1593    1668      14
    1584    1578    1596    1674      14    1581    1578    1596    1674      10
    1581    1578    1596    1593      14    1581    1578    1596    1599       7
    1581    1578    1584    1587      14    1581    1578    1584    1656       7
    1581    1578    1584    1602      10    1581    1578    1575    1605      11
    1578    1596    1593    1671      14    1578    1596    1593    1668      14
    1578    1596    1599    1677       3    1578    1584    1587    1662      14
    1575    1578    1596    1674       7    1575    1578    1584    1602       7
    1575    1605    1608    1680      11    1575    1605    1608    1683      11
    1572    1575    1578    1581      30    1572    1575   -1578    1581       3
    1572    1575   -1578    1581      31    1752    1746    1773    1848       2
    1752    1746    1773    1770       2    1749    1746    1773    1848       2
    1749    1746    1773    1770       2    1746    1773    1770    1845       4
    1746    1773   -1770    1845       3    1746    1773   -1770    1845       5
    1914    1833    1836    1917       6    1908    1827    1830    1911       6
    1908    1827    1833    1914       7    1902    1818    1821    1905       8
    1899    1818    1821    1905       8    1896    1815    1818    1899       7
    1896    1815    1818    1902       7    1890    1809    1815    1896       7
    1890    1809    1812    1893       6    1887    1806    1833    1914       7
    1887    1806    1809    1890       7    1878    1797    1800    1881       7
    1878    1797    1800    1884       7    1875    1797    1800    1881       7
    1875    1797    1800    1884       7    1872    1794    1797    1878       9
    1872    1794    1797    1875       9    1869    1794    1797    1878       9
    1869    1794    1797    1875       9    1866    1791    1794    1872       7
    1866    1791    1794    1869       7    1863    1791    1794    1872       7
    1863    1791    1794    1869       7    1860    1782    1938    2013       2
    1860    1782    1938    1935       2    1857    1779    1782    1860       3
    1857    1779    1782    1938       4    1857    1779   -1782    1938       3
    1857    1779   -1782    1938       5    1854    1776    1779    1857      10
    1851    1776    1779    1857      10    1845    1770    1773    1848       3
    1845    1770    1776    1854      10    1845    1770    1776    1851      10
    1839    1767    1770    1845       7    1839    1788    1791    1863      11
    1839    1788    1791    1866      11    1836    1833    1827    1908       7
    1836    1833    1806    1887      12    1836    1833   -1806    1887      13
    1833    1827    1830    1911      12    1833    1827   -1830    1911      14
    1833    1806    1809    1890       7    1830    1827    1833    1914      12
    1830    1827   -1833    1914      13    1827    1833    1836    1917      12
    1827    1833   -1836    1917      14    1827    1833    1806    1887       7
    1827    1824    1815    1896      17    1824    1827    1830    1911       6
    1824    1827    1833    1914      12    1824    1827   -1833    1914      13
    1824    1815    1809    1890      12    1824    1815   -1809    1890      13
    1824    1815    1818    1899      12    1824    1815   -1818    1899      13
    1824    1815    1818    1902      12    1824    1815   -1818    1902      13
    1821    1818    1815    1896      12    1821    1818   -1815    1896      13
    1818    1815    1809    1890       7    1815    1824    1827    1908      17
    1815    1809    1806    1887       7    1815    1809    1812    1893      12
    1815    1809   -1812    1893      14    1815    1818    1821    1905      12
    1815    1818   -1821    1905      14    1812    1809    1806    1887      12
    1812    1809   -1806    1887      13    1812    1809    1815    1896      12
    1812    1809   -1815    1896      13    1809    1806    1833    1914       7
    1809    1815    1818    1899       7    1809    1815    1818    1902       7
    1806    1833    1836    1917      12    1806    1833   -1836    1917      14
    1806    1833    1827    1908       7    1806    1803    1800    1881      17
    1806    1803    1800    1884      17    1806    1809    1815    1896       7
    1806    1809    1812    1893      12    1806    1809   -1812    1893      14
    1803    1800    1797    1878      12    1803    1800   -1797    1878      13
    1803    1800    1797    1875      12    1803    1800   -1797    1875      13
    1803    1806    1833    1914      12    1803    1806   -1833    1914      13
    1803    1806    1809    1890      12    1803    1806   -1809    1890      13
    1800    1803    1806    1887      17    1800    1797    1794    1872      23
    1800    1797    1794    1869      23    1797    1794    1791    1863       7
    1797    1794    1791    1866       7    1794    1797    1800    1881       7
    1794    1797    1800    1884       7    1791    1794    1797    1878      23
    1791    1794    1797    1875      23    1788    1791    1794    1872       7
    1788    1791    1794    1869       7    1785    1767    1770    1845      10
    1785    1767    1839    1842      30    1785    1767   -1839    1842       3
    1785    1767   -1839    1842      31    1785    1767    1839    1788      11
    1782    1779    1776    1854       7    1782    1779    1776    1851       7
    1782    1938    1935    2010       4    1782    1938   -1935    2010       3
    1782    1938   -1935    2010       5    1779    1776    1770    1845      14
    1779    1782    1938    2013       2    1779    1761    1767    1785      14
    1776    1770    1773    1848       3    1776    1770    1767    1785      14
    1776    1779    1782    1860       3    1773    1770    1776    1854       7
    1773    1770    1776    1851       7    1773    1770    1767    1785       7
    1770    1776    1779    1857      14    1767    1770    1773    1848       3
    1767    1770    1776    1854      14    1767    1770    1776    1851      14
    1767    1761    1779    1857      14    1764    1761    1779    1857      10
    1764    1761    1779    1776      14    1764    1761    1779    1782       7
    1764    1761    1767    1770      14    1764    1761    1767    1839       7
    1764    1761    1767    1785      10    1764    1761    1758    1788      11
    1761    1779    1776    1854      14    1761    1779    1776    1851      14
    1761    1779    1782    1860       3    1761    1767    1770    1845      14
    1758    1761    1779    1857       7    1758    1761    1767    1785       7
    1758    1788    1791    1863      11    1758    1788    1791    1866      11
    1755    1758    1761    1764      30    1755    1758   -1761    1764       3
    1755    1758   -1761    1764      31    2079    1998    2001    2082       6
    2073    1992    1995    2076       6    2073    1992    1998    2079       7
    2067    1983    1986    2070       8    2064    1983    1986    2070       8
    2061    1980    1983    2064       7    2061    1980    1983    2067       7
    2055    1974    1980    2061       7    2055    1974    1977    2058       6
    2052    1971    1998    2079       7    2052    1971    1974    2055       7
    2043    1962    1965    2046       7    2043    1962    1965    2049       7
    2040    1962    1965    2046       7    2040    1962    1965    2049       7
    2037    1959    1962    2043       9    2037    1959    1962    2040       9
    2034    1959    1962    2043       9    2034    1959    1962    2040       9
    2031    1956    1959    2037       7    2031    1956    1959    2034       7
    2028    1956    1959    2037       7    2028    1956    1959    2034       7
    2025    1947    2103    2178       2    2025    1947    2103    2100       2
    2022    1944    1947    2025       3    2022    1944    1947    2103       4
    2022    1944   -1947    2103       3    2022    1944   -1947    2103       5
    2019    1941    1944    2022      10    2016    1941    1944    2022      10
    2010    1935    1938    2013       3    2010    1935    1941    2019      10
    2010    1935    1941    2016      10    2004    1932    1935    2010       7
    2004    1953    1956    2028      11    2004    1953    1956    2031      11
    2001    1998    1992    2073       7    2001    1998    1971    2052      12
    2001    1998   -1971    2052      13    1998    1992    1995    2076      12
    1998    1992   -1995    2076      14    1998    1971    1974    2055       7
    1995    1992    1998    2079      12    1995    1992   -1998    2079      13
    1992    1998    2001    2082      12    1992    1998   -2001    2082      14
    1992    1998    1971    2052       7    1992    1989    1980    2061      17
    1989    1992    1995    2076       6    1989    1992    1998    2079      12
    1989    1992   -1998    2079      13    1989    1980    1974    2055      12
    1989    1980   -1974    2055      13    1989    1980    1983    2064      12
    1989    1980   -1983    2064      13    1989    1980    1983    2067      12
    1989    1980   -1983    2067      13    1986    1983    1980    2061      12
    1986    1983   -1980    2061      13    1983    1980    1974    2055       7
    1980    1989    1992    2073      17    1980    1974    1971    2052       7
    1980    1974    1977    2058      12    1980    1974   -1977    2058      14
    1980    1983    1986    2070      12    1980    1983   -1986    2070      14
    1977    1974    1971    2052      12    1977    1974   -1971    2052      13
    1977    1974    1980    2061      12    1977    1974   -1980    2061      13
    1974    1971    1998    2079       7    1974    1980    1983    2064       7
    1974    1980    1983    2067       7    1971    1998    2001    2082      12
    1971    1998   -2001    2082      14    1971    1998    1992    2073       7
    1971    1968    1965    2046      17    1971    1968    1965    2049      17
    1971    1974    1980    2061       7    1971    1974    1977    2058      12
    1971    1974   -1977    2058      14    1968    1965    1962    2043      12
    1968    1965   -1962    2043      13    1968    1965    1962    2040      12
    1968    1965   -1962    2040      13    1968    1971    1998    2079      12
    1968    1971   -1998    2079      13    1968    1971    1974    2055      12
    1968    1971   -1974    2055      13    1965    1968    1971    2052      17
    1965    1962    1959    2037      23    1965    1962    1959    2034      23
    1962    1959    1956    2028       7    1962    1959    1956    2031       7
    1959    1962    1965    2046       7    1959    1962    1965    2049       7
    1956    1959    1962    2043      23    1956    1959    1962    2040      23
    1953    1956    1959    2037       7    1953    1956    1959    2034       7
    1950    1932    1935    2010      10    1950    1932    2004    2007      30
    1950    1932   -2004    2007       3    1950    1932   -2004    2007      31
    1950    1932    2004    1953      11    1947    1944    1941    2019       7
    1947    1944    1941    2016       7    1947    2103    2100    2175       4
    1947    2103   -2100    2175       3    1947    2103   -2100    2175       5
    1944    1941    1935    2010      14    1944    1947    2103    2178       2
    1944    1926    1932    1950      14    1941    1935    1938    2013       3
    1941    1935    1932    1950      14    1941    1944    1947    2025       3
    1938    1935    1941    2019       7    1938    1935    1941    2016       7
    1938    1935    1932    1950       7    1935    1941    1944    2022      14
    1932    1935    1938    2013       3    1932    1935    1941    2019      14
    1932    1935    1941    2016      14    1932    1926    1944    2022      14
    1929    1926    1944    2022      10    1929    1926    1944    1941      14
    1929    1926    1944    1947       7    1929    1926    1932    1935      14
    1929    1926    1932    2004       7    1929    1926    1932    1950      10
    1929    1926    1923    1953      11    1926    1944    1941    2019      14
    1926    1944    1941    2016      14    1926    1944    1947    2025       3
    1926    1932    1935    2010      14    1923    1926    1944    2022       7
    1923    1926    1932    1950       7    1923    1953    1956    2028      11
    1923    1953    1956    2031      11    1920    1923    1926    1929      30
    1920    1923   -1926    1929       3    1920    1923   -1926    1929      31
    2244    2163    2166    2247       6    2238    2157    2160    2241       6
    2238    2157    2163    2244       7    2232    2148    2151    2235       8
    2229    2148    2151    2235       8    2226    2145    2148    2229       7
    2226    2145    2148    2232       7    2220    2139    2145    2226       7
    2220    2139    2142    2223       6    2217    2136    2163    2244       7
    2217    2136    2139    2220       7    2208    2127    2130    2211       7
    2208    2127    2130    2214       7    2205    2127    2130    2211       7
    2205    2127    2130    2214       7    2202    2124    2127    2208       9
    2202    2124    2127    2205       9    2199    2124    2127    2208       9
    2199    2124    2127    2205       9    2196    2121    2124    2202       7
    2196    2121    2124    2199       7    2193    2121    2124    2202       7
    2193    2121    2124    2199       7    2190    2112    2268    2343       2
    2190    2112    2268    2265       2    2187    2109    2112    2190       3
    2187    2109    2112    2268       4    2187    2109   -2112    2268       3
    2187    2109   -2112    2268       5    2184    2106    2109    2187      10
    2181    2106    2109    2187      10    2175    2100    2103    2178       3
    2175    2100    2106    2184      10    2175    2100    2106    2181      10
    2169    2097    2100    2175       7    2169    2118    2121    2193      11
    2169    2118    2121    2196      11    2166    2163    2157    2238       7
    2166    2163    2136    2217      12    2166    2163   -2136    2217      13
    2163    2157    2160    2241      12    2163    2157   -2160    2241      14
    2163    2136    2139    2220       7    2160    2157    2163    2244      12
    2160    2157   -2163    2244      13    2157    2163    2166    2247      12
    2157    2163   -2166    2247      14    2157    2163    2136    2217       7
    2157    2154    2145    2226      17    2154    2157    2160    2241       6
    2154    2157    2163    2244      12    2154    2157   -2163    2244      13
    2154    2145    2139    2220      12    2154    2145   -2139    2220      13
    2154    2145    2148    2229      12    2154    2145   -2148    2229      13
    2154    2145    2148    2232      12    2154    2145   -2148    2232      13
    2151    2148    2145    2226      12    2151    2148   -2145    2226      13
    2148    2145    2139    2220       7    2145    2154    2157    2238      17
    2145    2139    2136    2217       7    2145    2139    2142    2223      12
    2145    2139   -2142    2223      14    2145    2148    2151    2235      12
    2145    2148   -2151    2235      14    2142    2139    2136    2217      12
    2142    2139   -2136    2217      13    2142    2139    2145    2226      12
    2142    2139   -2145    2226      13    2139    2136    2163    2244       7
    2139    2145    2148    2229       7    2139    2145    2148    2232       7
    2136    2163    2166    2247      12    2136    2163   -2166    2247      14
    2136    2163    2157    2238       7    2136    2133    2130    2211      17
    2136    2133    2130    2214      17    2136    2139    2145    2226       7
    2136    2139    2142    2223      12    2136    2139   -2142    2223      14
    2133    2130    2127    2208      12    2133    2130   -2127    2208      13
    2133    2130    2127    2205      12    2133    2130   -2127    2205      13
    2133    2136    2163    2244      12    2133    2136   -2163    2244      13
    2133    2136    2139    2220      12    2133    2136   -2139    2220      13
    2130    2133    2136    2217      17    2130    2127    2124    2202      23
    2130    2127    2124    2199      23    2127    2124    2121    2193       7
    2127    2124    2121    2196       7    2124    2127    2130    2211       7
    2124    2127    2130    2214       7    2121    2124    2127    2208      23
    2121    2124    2127    2205      23    2118    2121    2124    2202       7
    2118    2121    2124    2199       7    2115    2097    2100    2175      10
    2115    2097    2169    2172      30    2115    2097   -2169    2172       3
    2115    2097   -2169    2172      31    2115    2097    2169    2118      11
    2112    2109    2106    2184       7    2112    2109    2106    2181       7
    2112    2268    2265    2340       4    2112    2268   -2265    2340       3
    2112    2268   -2265    2340       5    2109    2106    2100    2175      14
    2109    2112    2268    2343       2    2109    2091    2097    2115      14
    2106    2100    2103    2178       3    2106    2100    2097    2115      14
    2106    2109    2112    2190       3    2103    2100    2106    2184       7
    2103    2100    2106    2181       7    2103    2100    2097    2115       7
    2100    2106    2109    2187      14    2097    2100    2103    2178       3
    2097    2100    2106    2184      14    2097    2100    2106    2181      14
    2097    2091    2109    2187      14    2094    2091    2109    2187      10
    2094    2091    2109    2106      14    2094    2091    2109    2112       7
    2094    2091    2097    2100      14    2094    2091    2097    2169       7
    2094    2091    2097    2115      10    2094    2091    2088    2118      11
    2091    2109    2106    2184      14    2091    2109    2106    2181      14
    2091    2109    2112    2190       3    2091    2097    2100    2175      14
    2088    2091    2109    2187       7    2088    2091    2097    2115       7
    2088    2118    2121    2193      11    2088    2118    2121    2196      11
    2085    2088    2091    2094      30    2085    2088   -2091    2094       3
    2085    2088   -2091    2094      31    2409    2328    2331    2412       6
    2403    2322    2325    2406       6    2403    2322    2328    2409       7
    2397    2313    2316    2400       8    2394    2313    2316    2400       8
    2391    2310    2313    2394       7    2391    2310    2313    2397       7
    2385    2304    2310    2391       7    2385    2304    2307    2388       6
    2382    2301    2328    2409       7    2382    2301    2304    2385       7
    2373    2292    2295    2376       7    2373    2292    2295    2379       7
    2370    2292    2295    2376       7    2370    2292    2295    2379       7
    2367    2289    2292    2373       9    2367    2289    2292    2370       9
    2364    2289    2292    2373       9    2364    2289    2292    2370       9
    2361    2286    2289    2367       7    2361    2286    2289    2364       7
    2358    2286    2289    2367       7    2358    2286    2289    2364       7
    2355    2277    2433    2508       2    2355    2277    2433    2430       2
    2352    2274    2277    2355       3    2352    2274    2277    2433       4
    2352    2274   -2277    2433       3    2352    2274   -2277    2433       5
    2349    2271    2274    2352      10    2346    2271    2274    2352      10
    2340    2265    2268    2343       3    2340    2265    2271    2349      10
    2340    2265    2271    2346      10    2334    2262    2265    2340       7
    2334    2283    2286    2358      11    2334    2283    2286    2361      11
    2331    2328    2322    2403       7    2331    2328    2301    2382      12
    2331    2328   -2301    2382      13    2328    2322    2325    2406      12
    2328    2322   -2325    2406      14    2328    2301    2304    2385       7
    2325    2322    2328    2409      12    2325    2322   -2328    2409      13
    2322    2328    2331    2412      12    2322    2328   -2331    2412      14
    2322    2328    2301    2382       7    2322    2319    2310    2391      17
    2319    2322    2325    2406       6    2319    2322    2328    2409      12
    2319    2322   -2328    2409      13    2319    2310    2304    2385      12
    2319    2310   -2304    2385      13    2319    2310    2313    2394      12
    2319    2310   -2313    2394      13    2319    2310    2313    2397      12
    2319    2310   -2313    2397      13    2316    2313    2310    2391      12
    2316    2313   -2310    2391      13    2313    2310    2304    2385       7
    2310    2319    2322    2403      17    2310    2304    2301    2382       7
    2310    2304    2307    2388      12    2310    2304   -2307    2388      14
    2310    2313    2316    2400      12    2310    2313   -2316    2400      14
    2307    2304    2301    2382      12    2307    2304   -2301    2382      13
    2307    2304    2310    2391      12    2307    2304   -2310    2391      13
    2304    2301    2328    2409       7    2304    2310    2313    2394       7
    2304    2310    2313    2397       7    2301    2328    2331    2412      12
    2301    2328   -2331    2412      14    2301    2328    2322    2403       7
    2301    2298    2295    2376      17    2301    2298    2295    2379      17
    2301    2304    2310    2391       7    2301    2304    2307    2388      12
    2301    2304   -2307    2388      14    2298    2295    2292    2373      12
    2298    2295   -2292    2373      13    2298    2295    2292    2370      12
    2298    2295   -2292    2370      13    2298    2301    2328    2409      12
    2298    2301   -2328    2409      13    2298    2301    2304    2385      12
    2298    2301   -2304    2385      13    2295    2298    2301    2382      17
    2295    2292    2289    2367      23    2295    2292    2289    2364      23
    2292    2289    2286    2358       7    2292    2289    2286    2361       7
    2289    2292    2295    2376       7    2289    2292    2295    2379       7
    2286    2289    2292    2373      23    2286    2289    2292    2370      23
    2283    2286    2289    2367       7    2283    2286    2289    2364       7
    2280    2262    2265    2340      10    2280    2262    2334    2337      30
    2280    2262   -2334    2337       3    2280    2262   -2334    2337      31
    2280    2262    2334    2283      11    2277    2274    2271    2349       7
    2277    2274    2271    2346       7    2277    2433    2430    2505       4
    2277    2433   -2430    2505       3    2277    2433   -2430    2505       5
    2274    2271    2265    2340      14    2274    2277    2433    2508       2
    2274    2256    2262    2280      14    2271    2265    2268    2343       3
    2271    2265    2262    2280      14    2271    2274    2277    2355       3
    2268    2265    2271    2349       7    2268    2265    2271    2346       7
    2268    2265    2262    2280       7    2265    2271    2274    2352      14
    2262    2265    2268    2343       3    2262    2265    2271    2349      14
    2262    2265    2271    2346      14    2262    2256    2274    2352      14
    2259    2256    2274    2352      10    2259    2256    2274    2271      14
    2259    2256    2274    2277       7    2259    2256    2262    2265      14
    2259    2256    2262    2334       7    2259    2256    2262    2280      10
    2259    2256    2253    2283      11    2256    2274    2271    2349      14
    2256    2274    2271    2346      14    2256    2274    2277    2355       3
    2256    2262    2265    2340      14    2253    2256    2274    2352       7
    2253    2256    2262    2280       7    2253    2283    2286    2358      11
    2253    2283    2286    2361      11    2250    2253    2256    2259      30
    2250    2253   -2256    2259       3    2250    2253   -2256    2259      31
    2574    2493    2496    2577       6    2568    2487    2490    2571       6
    2568    2487    2493    2574       7    2562    2478    2481    2565       8
    2559    2478    2481    2565       8    2556    2475    2478    2559       7
    2556    2475    2478    2562       7    2550    2469    2475    2556       7
    2550    2469    2472    2553       6    2547    2466    2493    2574       7
    2547    2466    2469    2550       7    2538    2457    2460    2541       7
    2538    2457    2460    2544       7    2535    2457    2460    2541       7
    2535    2457    2460    2544       7    2532    2454    2457    2538       9
    2532    2454    2457    2535       9    2529    2454    2457    2538       9
    2529    2454    2457    2535       9    2526    2451    2454    2532       7
    2526    2451    2454    2529       7    2523    2451    2454    2532       7
    2523    2451    2454    2529       7    2520    2442    2598    2673       2
    2520    2442    2598    2595       2    2517    2439    2442    2520       3
    2517    2439    2442    2598       4    2517    2439   -2442    2598       3
    2517    2439   -2442    2598       5    2514    2436    2439    2517      10
    2511    2436    2439    2517      10    2505    2430    2433    2508       3
    2505    2430    2436    2514      10    2505    2430    2436    2511      10
    2499    2427    2430    2505       7    2499    2448    2451    2523      11
    2499    2448    2451    2526      11    2496    2493    2487    2568       7
    2496    2493    2466    2547      12    2496    2493   -2466    2547      13
    2493    2487    2490    2571      12    2493    2487   -2490    2571      14
    2493    2466    2469    2550       7    2490    2487    2493    2574      12
    2490    2487   -2493    2574      13    2487    2493    2496    2577      12
    2487    2493   -2496    2577      14    2487    2493    2466    2547       7
    2487    2484    2475    2556      17    2484    2487    2490    2571       6
    2484    2487    2493    2574      12    2484    2487   -2493    2574      13
    2484    2475    2469    2550      12    2484    2475   -2469    2550      13
    2484    2475    2478    2559      12    2484    2475   -2478    2559      13
    2484    2475    2478    2562      12    2484    2475   -2478    2562      13
    2481    2478    2475    2556      12    2481    2478   -2475    2556      13
    2478    2475    2469    2550       7    2475    2484    2487    2568      17
    2475    2469    2466    2547       7    2475    2469    2472    2553      12
    2475    2469   -2472    2553      14    2475    2478    2481    2565      12
    2475    2478   -2481    2565      14    2472    2469    2466    2547      12
    2472    2469   -2466    2547      13    2472    2469    2475    2556      12
    2472    2469   -2475    2556      13    2469    2466    2493    2574       7
    2469    2475    2478    2559       7    2469    2475    2478    2562       7
    2466    2493    2496    2577      12    2466    2493   -2496    2577      14
    2466    2493    2487    2568       7    2466    2463    2460    2541      17
    2466    2463    2460    2544      17    2466    2469    2475    2556       7
    2466    2469    2472    2553      12    2466    2469   -2472    2553      14
    2463    2460    2457    2538      12    2463    2460   -2457    2538      13
    2463    2460    2457    2535      12    2463    2460   -2457    2535      13
    2463    2466    2493    2574      12    2463    2466   -2493    2574      13
    2463    2466    2469    2550      12    2463    2466   -2469    2550      13
    2460    2463    2466    2547      17    2460    2457    2454    2532      23
    2460    2457    2454    2529      23    2457    2454    2451    2523       7
    2457    2454    2451    2526       7    2454    2457    2460    2541       7
    2454    2457    2460    2544       7    2451    2454    2457    2538      23
    2451    2454    2457    2535      23    2448    2451    2454    2532       7
    2448    2451    2454    2529       7    2445    2427    2430    2505      10
    2445    2427    2499    2502      30    2445    2427   -2499    2502       3
    2445    2427   -2499    2502      31    2445    2427    2499    2448      11
    2442    2439    2436    2514       7    2442    2439    2436    2511       7
    2442    2598    2595    2670       4    2442    2598   -2595    2670       3
    2442    2598   -2595    2670       5    2439    2436    2430    2505      14
    2439    2442    2598    2673       2    2439    2421    2427    2445      14
    2436    2430    2433    2508       3    2436    2430    2427    2445      14
    2436    2439    2442    2520       3    2433    2430    2436    2514       7
    2433    2430    2436    2511       7    2433    2430    2427    2445       7
    2430    2436    2439    2517      14    2427    2430    2433    2508       3
    2427    2430    2436    2514      14    2427    2430    2436    2511      14
    2427    2421    2439    2517      14    2424    2421    2439    2517      10
    2424    2421    2439    2436      14    2424    2421    2439    2442       7
    2424    2421    2427    2430      14    2424    2421    2427    2499       7
    2424    2421    2427    2445      10    2424    2421    2418    2448      11
    2421    2439    2436    2514      14    2421    2439    2436    2511      14
    2421    2439    2442    2520       3    2421    2427    2430    2505      14
    2418    2421    2439    2517       7    2418    2421    2427    2445       7
    2418    2448    2451    2523      11    2418    2448    2451    2526      11
    2415    2418    2421    2424      30    2415    2418   -2421    2424       3
    2415    2418   -2421    2424      31    2739    2658    2661    2742       6
    2733    2652    2655    2736       6    2733    2652    2658    2739       7
    2727    2643    2646    2730       8    2724    2643    2646    2730       8
    2721    2640    2643    2724       7    2721    2640    2643    2727       7
    2715    2634    2640    2721       7    2715    2634    2637    2718       6
    2712    2631    2658    2739       7    2712    2631    2634    2715       7
    2703    2622    2625    2706       7    2703    2622    2625    2709       7
    2700    2622    2625    2706       7    2700    2622    2625    2709       7
    2697    2619    2622    2703       9    2697    2619    2622    2700       9
    2694    2619    2622    2703       9    2694    2619    2622    2700       9
    2691    2616    2619    2697       7    2691    2616    2619    2694       7
    2688    2616    2619    2697       7    2688    2616    2619    2694       7
    2685    2607    2763    2838       2    2685    2607    2763    2760       2
    2682    2604    2607    2685       3    2682    2604    2607    2763       4
    2682    2604   -2607    2763       3    2682    2604   -2607    2763       5
    2679    2601    2604    2682      10    2676    2601    2604    2682      10
    2670    2595    2598    2673       3    2670    2595    2601    2679      10
    2670    2595    2601    2676      10    2664    2592    2595    2670       7
    2664    2613    2616    2688      11    2664    2613    2616    2691      11
    2661    2658    2652    2733       7    2661    2658    2631    2712      12
    2661    2658   -2631    2712      13    2658    2652    2655    2736      12
    2658    2652   -2655    2736      14    2658    2631    2634    2715       7
    2655    2652    2658    2739      12    2655    2652   -2658    2739      13
    2652    2658    2661    2742      12    2652    2658   -2661    2742      14
    2652    2658    2631    2712       7    2652    2649    2640    2721      17
    2649    2652    2655    2736       6    2649    2652    2658    2739      12
    2649    2652   -2658    2739      13    2649    2640    2634    2715      12
    2649    2640   -2634    2715      13    2649    2640    2643    2724      12
    2649    2640   -2643    2724      13    2649    2640    2643    2727      12
    2649    2640   -2643    2727      13    2646    2643    2640    2721      12
    2646    2643   -2640    2721      13    2643    2640    2634    2715       7
    2640    2649    2652    2733      17    2640    2634    2631    2712       7
    2640    2634    2637    2718      12    2640    2634   -2637    2718      14
    2640    2643    2646    2730      12    2640    2643   -2646    2730      14
    2637    2634    2631    2712      12    2637    2634   -2631    2712      13
    2637    2634    2640    2721      12    2637    2634   -2640    2721      13
    2634    2631    2658    2739       7    2634    2640    2643    2724       7
    2634    2640    2643    2727       7    2631    2658    2661    2742      12
    2631    2658   -2661    2742      14    2631    2658    2652    2733       7
    2631    2628    2625    2706      17    2631    2628    2625    2709      17
    2631    2634    2640    2721       7    2631    2634    2637    2718      12
    2631    2634   -2637    2718      14    2628    2625    2622    2703      12
    2628    2625   -2622    2703      13    2628    2625    2622    2700      12
    2628    2625   -2622    2700      13    2628    2631    2658    2739      12
    2628    2631   -2658    2739      13    2628    2631    2634    2715      12
    2628    2631   -2634    2715      13    2625    2628    2631    2712      17
    2625    2622    2619    2697      23    2625    2622    2619    2694      23
    2622    2619    2616    2688       7    2622    2619    2616    2691       7
    2619    2622    2625    2706       7    2619    2622    2625    2709       7
    2616    2619    2622    2703      23    2616    2619    2622    2700      23
    2613    2616    2619    2697       7    2613    2616    2619    2694       7
    2610    2592    2595    2670      10    2610    2592    2664    2667      30
    2610    2592   -2664    2667       3    2610    2592   -2664    2667      31
    2610    2592    2664    2613      11    2607    2604    2601    2679       7
    2607    2604    2601    2676       7    2607    2763    2760    2835       4
    2607    2763   -2760    2835       3    2607    2763   -2760    2835       5
    2604    2601    2595    2670      14    2604    2607    2763    2838       2
    2604    2586    2592    2610      14    2601    2595    2598    2673       3
    2601    2595    2592    2610      14    2601    2604    2607    2685       3
    2598    2595    2601    2679       7    2598    2595    2601    2676       7
    2598    2595    2592    2610       7    2595    2601    2604    2682      14
    2592    2595    2598    2673       3    2592    2595    2601    2679      14
    2592    2595    2601    2676      14    2592    2586    2604    2682      14
    2589    2586    2604    2682      10    2589    2586    2604    2601      14
    2589    2586    2604    2607       7    2589    2586    2592    2595      14
    2589    2586    2592    2664       7    2589    2586    2592    2610      10
    2589    2586    2583    2613      11    2586    2604    2601    2679      14
    2586    2604    2601    2676      14    2586    2604    2607    2685       3
    2586    2592    2595    2670      14    2583    2586    2604    2682       7
    2583    2586    2592    2610       7    2583    2613    2616    2688      11
    2583    2613    2616    2691      11    2580    2583    2586    2589      30
    2580    2583   -2586    2589       3    2580    2583   -2586    2589      31
    2904    2823    2826    2907       6    2898    2817    2820    2901       6
    2898    2817    2823    2904       7    2892    2808    2811    2895       8
    2889    2808    2811    2895       8    2886    2805    2808    2889       7
    2886    2805    2808    2892       7    2880    2799    2805    2886       7
    2880    2799    2802    2883       6    2877    2796    2823    2904       7
    2877    2796    2799    2880       7    2868    2787    2790    2871       7
    2868    2787    2790    2874       7    2865    2787    2790    2871       7
    2865    2787    2790    2874       7    2862    2784    2787    2868       9
    2862    2784    2787    2865       9    2859    2784    2787    2868       9
    2859    2784    2787    2865       9    2856    2781    2784    2862       7
    2856    2781    2784    2859       7    2853    2781    2784    2862       7
    2853    2781    2784    2859       7    2850    2772    2928    3003       2
    2850    2772    2928    2925       2    2847    2769    2772    2850       3
    2847    2769    2772    2928       4    2847    2769   -2772    2928       3
    2847    2769   -2772    2928       5    2844    2766    2769    2847      10
    2841    2766    2769    2847      10    2835    2760    2763    2838       3
    2835    2760    2766    2844      10    2835    2760    2766    2841      10
    2829    2757    2760    2835       7    2829    2778    2781    2853      11
    2829    2778    2781    2856      11    2826    2823    2817    2898       7
    2826    2823    2796    2877      12    2826    2823   -2796    2877      13
    2823    2817    2820    2901      12    2823    2817   -2820    2901      14
    2823    2796    2799    2880       7    2820    2817    2823    2904      12
    2820    2817   -2823    2904      13    2817    2823    2826    2907      12
    2817    2823   -2826    2907      14    2817    2823    2796    2877       7
    2817    2814    2805    2886      17    2814    2817    2820    2901       6
    2814    2817    2823    2904      12    2814    2817   -2823    2904      13
    2814    2805    2799    2880      12    2814    2805   -2799    2880      13
    2814    2805    2808    2889      12    2814    2805   -2808    2889      13
    2814    2805    2808    2892      12    2814    2805   -2808    2892      13
    2811    2808    2805    2886      12    2811    2808   -2805    2886      13
    2808    2805    2799    2880       7    2805    2814    2817    2898      17
    2805    2799    2796    2877       7    2805    2799    2802    2883      12
    2805    2799   -2802    2883      14    2805    2808    2811    2895      12
    2805    2808   -2811    2895      14    2802    2799    2796    2877      12
    2802    2799   -2796    2877      13    2802    2799    2805    2886      12
    2802    2799   -2805    2886      13    2799    2796    2823    2904       7
    2799    2805    2808    2889       7    2799    2805    2808    2892       7
    2796    2823    2826    2907      12    2796    2823   -2826    2907      14
    2796    2823    2817    2898       7    2796    2793    2790    2871      17
    2796    2793    2790    2874      17    2796    2799    2805    2886       7
    2796    2799    2802    2883      12    2796    2799   -2802    2883      14
    2793    2790    2787    2868      12    2793    2790   -2787    2868      13
    2793    2790    2787    2865      12    2793    2790   -2787    2865      13
    2793    2796    2823    2904      12    2793    2796   -2823    2904      13
    2793    2796    2799    2880      12    2793    2796   -2799    2880      13
    2790    2793    2796    2877      17    2790    2787    2784    2862      23
    2790    2787    2784    2859      23    2787    2784    2781    2853       7
    2787    2784    2781    2856       7    2784    2787    2790    2871       7
    2784    2787    2790    2874       7    2781    2784    2787    2868      23
    2781    2784    2787    2865      23    2778    2781    2784    2862       7
    2778    2781    2784    2859       7    2775    2757    2760    2835      10
    2775    2757    2829    2832      30    2775    2757   -2829    2832       3
    2775    2757   -2829    2832      31    2775    2757    2829    2778      11
    2772    2769    2766    2844       7    2772    2769    2766    2841       7
    2772    2928    2925    3000       4    2772    2928   -2925    3000       3
    2772    2928   -2925    3000       5    2769    2766    2760    2835      14
    2769    2772    2928    3003       2    2769    2751    2757    2775      14
    2766    2760    2763    2838       3    2766    2760    2757    2775      14
    2766    2769    2772    2850       3    2763    2760    2766    2844       7
    2763    2760    2766    2841       7    2763    2760    2757    2775       7
    2760    2766    2769    2847      14    2757    2760    2763    2838       3
    2757    2760    2766    2844      14    2757    2760    2766    2841      14
    2757    2751    2769    2847      14    2754    2751    2769    2847      10
    2754    2751    2769    2766      14    2754    2751    2769    2772       7
    2754    2751    2757    2760      14    2754    2751    2757    2829       7
    2754    2751    2757    2775      10    2754    2751    2748    2778      11
    2751    2769    2766    2844      14    2751    2769    2766    2841      14
    2751    2769    2772    2850       3    2751    2757    2760    2835      14
    2748    2751    2769    2847       7    2748    2751    2757    2775       7
    2748    2778    2781    2853      11    2748    2778    2781    2856      11
    2745    2748    2751    2754      30    2745    2748   -2751    2754       3
    2745    2748   -2751    2754      31    3069    2988    2991    3072       6
    3063    2982    2985    3066       6    3063    2982    2988    3069       7
    3057    2973    2976    3060       8    3054    2973    2976    3060       8
    3051    2970    2973    3054       7    3051    2970    2973    3057       7
    3045    2964    2970    3051       7    3045    2964    2967    3048       6
    3042    2961    2988    3069       7    3042    2961    2964    3045       7
    3033    2952    2955    3036       7    3033    2952    2955    3039       7
    3030    2952    2955    3036       7    3030    2952    2955    3039       7
    3027    2949    2952    3033       9    3027    2949    2952    3030       9
    3024    2949    2952    3033       9    3024    2949    2952    3030       9
    3021    2946    2949    3027       7    3021    2946    2949    3024       7
    3018    2946    2949    3027       7    3018    2946    2949    3024       7
    3015    2937    3093    3168       2    3015    2937    3093    3090       2
    3012    2934    2937    3015       3    3012    2934    2937    3093       4
    3012    2934   -2937    3093       3    3012    2934   -2937    3093       5
    3009    2931    2934    3012      10    3006    2931    2934    3012      10
    3000    2925    2928    3003       3    3000    2925    2931    3009      10
    3000    2925    2931    3006      10    2994    2922    2925    3000       7
    2994    2943    2946    3018      11    2994    2943    2946    3021      11
    2991    2988    2982    3063       7    2991    2988    2961    3042      12
    2991    2988   -2961    3042      13    2988    2982    2985    3066      12
    2988    2982   -2985    3066      14    2988    2961    2964    3045       7
    2985    2982    2988    3069      12    2985    2982   -2988    3069      13
    2982    2988    2991    3072      12    2982    2988   -2991    3072      14
    2982    2988    2961    3042       7    2982    2979    2970    3051      17
    2979    2982    2985    3066       6    2979    2982    2988    3069      12
    2979    2982   -2988    3069      13    2979    2970    2964    3045      12
    2979    2970   -2964    3045      13    2979    2970    2973    3054      12
    2979    2970   -2973    3054      13    2979    2970    2973    3057      12
    2979    2970   -2973    3057      13    2976    2973    2970    3051      12
    2976    2973   -2970    3051      13    2973    2970    2964    3045       7
    2970    2979    2982    3063      17    2970    2964    2961    3042       7
    2970    2964    2967    3048      12    2970    2964   -2967    3048      14
    2970    2973    2976    3060      12    2970    2973   -2976    3060      14
    2967    2964    2961    3042      12    2967    2964   -2961    3042      13
    2967    2964    2970    3051      12    2967    2964   -2970    3051      13
    2964    2961    2988    3069       7    2964    2970    2973    3054       7
    2964    2970    2973    3057       7    2961    2988    2991    3072      12
    2961    2988   -2991    3072      14    2961    2988    2982    3063       7
    2961    2958    2955    3036      17    2961    2958    2955    3039      17
    2961    2964    2970    3051       7    2961    2964    2967    3048      12
    2961    2964   -2967    3048      14    2958    2955    2952    3033      12
    2958    2955   -2952    3033      13    2958    2955    2952    3030      12
    2958    2955   -2952    3030      13    2958    2961    2988    3069      12
    2958    2961   -2988    3069      13    2958    2961    2964    3045      12
    2958    2961   -2964    3045      13    2955    2958    2961    3042      17
    2955    2952    2949    3027      23    2955    2952    2949    3024      23
    2952    2949    2946    3018       7    2952    2949    2946    3021       7
    2949    2952    2955    3036       7    2949    2952    2955    3039       7
    2946    2949    2952    3033      23    2946    2949    2952    3030      23
    2943    2946    2949    3027       7    2943    2946    2949    3024       7
    2940    2922    2925    3000      10    2940    2922    2994    2997      30
    2940    2922   -2994    2997       3    2940    2922   -2994    2997      31
    2940    2922    2994    2943      11    2937    2934    2931    3009       7
    2937    2934    2931    3006       7    2937    3093    3090    3165       4
    2937    3093   -3090    3165       3    2937    3093   -3090    3165       5
    2934    2931    2925    3000      14    2934    2937    3093    3168       2
    2934    2916    2922    2940      14    2931    2925    2928    3003       3
    2931    2925    2922    2940      14    2931    2934    2937    3015       3
    2928    2925    2931    3009       7    2928    2925    2931    3006       7
    2928    2925    2922    2940       7    2925    2931    2934    3012      14
    2922    2925    2928    3003       3    2922    2925    2931    3009      14
    2922    2925    2931    3006      14    2922    2916    2934    3012      14
    2919    2916    2934    3012      10    2919    2916    2934    2931      14
    2919    2916    2934    2937       7    2919    2916    2922    2925      14
    2919    2916    2922    2994       7    2919    2916    2922    2940      10
    2919    2916    2913    2943      11    2916    2934    2931    3009      14
    2916    2934    2931    3006      14    2916    2934    2937    3015       3
    2916    2922    2925    3000      14    2913    2916    2934    3012       7
    2913    2916    2922    2940       7    2913    2943    2946    3018      11
    2913    2943    2946    3021      11    2910    2913    2916    2919      30
    2910    2913   -2916    2919       3    2910    2913   -2916    2919      31
    3234    3153    3156    3237       6    3228    3147    3150    3231       6
    3228    3147    3153    3234       7    3222    3138    3141    3225       8
    3219    3138    3141    3225       8    3216    3135    3138    3219       7
    3216    3135    3138    3222       7    3210    3129    3135    3216       7
    3210    3129    3132    3213       6    3207    3126    3153    3234       7
    3207    3126    3129    3210       7    3198    3117    3120    3201       7
    3198    3117    3120    3204       7    3195    3117    3120    3201       7
    3195    3117    3120    3204       7    3192    3114    3117    3198       9
    3192    3114    3117    3195       9    3189    3114    3117    3198       9
    3189    3114    3117    3195       9    3186    3111    3114    3192       7
    3186    3111    3114    3189       7    3183    3111    3114    3192       7
    3183    3111    3114    3189       7    3180    3102    3258    3333       2
    3180    3102    3258    3255       2    3177    3099    3102    3180       3
    3177    3099    3102    3258       4    3177    3099   -3102    3258       3
    3177    3099   -3102    3258       5    3174    3096    3099    3177      10
    3171    3096    3099    3177      10    3165    3090    3093    3168       3
    3165    3090    3096    3174      10    3165    3090    3096    3171      10
    3159    3087    3090    3165       7    3159    3108    3111    3183      11
    3159    3108    3111    3186      11    3156    3153    3147    3228       7
    3156    3153    3126    3207      12    3156    3153   -3126    3207      13
    3153    3147    3150    3231      12    3153    3147   -3150    3231      14
    3153    3126    3129    3210       7    3150    3147    3153    3234      12
    3150    3147   -3153    3234      13    3147    3153    3156    3237      12
    3147    3153   -3156    3237      14    3147    3153    3126    3207       7
    3147    3144    3135    3216      17    3144    3147    3150    3231       6
    3144    3147    3153    3234      12    3144    3147   -3153    3234      13
    3144    3135    3129    3210      12    3144    3135   -3129    3210      13
    3144    3135    3138    3219      12    3144    3135   -3138    3219      13
    3144    3135    3138    3222      12    3144    3135   -3138    3222      13
    3141    3138    3135    3216      12    3141    3138   -3135    3216      13
    3138    3135    3129    3210       7    3135    3144    3147    3228      17
    3135    3129    3126    3207       7    3135    3129    3132    3213      12
    3135    3129   -3132    3213      14    3135    3138    3141    3225      12
    3135    3138   -3141    3225      14    3132    3129    3126    3207      12
    3132    3129   -3126    3207      13    3132    3129    3135    3216      12
    3132    3129   -3135    3216      13    3129    3126    3153    3234       7
    3129    3135    3138    3219       7    3129    3135    3138    3222       7
    3126    3153    3156    3237      12    3126    3153   -3156    3237      14
    3126    3153    3147    3228       7    3126    3123    3120    3201      17
    3126    3123    3120    3204      17    3126    3129    3135    3216       7
    3126    3129    3132    3213      12    3126    3129   -3132    3213      14
    3123    3120    3117    3198      12    3123    3120   -3117    3198      13
    3123    3120    3117    3195      12    3123    3120   -3117    3195      13
    3123    3126    3153    3234      12    3123    3126   -3153    3234      13
    3123    3126    3129    3210      12    3123    3126   -3129    3210      13
    3120    3123    3126    3207      17    3120    3117    3114    3192      23
    3120    3117    3114    3189      23    3117    3114    3111    3183       7
    3117    3114    3111    3186       7    3114    3117    3120    3201       7
    3114    3117    3120    3204       7    3111    3114    3117    3198      23
    3111    3114    3117    3195      23    3108    3111    3114    3192       7
    3108    3111    3114    3189       7    3105    3087    3090    3165      10
    3105    3087    3159    3162      30    3105    3087   -3159    3162       3
    3105    3087   -3159    3162      31    3105    3087    3159    3108      11
    3102    3099    3096    3174       7    3102    3099    3096    3171       7
    3102    3258    3255    3330       4    3102    3258   -3255    3330       3
    3102    3258   -3255    3330       5    3099    3096    3090    3165      14
    3099    3102    3258    3333       2    3099    3081    3087    3105      14
    3096    3090    3093    3168       3    3096    3090    3087    3105      14
    3096    3099    3102    3180       3    3093    3090    3096    3174       7
    3093    3090    3096    3171       7    3093    3090    3087    3105       7
    3090    3096    3099    3177      14    3087    3090    3093    3168       3
    3087    3090    3096    3174      14    3087    3090    3096    3171      14
    3087    3081    3099    3177      14    3084    3081    3099    3177      10
    3084    3081    3099    3096      14    3084    3081    3099    3102       7
    3084    3081    3087    3090      14    3084    3081    3087    3159       7
    3084    3081    3087    3105      10    3084    3081    3078    3108      11
    3081    3099    3096    3174      14    3081    3099    3096    3171      14
    3081    3099    3102    3180       3    3081    3087    3090    3165      14
    3078    3081    3099    3177       7    3078    3081    3087    3105       7
    3078    3108    3111    3183      11    3078    3108    3111    3186      11
    3075    3078    3081    3084      30    3075    3078   -3081    3084       3
    3075    3078   -3081    3084      31    3399    3318    3321    3402       6
    3393    3312    3315    3396       6    3393    3312    3318    3399       7
    3387    3303    3306    3390       8    3384    3303    3306    3390       8
    3381    3300    3303    3384       7    3381    3300    3303    3387       7
    3375    3294    3300    3381       7    3375    3294    3297    3378       6
    3372    3291    3318    3399       7    3372    3291    3294    3375       7
    3363    3282    3285    3366       7    3363    3282    3285    3369       7
    3360    3282    3285    3366       7    3360    3282    3285    3369       7
    3357    3279    3282    3363       9    3357    3279    3282    3360       9
    3354    3279    3282    3363       9    3354    3279    3282    3360       9
    3351    3276    3279    3357       7    3351    3276    3279    3354       7
    3348    3276    3279    3357       7    3348    3276    3279    3354       7
    3345    3267    3405    3408       2    3345    3267    3405    3411       2
    3342    3264    3267    3345       3    3342    3264    3267    3405       4
    3342    3264   -3267    3405       3    3342    3264   -3267    3405       5
    3339    3261    3264    3342      10    3336    3261    3264    3342      10
    3330    3255    3258    3333       3    3330    3255    3261    3339      10
    3330    3255    3261    3336      10    3324    3252    3255    3330       7
    3324    3273    3276    3348      11    3324    3273    3276    3351      11
    3321    3318    3312    3393       7    3321    3318    3291    3372      12
    3321    3318   -3291    3372      13    3318    3312    3315    3396      12
    3318    3312   -3315    3396      14    3318    3291    3294    3375       7
    3315    3312    3318    3399      12    3315    3312   -3318    3399      13
    3312    3318    3321    3402      12    3312    3318   -3321    3402      14
    3312    3318    3291    3372       7    3312    3309    3300    3381      17
    3309    3312    3315    3396       6    3309    3312    3318    3399      12
    3309    3312   -3318    3399      13    3309    3300    3294    3375      12
    3309    3300   -3294    3375      13    3309    3300    3303    3384      12
    3309    3300   -3303    3384      13    3309    3300    3303    3387      12
    3309    3300   -3303    3387      13    3306    3303    3300    3381      12
    3306    3303   -3300    3381      13    3303    3300    3294    3375       7
    3300    3309    3312    3393      17    3300    3294    3291    3372       7
    3300    3294    3297    3378      12    3300    3294   -3297    3378      14
    3300    3303    3306    3390      12    3300    3303   -3306    3390      14
    3297    3294    3291    3372      12    3297    3294   -3291    3372      13
    3297    3294    3300    3381      12    3297    3294   -3300    3381      13
    3294    3291    3318    3399       7    3294    3300    3303    3384       7
    3294    3300    3303    3387       7    3291    3318    3321    3402      12
    3291    3318   -3321    3402      14    3291    3318    3312    3393       7
    3291    3288    3285    3366      17    3291    3288    3285    3369      17
    3291    3294    3300    3381       7    3291    3294    3297    3378      12
    3291    3294   -3297    3378      14    3288    3285    3282    3363      12
    3288    3285   -3282    3363      13    3288    3285    3282    3360      12
    3288    3285   -3282    3360      13    3288    3291    3318    3399      12
    3288    3291   -3318    3399      13    3288    3291    3294    3375      12
    3288    3291   -3294    3375      13    3285    3288    3291    3372      17
    3285    3282    3279    3357      23    3285    3282    3279    3354      23
    3282    3279    3276    3348       7    3282    3279    3276    3351       7
    3279    3282    3285    3366       7    3279    3282    3285    3369       7
    3276    3279    3282    3363      23    3276    3279    3282    3360      23
    3273    3276    3279    3357       7    3273    3276    3279    3354       7
    3270    3252    3255    3330      10    3270    3252    3324    3327      30
    3270    3252   -3324    3327       3    3270    3252   -3324    3327      31
    3270    3252    3324    3273      11    3267    3264    3261    3339       7
    3267    3264    3261    3336       7    3264    3261    3255    3330      14
    3264    3267    3405    3408       2    3264    3267    3405    3411       2
    3264    3246    3252    3270      14    3261    3255    3258    3333       3
    3261    3255    3252    3270      14    3261    3264    3267    3345       3
    3258    3255    3261    3339       7    3258    3255    3261    3336       7
    3258    3255    3252    3270       7    3255    3261    3264    3342      14
    3252    3255    3258    3333       3    3252    3255    3261    3339      14
    3252    3255    3261    3336      14    3252    3246    3264    3342      14
    3249    3246    3264    3342      10    3249    3246    3264    3261      14
    3249    3246    3264    3267       7    3249    3246    3252    3255      14
    3249    3246    3252    3324       7    3249    3246    3252    3270      10
    3249    3246    3243    3273      11    3246    3264    3261    3339      14
    3246    3264    3261    3336      14    3246    3264    3267    3345       3
    3246    3252    3255    3330      14    3243    3246    3264    3342       7
    3243    3246    3252    3270       7    3243    3273    3276    3348      11
    3243    3273    3276    3351      11    3240    3243    3246    3249      30
    3240    3243   -3246    3249       3    3240    3243   -3246    3249      31
       0      36     -39     -75      35      30      36     -33     -72      35
      27      33     -30     -69      35      21      27     -24     -66      35
      18      24     -21     -63      35      15      21     -18     -60      35
       9      15     -12     -57      35       6      12      -9     -54      35
       0       6      -3     -51      35      48       0     -39      -3      35
     105      81     -78     -84      35     270     111    -114    -192      35
      78     102    -105    -180      35     435     276    -279    -357      35
     114     267    -270    -345      35     600     441    -444    -522      35
     279     432    -435    -510      35     765     606    -609    -687      35
     444     597    -600    -675      35     930     771    -774    -852      35
     609     762    -765    -840      35    1095     936    -939   -1017      35
     774     927    -930   -1005      35    1260    1101   -1104   -1182      35
     939    1092   -1095   -1170      35    1425    1266   -1269   -1347      35
    1104    1257   -1260   -1335      35    1590    1431   -1434   -1512      35
    1269    1422   -1425   -1500      35    1737    1596   -1599   -1677      35
    1434    1587   -1590   -1665      35    1599    1740   -1737   -1743      35
    1773    1749   -1746   -1752      35    1938    1779   -1782   -1860      35
    1746    1770   -1773   -1848      35    2103    1944   -1947   -2025      35
    1782    1935   -1938   -2013      35    2268    2109   -2112   -2190      35
    1947    2100   -2103   -2178      35    2433    2274   -2277   -2355      35
    2112    2265   -2268   -2343      35    2598    2439   -2442   -2520      35
    2277    2430   -2433   -2508      35    2763    2604   -2607   -2685      35
    2442    2595   -2598   -2673      35    2928    2769   -2772   -2850      35
    2607    2760   -2763   -2838      35    3093    2934   -2937   -3015      35
    2772    2925   -2928   -3003      35    3258    3099   -3102   -3180      35
    2937    3090   -3093   -3168      35    3405    3264   -3267   -3345      35
    3102    3255   -3258   -3333      35    3267    3408   -3405   -3411      35
%FLAG DIHEDRALS_WITHOUT_HYDROGEN                                                
%FORMAT(10I8)                                                                   
      39      36      42      45       1      33      30      27      45       1
      33      36     -42      45       1      30      33      36      42       1
      30      33      36      39       1      30      27     -45      42       1
      27      30      33      36       1      27      45     -42      36       1
      24      27      30      33       1      24      27      45      42       1
      21      24      27      30       1      21      24      27      45       1
      21      18     -15      45       1      18      15      45      27       1
      18      15      45      42       1      18      21     -24      27       1
      15      45      27      30       1      15      45      27      24       1
      15      45      42      36       1      15      18     -21      24       1
      12      15      45      27       1      12      15      45      42       1
      12      15      18      21       1      12       9      -6      42       1
       9      12      15      45       1       9      12      15      18       1
       9       6     -42      45       1       9       6      42      36       1
       6       9      12      15       1       6      42      45      27       1
       6      42     -45      15       1       6      42      36      33       1
       6      42      36      39       1      39       0      -3       6       1
       3       6       9      12       1       3       6      42      45       1
       3       6      42      36       1       3       0     -39      36       1
       0      39      36      33       1       0      39      36      42       1
       0       3       6       9       1       0       3      -6      42       1
      78     105     102     108       3      78     105     102      99       3
     162     159     165     168      15     162     159    -165     168      16
     156     159     165     168      15     156     159    -165     168      16
     153     150     147     156      15     153     150    -147     156      16
     150     147     156     159      18     150     147    -156     159      19
     147     156     159     162      17     147     156     159     165      18
     147     156    -159     165      19     147     141    -138     165      20
     147     141    -138     165      21     147     141    -138     165      22
     144     141     138     165       7     144     141     147     156      15
     144     141    -147     156      16     144     141     147     150       7
     141     138     165     168       7     141     138     165     159      20
     141     138    -165     159      21     141     138    -165     159      22
     141     147    -156     159      18     141     147    -156     159      19
     141     147     150     153       7     138     165     159     162       7
     138     165     159     156       7     138     141    -147     156       7
     138     141     147     150      20     138     141    -147     150      21
     138     141    -147     150      22     135     138     165     168      15
     135     138    -165     168      16     135     138     165     159       7
     135     138     141     147       7     135     138     141     144      15
     135     138    -141     144      16     132     135     138     165      18
     132     135    -138     165      19     132     135     138     141      18
     132     135    -138     141      19     129     132     135     138      18
     129     132    -135     138      19     126     129     132     135       7
     126     123     120     171      24     126     123    -120     171      25
     126     123    -120     171      26     123     126     129     132      27
     123     120     171     174      28     120     123     126     129      29
     114     270     267     273       3     114     270     267     264       3
     111     114     270     267       2     111      93      99     171       7
     111      93      90     120      32     111      93     -90     120      33
     108     102      99     171       7     108     111     114     270       3
     105     102     108     111       7     105     102      99     171       7
     102     108     111     114       7     102      99     171     174      11
     102      99     171     120      32     102      99    -171     120      33
     102      99     -93     111      20     102      99     -93     111      21
     102      99     -93     111      22      99     102    -108     111      20
      99     102    -108     111      21      99     102    -108     111      22
      99     171     120     123      34      99     171    -120     123       3
      99      93    -111     108      20      99      93    -111     108      21
      99      93    -111     108      22      99      93     111     114       7
      99      93     -90     120      32      99      93     -90     120      33
      93     111    -108     102      20      93     111    -108     102      21
      93     111    -108     102      22      93     111     114     270       3
      93      99     102     105       7      93      99    -102     108      20
      93      99    -102     108      21      93      99    -102     108      22
      93      99     171     174      11      93      99    -171     120      32
      93      99    -171     120      33      93      90    -120     171      28
      93      90     120     123      34      93      90    -120     123       3
      90      93     111     108       7      90      93     111     114       7
      90      93      99     102       7      90      93     -99     171       7
      90     120    -171      99      28      90     120     171     174      28
      90     120     123     126      24      90     120    -123     126      25
      90     120    -123     126      26      87      90      93     111      11
      87      90      93      99      11      87      90     120     171      28
      87      90     120     123      28     327     324     330     333      15
     327     324    -330     333      16     321     324     330     333      15
     321     324    -330     333      16     318     315     312     321      15
     318     315    -312     321      16     315     312     321     324      18
     315     312    -321     324      19     312     321     324     327      17
     312     321     324     330      18     312     321    -324     330      19
     312     306    -303     330      20     312     306    -303     330      21
     312     306    -303     330      22     309     306     303     330       7
     309     306     312     321      15     309     306    -312     321      16
     309     306     312     315       7     306     303     330     333       7
     306     303     330     324      20     306     303    -330     324      21
     306     303    -330     324      22     306     312    -321     324      18
     306     312    -321     324      19     306     312     315     318       7
     303     330     324     327       7     303     330     324     321       7
     303     306    -312     321       7     303     306     312     315      20
     303     306    -312     315      21     303     306    -312     315      22
     300     303     330     333      15     300     303    -330     333      16
     300     303     330     324       7     300     303     306     312       7
     300     303     306     309      15     300     303    -306     309      16
     297     300     303     330      18     297     300    -303     330      19
     297     300     303     306      18     297     300    -303     306      19
     294     297     300     303      18     294     297    -300     303      19
     291     294     297     300       7     291     288     285     336      24
     291     288    -285     336      25     291     288    -285     336      26
     288     291     294     297      27     288     285     336     339      28
     285     288     291     294      29     279     435     432     438       3
     279     435     432     429       3     276     279     435     432       2
     276     258     264     336       7     276     258     255     285      32
     276     258    -255     285      33     273     267     264     336       7
     273     276     279     435       3     270     267     273     276       7
     270     267     264     336       7     267     273     276     279       7
     267     264     336     339      11     267     264     336     285      32
     267     264    -336     285      33     267     264    -258     276      20
     267     264    -258     276      21     267     264    -258     276      22
     264     267    -273     276      20     264     267    -273     276      21
     264     267    -273     276      22     264     336     285     288      34
     264     336    -285     288       3     264     258    -276     273      20
     264     258    -276     273      21     264     258    -276     273      22
     264     258     276     279       7     264     258    -255     285      32
     264     258    -255     285      33     258     276    -273     267      20
     258     276    -273     267      21     258     276    -273     267      22
     258     276     279     435       3     258     264     267     270       7
     258     264    -267     273      20     258     264    -267     273      21
     258     264    -267     273      22     258     264     336     339      11
     258     264    -336     285      32     258     264    -336     285      33
     258     255    -285     336      28     258     255     285     288      34
     258     255    -285     288       3     255     258     276     273       7
     255     258     276     279       7     255     258     264     267       7
     255     258    -264     336       7     255     285    -336     264      28
     255     285     336     339      28     255     285     288     291      24
     255     285    -288     291      25     255     285    -288     291      26
     252     255     258     276      11     252     255     258     264      11
     252     255     285     336      28     252     255     285     288      28
     492     489     495     498      15     492     489    -495     498      16
     486     489     495     498      15     486     489    -495     498      16
     483     480     477     486      15     483     480    -477     486      16
     480     477     486     489      18     480     477    -486     489      19
     477     486     489     492      17     477     486     489     495      18
     477     486    -489     495      19     477     471    -468     495      20
     477     471    -468     495      21     477     471    -468     495      22
     474     471     468     495       7     474     471     477     486      15
     474     471    -477     486      16     474     471     477     480       7
     471     468     495     498       7     471     468     495     489      20
     471     468    -495     489      21     471     468    -495     489      22
     471     477    -486     489      18     471     477    -486     489      19
     471     477     480     483       7     468     495     489     492       7
     468     495     489     486       7     468     471    -477     486       7
     468     471     477     480      20     468     471    -477     480      21
     468     471    -477     480      22     465     468     495     498      15
     465     468    -495     498      16     465     468     495     489       7
     465     468     471     477       7     465     468     471     474      15
     465     468    -471     474      16     462     465     468     495      18
     462     465    -468     495      19     462     465     468     471      18
     462     465    -468     471      19     459     462     465     468      18
     459     462    -465     468      19     456     459     462     465       7
     456     453     450     501      24     456     453    -450     501      25
     456     453    -450     501      26     453     456     459     462      27
     453     450     501     504      28     450     453     456     459      29
     444     600     597     603       3     444     600     597     594       3
     441     444     600     597       2     441     423     429     501       7
     441     423     420     450      32     441     423    -420     450      33
     438     432     429     501       7     438     441     444     600       3
     435     432     438     441       7     435     432     429     501       7
     432     438     441     444       7     432     429     501     504      11
     432     429     501     450      32     432     429    -501     450      33
     432     429    -423     441      20     432     429    -423     441      21
     432     429    -423     441      22     429     432    -438     441      20
     429     432    -438     441      21     429     432    -438     441      22
     429     501     450     453      34     429     501    -450     453       3
     429     423    -441     438      20     429     423    -441     438      21
     429     423    -441     438      22     429     423     441     444       7
     429     423    -420     450      32     429     423    -420     450      33
     423     441    -438     432      20     423     441    -438     432      21
     423     441    -438     432      22     423     441     444     600       3
     423     429     432     435       7     423     429    -432     438      20
     423     429    -432     438      21     423     429    -432     438      22
     423     429     501     504      11     423     429    -501     450      32
     423     429    -501     450      33     423     420    -450     501      28
     423     420     450     453      34     423     420    -450     453       3
     420     423     441     438       7     420     423     441     444       7
     420     423     429     432       7     420     423    -429     501       7
     420     450    -501     429      28     420     450     501     504      28
     420     450     453     456      24     420     450    -453     456      25
     420     450    -453     456      26     417     420     423     441      11
     417     420     423     429      11     417     420     450     501      28
     417     420     450     453      28     657     654     660     663      15
     657     654    -660     663      16     651     654     660     663      15
     651     654    -660     663      16     648     645     642     651      15
     648     645    -642     651      16     645     642     651     654      18
     645     642    -651     654      19     642     651     654     657      17
     642     651     654     660      18     642     651    -654     660      19
     642     636    -633     660      20     642     636    -633     660      21
     642     636    -633     660      22     639     636     633     660       7
     639     636     642     651      15     639     636    -642     651      16
     639     636     642     645       7     636     633     660     663       7
     636     633     660     654      20     636     633    -660     654      21
     636     633    -660     654      22     636     642    -651     654      18
     636     642    -651     654      19     636     642     645     648       7
     633     660     654     657       7     633     660     654     651       7
     633     636    -642     651       7     633     636     642     645      20
     633     636    -642     645      21     633     636    -642     645      22
     630     633     660     663      15     630     633    -660     663      16
     630     633     660     654       7     630     633     636     642       7
     630     633     636     639      15     630     633    -636     639      16
     627     630     633     660      18     627     630    -633     660      19
     627     630     633     636      18     627     630    -633     636      19
     624     627     630     633      18     624     627    -630     633      19
     621     624     627     630       7     621     618     615     666      24
     621     618    -615     666      25     621     618    -615     666      26
     618     621     624     627      27     618     615     666     669      28
     615     618     621     624      29     609     765     762     768       3
     609     765     762     759       3     606     609     765     762       2
     606     588     594     666       7     606     588     585     615      32
     606     588    -585     615      33     603     597     594     666       7
     603     606     609     765       3     600     597     603     606       7
     600     597     594     666       7     597     603     606     609       7
     597     594     666     669      11     597     594     666     615      32
     597     594    -666     615      33     597     594    -588     606      20
     597     594    -588     606      21     597     594    -588     606      22
     594     597    -603     606      20     594     597    -603     606      21
     594     597    -603     606      22     594     666     615     618      34
     594     666    -615     618       3     594     588    -606     603      20
     594     588    -606     603      21     594     588    -606     603      22
     594     588     606     609       7     594     588    -585     615      32
     594     588    -585     615      33     588     606    -603     597      20
     588     606    -603     597      21     588     606    -603     597      22
     588     606     609     765       3     588     594     597     600       7
     588     594    -597     603      20     588     594    -597     603      21
     588     594    -597     603      22     588     594     666     669      11
     588     594    -666     615      32     588     594    -666     615      33
     588     585    -615     666      28     588     585     615     618      34
     588     585    -615     618       3     585     588     606     603       7
     585     588     606     609       7     585     588     594     597       7
     585     588    -594     666       7     585     615    -666     594      28
     585     615     666     669      28     585     615     618     621      24
     585     615    -618     621      25     585     615    -618     621      26
     582     585     588     606      11     582     585     588     594      11
     582     585     615     666      28     582     585     615     618      28
     822     819     825     828      15     822     819    -825     828      16
     816     819     825     828      15     816     819    -825     828      16
     813     810     807     816      15     813     810    -807     816      16
     810     807     816     819      18     810     807    -816     819      19
     807     816     819     822      17     807     816     819     825      18
     807     816    -819     825      19     807     801    -798     825      20
     807     801    -798     825      21     807     801    -798     825      22
     804     801     798     825       7     804     801     807     816      15
     804     801    -807     816      16     804     801     807     810       7
     801     798     825     828       7     801     798     825     819      20
     801     798    -825     819      21     801     798    -825     819      22
     801     807    -816     819      18     801     807    -816     819      19
     801     807     810     813       7     798     825     819     822       7
     798     825     819     816       7     798     801    -807     816       7
     798     801     807     810      20     798     801    -807     810      21
     798     801    -807     810      22     795     798     825     828      15
     795     798    -825     828      16     795     798     825     819       7
     795     798     801     807       7     795     798     801     804      15
     795     798    -801     804      16     792     795     798     825      18
     792     795    -798     825      19     792     795     798     801      18
     792     795    -798     801      19     789     792     795     798      18
     789     792    -795     798      19     786     789     792     795       7
     786     783     780     831      24     786     783    -780     831      25
     786     783    -780     831      26     783     786     789     792      27
     783     780     831     834      28     780     783     786     789      29
     774     930     927     933       3     774     930     927     924       3
     771     774     930     927       2     771     753     759     831       7
     771     753     750     780      32     771     753    -750     780      33
     768     762     759     831       7     768     771     774     930       3
     765     762     768     771       7     765     762     759     831       7
     762     768     771     774       7     762     759     831     834      11
     762     759     831     780      32     762     759    -831     780      33
     762     759    -753     771      20     762     759    -753     771      21
     762     759    -753     771      22     759     762    -768     771      20
     759     762    -768     771      21     759     762    -768     771      22
     759     831     780     783      34     759     831    -780     783       3
     759     753    -771     768      20     759     753    -771     768      21
     759     753    -771     768      22     759     753     771     774       7
     759     753    -750     780      32     759     753    -750     780      33
     753     771    -768     762      20     753     771    -768     762      21
     753     771    -768     762      22     753     771     774     930       3
     753     759     762     765       7     753     759    -762     768      20
     753     759    -762     768      21     753     759    -762     768      22
     753     759     831     834      11     753     759    -831     780      32
     753     759    -831     780      33     753     750    -780     831      28
     753     750     780     783      34     753     750    -780     783       3
     750     753     771     768       7     750     753     771     774       7
     750     753     759     762       7     750     753    -759     831       7
     750     780    -831     759      28     750     780     831     834      28
     750     780     783     786      24     750     780    -783     786      25
     750     780    -783     786      26     747     750     753     771      11
     747     750     753     759      11     747     750     780     831      28
     747     750     780     783      28     987     984     990     993      15
     987     984    -990     993      16     981     984     990     993      15
     981     984    -990     993      16     978     975     972     981      15
     978     975    -972     981      16     975     972     981     984      18
     975     972    -981     984      19     972     981     984     987      17
     972     981     984     990      18     972     981    -984     990      19
     972     966    -963     990      20     972     966    -963     990      21
     972     966    -963     990      22     969     966     963     990       7
     969     966     972     981      15     969     966    -972     981      16
     969     966     972     975       7     966     963     990     993       7
     966     963     990     984      20     966     963    -990     984      21
     966     963    -990     984      22     966     972    -981     984      18
     966     972    -981     984      19     966     972     975     978       7
     963     990     984     987       7     963     990     984     981       7
     963     966    -972     981       7     963     966     972     975      20
     963     966    -972     975      21     963     966    -972     975      22
     960     963     990     993      15     960     963    -990     993      16
     960     963     990     984       7     960     963     966     972       7
     960     963     966     969      15     960     963    -966     969      16
     957     960     963     990      18     957     960    -963     990      19
     957     960     963     966      18     957     960    -963     966      19
     954     957     960     963      18     954     957    -960     963      19
     951     954     957     960       7     951     948     945     996      24
     951     948    -945     996      25     951     948    -945     996      26
     948     951     954     957      27     948     945     996     999      28
     945     948     951     954      29     939    1095    1092    1098       3
     939    1095    1092    1089       3     936     939    1095    1092       2
     936     918     924     996       7     936     918     915     945      32
     936     918    -915     945      33     933     927     924     996       7
     933     936     939    1095       3     930     927     933     936       7
     930     927     924     996       7     927     933     936     939       7
     927     924     996     999      11     927     924     996     945      32
     927     924    -996     945      33     927     924    -918     936      20
     927     924    -918     936      21     927     924    -918     936      22
     924     927    -933     936      20     924     927    -933     936      21
     924     927    -933     936      22     924     996     945     948      34
     924     996    -945     948       3     924     918    -936     933      20
     924     918    -936     933      21     924     918    -936     933      22
     924     918     936     939       7     924     918    -915     945      32
     924     918    -915     945      33     918     936    -933     927      20
     918     936    -933     927      21     918     936    -933     927      22
     918     936     939    1095       3     918     924     927     930       7
     918     924    -927     933      20     918     924    -927     933      21
     918     924    -927     933      22     918     924     996     999      11
     918     924    -996     945      32     918     924    -996     945      33
     918     915    -945     996      28     918     915     945     948      34
     918     915    -945     948       3     915     918     936     933       7
     915     918     936     939       7     915     918     924     927       7
     915     918    -924     996       7     915     945    -996     924      28
     915     945     996     999      28     915     945     948     951      24
     915     945    -948     951      25     915     945    -948     951      26
     912     915     918     936      11     912     915     918     924      11
     912     915     945     996      28     912     915     945     948      28
    1152    1149    1155    1158      15    1152    1149   -1155    1158      16
    1146    1149    1155    1158      15    1146    1149   -1155    1158      16
    1143    1140    1137    1146      15    1143    1140   -1137    1146      16
    1140    1137    1146    1149      18    1140    1137   -1146    1149      19
    1137    1146    1149    1152      17    1137    1146    1149    1155      18
    1137    1146   -1149    1155      19    1137    1131   -1128    1155      20
    1137    1131   -1128    1155      21    1137    1131   -1128    1155      22
    1134    1131    1128    1155       7    1134    1131    1137    1146      15
    1134    1131   -1137    1146      16    1134    1131    1137    1140       7
    1131    1128    1155    1158       7    1131    1128    1155    1149      20
    1131    1128   -1155    1149      21    1131    1128   -1155    1149      22
    1131    1137   -1146    1149      18    1131    1137   -1146    1149      19
    1131    1137    1140    1143       7    1128    1155    1149    1152       7
    1128    1155    1149    1146       7    1128    1131   -1137    1146       7
    1128    1131    1137    1140      20    1128    1131   -1137    1140      21
    1128    1131   -1137    1140      22    1125    1128    1155    1158      15
    1125    1128   -1155    1158      16    1125    1128    1155    1149       7
    1125    1128    1131    1137       7    1125    1128    1131    1134      15
    1125    1128   -1131    1134      16    1122    1125    1128    1155      18
    1122    1125   -1128    1155      19    1122    1125    1128    1131      18
    1122    1125   -1128    1131      19    1119    1122    1125    1128      18
    1119    1122   -1125    1128      19    1116    1119    1122    1125       7
    1116    1113    1110    1161      24    1116    1113   -1110    1161      25
    1116    1113   -1110    1161      26    1113    1116    1119    1122      27
    1113    1110    1161    1164      28    1110    1113    1116    1119      29
    1104    1260    1257    1263       3    1104    1260    1257    1254       3
    1101    1104    1260    1257       2    1101    1083    1089    1161       7
    1101    1083    1080    1110      32    1101    1083   -1080    1110      33
    1098    1092    1089    1161       7    1098    1101    1104    1260       3
    1095    1092    1098    1101       7    1095    1092    1089    1161       7
    1092    1098    1101    1104       7    1092    1089    1161    1164      11
    1092    1089    1161    1110      32    1092    1089   -1161    1110      33
    1092    1089   -1083    1101      20    1092    1089   -1083    1101      21
    1092    1089   -1083    1101      22    1089    1092   -1098    1101      20
    1089    1092   -1098    1101      21    1089    1092   -1098    1101      22
    1089    1161    1110    1113      34    1089    1161   -1110    1113       3
    1089    1083   -1101    1098      20    1089    1083   -1101    1098      21
    1089    1083   -1101    1098      22    1089    1083    1101    1104       7
    1089    1083   -1080    1110      32    1089    1083   -1080    1110      33
    1083    1101   -1098    1092      20    1083    1101   -1098    1092      21
    1083    1101   -1098    1092      22    1083    1101    1104    1260       3
    1083    1089    1092    1095       7    1083    1089   -1092    1098      20
    1083    1089   -1092    1098      21    1083    1089   -1092    1098      22
    1083    1089    1161    1164      11    1083    1089   -1161    1110      32
    1083    1089   -1161    1110      33    1083    1080   -1110    1161      28
    1083    1080    1110    1113      34    1083    1080   -1110    1113       3
    1080    1083    1101    1098       7    1080    1083    1101    1104       7
    1080    1083    1089    1092       7    1080    1083   -1089    1161       7
    1080    1110   -1161    1089      28    1080    1110    1161    1164      28
    1080    1110    1113    1116      24    1080    1110   -1113    1116      25
    1080    1110   -1113    1116      26    1077    1080    1083    1101      11
    1077    1080    1083    1089      11    1077    1080    1110    1161      28
    1077    1080    1110    1113      28    1317    1314    1320    1323      15
    1317    1314   -1320    1323      16    1311    1314    1320    1323      15
    1311    1314   -1320    1323      16    1308    1305    1302    1311      15
    1308    1305   -1302    1311      16    1305    1302    1311    1314      18
    1305    1302   -1311    1314      19    1302    1311    1314    1317      17
    1302    1311    1314    1320      18    1302    1311   -1314    1320      19
    1302    1296   -1293    1320      20    1302    1296   -1293    1320      21
    1302    1296   -1293    1320      22    1299    1296    1293    1320       7
    1299    1296    1302    1311      15    1299    1296   -1302    1311      16
    1299    1296    1302    1305       7    1296    1293    1320    1323       7
    1296    1293    1320    1314      20    1296    1293   -1320    1314      21
    1296    1293   -1320    1314      22    1296    1302   -1311    1314      18
    1296    1302   -1311    1314      19    1296    1302    1305    1308       7
    1293    1320    1314    1317       7    1293    1320    1314    1311       7
    1293    1296   -1302    1311       7    1293    1296    1302    1305      20
    1293    1296   -1302    1305      21    1293    1296   -1302    1305      22
    1290    1293    1320    1323      15    1290    1293   -1320    1323      16
    1290    1293    1320    1314       7    1290    1293    1296    1302       7
    1290    1293    1296    1299      15    1290    1293   -1296    1299      16
    1287    1290    1293    1320      18    1287    1290   -1293    1320      19
    1287    1290    1293    1296      18    1287    1290   -1293    1296      19
    1284    1287    1290    1293      18    1284    1287   -1290    1293      19
    1281    1284    1287    1290       7    1281    1278    1275    1326      24
    1281    1278   -1275    1326      25    1281    1278   -1275    1326      26
    1278    1281    1284    1287      27    1278    1275    1326    1329      28
    1275    1278    1281    1284      29    1269    1425    1422    1428       3
    1269    1425    1422    1419       3    1266    1269    1425    1422       2
    1266    1248    1254    1326       7    1266    1248    1245    1275      32
    1266    1248   -1245    1275      33    1263    1257    1254    1326       7
    1263    1266    1269    1425       3    1260    1257    1263    1266       7
    1260    1257    1254    1326       7    1257    1263    1266    1269       7
    1257    1254    1326    1329      11    1257    1254    1326    1275      32
    1257    1254   -1326    1275      33    1257    1254   -1248    1266      20
    1257    1254   -1248    1266      21    1257    1254   -1248    1266      22
    1254    1257   -1263    1266      20    1254    1257   -1263    1266      21
    1254    1257   -1263    1266      22    1254    1326    1275    1278      34
    1254    1326   -1275    1278       3    1254    1248   -1266    1263      20
    1254    1248   -1266    1263      21    1254    1248   -1266    1263      22
    1254    1248    1266    1269       7    1254    1248   -1245    1275      32
    1254    1248   -1245    1275      33    1248    1266   -1263    1257      20
    1248    1266   -1263    1257      21    1248    1266   -1263    1257      22
    1248    1266    1269    1425       3    1248    1254    1257    1260       7
    1248    1254   -1257    1263      20    1248    1254   -1257    1263      21
    1248    1254   -1257    1263      22    1248    1254    1326    1329      11
    1248    1254   -1326    1275      32    1248    1254   -1326    1275      33
    1248    1245   -1275    1326      28    1248    1245    1275    1278      34
    1248    1245   -1275    1278       3    1245    1248    1266    1263       7
    1245    1248    1266    1269       7    1245    1248    1254    1257       7
    1245    1248   -1254    1326       7    1245    1275   -1326    1254      28
    1245    1275    1326    1329      28    1245    1275    1278    1281      24
    1245    1275   -1278    1281      25    1245    1275   -1278    1281      26
    1242    1245    1248    1266      11    1242    1245    1248    1254      11
    1242    1245    1275    1326      28    1242    1245    1275    1278      28
    1482    1479    1485    1488      15    1482    1479   -1485    1488      16
    1476    1479    1485    1488      15    1476    1479   -1485    1488      16
    1473    1470    1467    1476      15    1473    1470   -1467    1476      16
    1470    1467    1476    1479      18    1470    1467   -1476    1479      19
    1467    1476    1479    1482      17    1467    1476    1479    1485      18
    1467    1476   -1479    1485      19    1467    1461   -1458    1485      20
    1467    1461   -1458    1485      21    1467    1461   -1458    1485      22
    1464    1461    1458    1485       7    1464    1461    1467    1476      15
    1464    1461   -1467    1476      16    1464    1461    1467    1470       7
    1461    1458    1485    1488       7    1461    1458    1485    1479      20
    1461    1458   -1485    1479      21    1461    1458   -1485    1479      22
    1461    1467   -1476    1479      18    1461    1467   -1476    1479      19
    1461    1467    1470    1473       7    1458    1485    1479    1482       7
    1458    1485    1479    1476       7    1458    1461   -1467    1476       7
    1458    1461    1467    1470      20    1458    1461   -1467    1470      21
    1458    1461   -1467    1470      22    1455    1458    1485    1488      15
    1455    1458   -1485    1488      16    1455    1458    1485    1479       7
    1455    1458    1461    1467       7    1455    1458    1461    1464      15
    1455    1458   -1461    1464      16    1452    1455    1458    1485      18
    1452    1455   -1458    1485      19    1452    1455    1458    1461      18
    1452    1455   -1458    1461      19    1449    1452    1455    1458      18
    1449    1452   -1455    1458      19    1446    1449    1452    1455       7
    1446    1443    1440    1491      24    1446    1443   -1440    1491      25
    1446    1443   -1440    1491      26    1443    1446    1449    1452      27
    1443    1440    1491    1494      28    1440    1443    1446    1449      29
    1434    1590    1587    1593       3    1434    1590    1587    1584       3
    1431    1434    1590    1587       2    1431    1413    1419    1491       7
    1431    1413    1410    1440      32    1431    1413   -1410    1440      33
    1428    1422    1419    1491       7    1428    1431    1434    1590       3
    1425    1422    1428    1431       7    1425    1422    1419    1491       7
    1422    1428    1431    1434       7    1422    1419    1491    1494      11
    1422    1419    1491    1440      32    1422    1419   -1491    1440      33
    1422    1419   -1413    1431      20    1422    1419   -1413    1431      21
    1422    1419   -1413    1431      22    1419    1422   -1428    1431      20
    1419    1422   -1428    1431      21    1419    1422   -1428    1431      22
    1419    1491    1440    1443      34    1419    1491   -1440    1443       3
    1419    1413   -1431    1428      20    1419    1413   -1431    1428      21
    1419    1413   -1431    1428      22    1419    1413    1431    1434       7
    1419    1413   -1410    1440      32    1419    1413   -1410    1440      33
    1413    1431   -1428    1422      20    1413    1431   -1428    1422      21
    1413    1431   -1428    1422      22    1413    1431    1434    1590       3
    1413    1419    1422    1425       7    1413    1419   -1422    1428      20
    1413    1419   -1422    1428      21    1413    1419   -1422    1428      22
    1413    1419    1491    1494      11    1413    1419   -1491    1440      32
    1413    1419   -1491    1440      33    1413    1410   -1440    1491      28
    1413    1410    1440    1443      34    1413    1410   -1440    1443       3
    1410    1413    1431    1428       7    1410    1413    1431    1434       7
    1410    1413    1419    1422       7    1410    1413   -1419    1491       7
    1410    1440   -1491    1419      28    1410    1440    1491    1494      28
    1410    1440    1443    1446      24    1410    1440   -1443    1446      25
    1410    1440   -1443    1446      26    1407    1410    1413    1431      11
    1407    1410    1413    1419      11    1407    1410    1440    1491      28
    1407    1410    1440    1443      28    1647    1644    1650    1653      15
    1647    1644   -1650    1653      16    1641    1644    1650    1653      15
    1641    1644   -1650    1653      16    1638    1635    1632    1641      15
    1638    1635   -1632    1641      16    1635    1632    1641    1644      18
    1635    1632   -1641    1644      19    1632    1641    1644    1647      17
    1632    1641    1644    1650      18    1632    1641   -1644    1650      19
    1632    1626   -1623    1650      20    1632    1626   -1623    1650      21
    1632    1626   -1623    1650      22    1629    1626    1623    1650       7
    1629    1626    1632    1641      15    1629    1626   -1632    1641      16
    1629    1626    1632    1635       7    1626    1623    1650    1653       7
    1626    1623    1650    1644      20    1626    1623   -1650    1644      21
    1626    1623   -1650    1644      22    1626    1632   -1641    1644      18
    1626    1632   -1641    1644      19    1626    1632    1635    1638       7
    1623    1650    1644    1647       7    1623    1650    1644    1641       7
    1623    1626   -1632    1641       7    1623    1626    1632    1635      20
    1623    1626   -1632    1635      21    1623    1626   -1632    1635      22
    1620    1623    1650    1653      15    1620    1623   -1650    1653      16
    1620    1623    1650    1644       7    1620    1623    1626    1632       7
    1620    1623    1626    1629      15    1620    1623   -1626    1629      16
    1617    1620    1623    1650      18    1617    1620   -1623    1650      19
    1617    1620    1623    1626      18    1617    1620   -1623    1626      19
    1614    1617    1620    1623      18    1614    1617   -1620    1623      19
    1611    1614    1617    1620       7    1611    1608    1605    1656      24
    1611    1608   -1605    1656      25    1611    1608   -1605    1656      26
    1608    1611    1614    1617      27    1608    1605    1656    1659      28
    1605    1608    1611    1614      29    1596    1578    1584    1656       7
    1596    1578    1575    1605      32    1596    1578   -1575    1605      33
    1593    1587    1584    1656       7    1593    1596    1599    1737       3
    1590    1587    1593    1596       7    1590    1587    1584    1656       7
    1587    1593    1596    1599       7    1587    1584    1656    1659      11
    1587    1584    1656    1605      32    1587    1584   -1656    1605      33
    1587    1584   -1578    1596      20    1587    1584   -1578    1596      21
    1587    1584   -1578    1596      22    1584    1587   -1593    1596      20
    1584    1587   -1593    1596      21    1584    1587   -1593    1596      22
    1584    1656    1605    1608      34    1584    1656   -1605    1608       3
    1584    1578   -1596    1593      20    1584    1578   -1596    1593      21
    1584    1578   -1596    1593      22    1584    1578    1596    1599       7
    1584    1578   -1575    1605      32    1584    1578   -1575    1605      33
    1578    1596   -1593    1587      20    1578    1596   -1593    1587      21
    1578    1596   -1593    1587      22    1578    1596    1599    1737       3
    1578    1584    1587    1590       7    1578    1584   -1587    1593      20
    1578    1584   -1587    1593      21    1578    1584   -1587    1593      22
    1578    1584    1656    1659      11    1578    1584   -1656    1605      32
    1578    1584   -1656    1605      33    1578    1575   -1605    1656      28
    1578    1575    1605    1608      34    1578    1575   -1605    1608       3
    1575    1578    1596    1593       7    1575    1578    1596    1599       7
    1575    1578    1584    1587       7    1575    1578   -1584    1656       7
    1575    1605   -1656    1584      28    1575    1605    1656    1659      28
    1575    1605    1608    1611      24    1575    1605   -1608    1611      25
    1575    1605   -1608    1611      26    1572    1575    1578    1596      11
    1572    1575    1578    1584      11    1572    1575    1605    1656      28
    1572    1575    1605    1608      28    1746    1773    1770    1776       3
    1746    1773    1770    1767       3    1830    1827    1833    1836      15
    1830    1827   -1833    1836      16    1824    1827    1833    1836      15
    1824    1827   -1833    1836      16    1821    1818    1815    1824      15
    1821    1818   -1815    1824      16    1818    1815    1824    1827      18
    1818    1815   -1824    1827      19    1815    1824    1827    1830      17
    1815    1824    1827    1833      18    1815    1824   -1827    1833      19
    1815    1809   -1806    1833      20    1815    1809   -1806    1833      21
    1815    1809   -1806    1833      22    1812    1809    1806    1833       7
    1812    1809    1815    1824      15    1812    1809   -1815    1824      16
    1812    1809    1815    1818       7    1809    1806    1833    1836       7
    1809    1806    1833    1827      20    1809    1806   -1833    1827      21
    1809    1806   -1833    1827      22    1809    1815   -1824    1827      18
    1809    1815   -1824    1827      19    1809    1815    1818    1821       7
    1806    1833    1827    1830       7    1806    1833    1827    1824       7
    1806    1809   -1815    1824       7    1806    1809    1815    1818      20
    1806    1809   -1815    1818      21    1806    1809   -1815    1818      22
    1803    1806    1833    1836      15    1803    1806   -1833    1836      16
    1803    1806    1833    1827       7    1803    1806    1809    1815       7
    1803    1806    1809    1812      15    1803    1806   -1809    1812      16
    1800    1803    1806    1833      18    1800    1803   -1806    1833      19
    1800    1803    1806    1809      18    1800    1803   -1806    1809      19
    1797    1800    1803    1806      18    1797    1800   -1803    1806      19
    1794    1797    1800    1803       7    1794    1791    1788    1839      24
    1794    1791   -1788    1839      25    1794    1791   -1788    1839      26
    1791    1794    1797    1800      27    1791    1788    1839    1842      28
    1788    1791    1794    1797      29    1782    1938    1935    1941       3
    1782    1938    1935    1932       3    1779    1782    1938    1935       2
    1779    1761    1767    1839       7    1779    1761    1758    1788      32
    1779    1761   -1758    1788      33    1776    1770    1767    1839       7
    1776    1779    1782    1938       3    1773    1770    1776    1779       7
    1773    1770    1767    1839       7    1770    1776    1779    1782       7
    1770    1767    1839    1842      11    1770    1767    1839    1788      32
    1770    1767   -1839    1788      33    1770    1767   -1761    1779      20
    1770    1767   -1761    1779      21    1770    1767   -1761    1779      22
    1767    1770   -1776    1779      20    1767    1770   -1776    1779      21
    1767    1770   -1776    1779      22    1767    1839    1788    1791      34
    1767    1839   -1788    1791       3    1767    1761   -1779    1776      20
    1767    1761   -1779    1776      21    1767    1761   -1779    1776      22
    1767    1761    1779    1782       7    1767    1761   -1758    1788      32
    1767    1761   -1758    1788      33    1761    1779   -1776    1770      20
    1761    1779   -1776    1770      21    1761    1779   -1776    1770      22
    1761    1779    1782    1938       3    1761    1767    1770    1773       7
    1761    1767   -1770    1776      20    1761    1767   -1770    1776      21
    1761    1767   -1770    1776      22    1761    1767    1839    1842      11
    1761    1767   -1839    1788      32    1761    1767   -1839    1788      33
    1761    1758   -1788    1839      28    1761    1758    1788    1791      34
    1761    1758   -1788    1791       3    1758    1761    1779    1776       7
    1758    1761    1779    1782       7    1758    1761    1767    1770       7
    1758    1761   -1767    1839       7    1758    1788   -1839    1767      28
    1758    1788    1839    1842      28    1758    1788    1791    1794      24
    1758    1788   -1791    1794      25    1758    1788   -1791    1794      26
    1755    1758    1761    1779      11    1755    1758    1761    1767      11
    1755    1758    1788    1839      28    1755    1758    1788    1791      28
    1995    1992    1998    2001      15    1995    1992   -1998    2001      16
    1989    1992    1998    2001      15    1989    1992   -1998    2001      16
    1986    1983    1980    1989      15    1986    1983   -1980    1989      16
    1983    1980    1989    1992      18    1983    1980   -1989    1992      19
    1980    1989    1992    1995      17    1980    1989    1992    1998      18
    1980    1989   -1992    1998      19    1980    1974   -1971    1998      20
    1980    1974   -1971    1998      21    1980    1974   -1971    1998      22
    1977    1974    1971    1998       7    1977    1974    1980    1989      15
    1977    1974   -1980    1989      16    1977    1974    1980    1983       7
    1974    1971    1998    2001       7    1974    1971    1998    1992      20
    1974    1971   -1998    1992      21    1974    1971   -1998    1992      22
    1974    1980   -1989    1992      18    1974    1980   -1989    1992      19
    1974    1980    1983    1986       7    1971    1998    1992    1995       7
    1971    1998    1992    1989       7    1971    1974   -1980    1989       7
    1971    1974    1980    1983      20    1971    1974   -1980    1983      21
    1971    1974   -1980    1983      22    1968    1971    1998    2001      15
    1968    1971   -1998    2001      16    1968    1971    1998    1992       7
    1968    1971    1974    1980       7    1968    1971    1974    1977      15
    1968    1971   -1974    1977      16    1965    1968    1971    1998      18
    1965    1968   -1971    1998      19    1965    1968    1971    1974      18
    1965    1968   -1971    1974      19    1962    1965    1968    1971      18
    1962    1965   -1968    1971      19    1959    1962    1965    1968       7
    1959    1956    1953    2004      24    1959    1956   -1953    2004      25
    1959    1956   -1953    2004      26    1956    1959    1962    1965      27
    1956    1953    2004    2007      28    1953    1956    1959    1962      29
    1947    2103    2100    2106       3    1947    2103    2100    2097       3
    1944    1947    2103    2100       2    1944    1926    1932    2004       7
    1944    1926    1923    1953      32    1944    1926   -1923    1953      33
    1941    1935    1932    2004       7    1941    1944    1947    2103       3
    1938    1935    1941    1944       7    1938    1935    1932    2004       7
    1935    1941    1944    1947       7    1935    1932    2004    2007      11
    1935    1932    2004    1953      32    1935    1932   -2004    1953      33
    1935    1932   -1926    1944      20    1935    1932   -1926    1944      21
    1935    1932   -1926    1944      22    1932    1935   -1941    1944      20
    1932    1935   -1941    1944      21    1932    1935   -1941    1944      22
    1932    2004    1953    1956      34    1932    2004   -1953    1956       3
    1932    1926   -1944    1941      20    1932    1926   -1944    1941      21
    1932    1926   -1944    1941      22    1932    1926    1944    1947       7
    1932    1926   -1923    1953      32    1932    1926   -1923    1953      33
    1926    1944   -1941    1935      20    1926    1944   -1941    1935      21
    1926    1944   -1941    1935      22    1926    1944    1947    2103       3
    1926    1932    1935    1938       7    1926    1932   -1935    1941      20
    1926    1932   -1935    1941      21    1926    1932   -1935    1941      22
    1926    1932    2004    2007      11    1926    1932   -2004    1953      32
    1926    1932   -2004    1953      33    1926    1923   -1953    2004      28
    1926    1923    1953    1956      34    1926    1923   -1953    1956       3
    1923    1926    1944    1941       7    1923    1926    1944    1947       7
    1923    1926    1932    1935       7    1923    1926   -1932    2004       7
    1923    1953   -2004    1932      28    1923    1953    2004    2007      28
    1923    1953    1956    1959      24    1923    1953   -1956    1959      25
    1923    1953   -1956    1959      26    1920    1923    1926    1944      11
    1920    1923    1926    1932      11    1920    1923    1953    2004      28
    1920    1923    1953    1956      28    2160    2157    2163    2166      15
    2160    2157   -2163    2166      16    2154    2157    2163    2166      15
    2154    2157   -2163    2166      16    2151    2148    2145    2154      15
    2151    2148   -2145    2154      16    2148    2145    2154    2157      18
    2148    2145   -2154    2157      19    2145    2154    2157    2160      17
    2145    2154    2157    2163      18    2145    2154   -2157    2163      19
    2145    2139   -2136    2163      20    2145    2139   -2136    2163      21
    2145    2139   -2136    2163      22    2142    2139    2136    2163       7
    2142    2139    2145    2154      15    2142    2139   -2145    2154      16
    2142    2139    2145    2148       7    2139    2136    2163    2166       7
    2139    2136    2163    2157      20    2139    2136   -2163    2157      21
    2139    2136   -2163    2157      22    2139    2145   -2154    2157      18
    2139    2145   -2154    2157      19    2139    2145    2148    2151       7
    2136    2163    2157    2160       7    2136    2163    2157    2154       7
    2136    2139   -2145    2154       7    2136    2139    2145    2148      20
    2136    2139   -2145    2148      21    2136    2139   -2145    2148      22
    2133    2136    2163    2166      15    2133    2136   -2163    2166      16
    2133    2136    2163    2157       7    2133    2136    2139    2145       7
    2133    2136    2139    2142      15    2133    2136   -2139    2142      16
    2130    2133    2136    2163      18    2130    2133   -2136    2163      19
    2130    2133    2136    2139      18    2130    2133   -2136    2139      19
    2127    2130    2133    2136      18    2127    2130   -2133    2136      19
    2124    2127    2130    2133       7    2124    2121    2118    2169      24
    2124    2121   -2118    2169      25    2124    2121   -2118    2169      26
    2121    2124    2127    2130      27    2121    2118    2169    2172      28
    2118    2121    2124    2127      29    2112    2268    2265    2271       3
    2112    2268    2265    2262       3    2109    2112    2268    2265       2
    2109    2091    2097    2169       7    2109    2091    2088    2118      32
    2109    2091   -2088    2118      33    2106    2100    2097    2169       7
    2106    2109    2112    2268       3    2103    2100    2106    2109       7
    2103    2100    2097    2169       7    2100    2106    2109    2112       7
    2100    2097    2169    2172      11    2100    2097    2169    2118      32
    2100    2097   -2169    2118      33    2100    2097   -2091    2109      20
    2100    2097   -2091    2109      21    2100    2097   -2091    2109      22
    2097    2100   -2106    2109      20    2097    2100   -2106    2109      21
    2097    2100   -2106    2109      22    2097    2169    2118    2121      34
    2097    2169   -2118    2121       3    2097    2091   -2109    2106      20
    2097    2091   -2109    2106      21    2097    2091   -2109    2106      22
    2097    2091    2109    2112       7    2097    2091   -2088    2118      32
    2097    2091   -2088    2118      33    2091    2109   -2106    2100      20
    2091    2109   -2106    2100      21    2091    2109   -2106    2100      22
    2091    2109    2112    2268       3    2091    2097    2100    2103       7
    2091    2097   -2100    2106      20    2091    2097   -2100    2106      21
    2091    2097   -2100    2106      22    2091    2097    2169    2172      11
    2091    2097   -2169    2118      32    2091    2097   -2169    2118      33
    2091    2088   -2118    2169      28    2091    2088    2118    2121      34
    2091    2088   -2118    2121       3    2088    2091    2109    2106       7
    2088    2091    2109    2112       7    2088    2091    2097    2100       7
    2088    2091   -2097    2169       7    2088    2118   -2169    2097      28
    2088    2118    2169    2172      28    2088    2118    2121    2124      24
    2088    2118   -2121    2124      25    2088    2118   -2121    2124      26
    2085    2088    2091    2109      11    2085    2088    2091    2097      11
    2085    2088    2118    2169      28    2085    2088    2118    2121      28
    2325    2322    2328    2331      15    2325    2322   -2328    2331      16
    2319    2322    2328    2331      15    2319    2322   -2328    2331      16
    2316    2313    2310    2319      15    2316    2313   -2310    2319      16
    2313    2310    2319    2322      18    2313    2310   -2319    2322      19
    2310    2319    2322    2325      17    2310    2319    2322    2328      18
    2310    2319   -2322    2328      19    2310    2304   -2301    2328      20
    2310    2304   -2301    2328      21    2310    2304   -2301    2328      22
    2307    2304    2301    2328       7    2307    2304    2310    2319      15
    2307    2304   -2310    2319      16    2307    2304    2310    2313       7
    2304    2301    2328    2331       7    2304    2301    2328    2322      20
    2304    2301   -2328    2322      21    2304    2301   -2328    2322      22
    2304    2310   -2319    2322      18    2304    2310   -2319    2322      19
    2304    2310    2313    2316       7    2301    2328    2322    2325       7
    2301    2328    2322    2319       7    2301    2304   -2310    2319       7
    2301    2304    2310    2313      20    2301    2304   -2310    2313      21
    2301    2304   -2310    2313      22    2298    2301    2328    2331      15
    2298    2301   -2328    2331      16    2298    2301    2328    2322       7
    2298    2301    2304    2310       7    2298    2301    2304    2307      15
    2298    2301   -2304    2307      16    2295    2298    2301    2328      18
    2295    2298   -2301    2328      19    2295    2298    2301    2304      18
    2295    2298   -2301    2304      19    2292    2295    2298    2301      18
    2292    2295   -2298    2301      19    2289    2292    2295    2298       7
    2289    2286    2283    2334      24    2289    2286   -2283    2334      25
    2289    2286   -2283    2334      26    2286    2289    2292    2295      27
    2286    2283    2334    2337      28    2283    2286    2289    2292      29
    2277    2433    2430    2436       3    2277    2433    2430    2427       3
    2274    2277    2433    2430       2    2274    2256    2262    2334       7
    2274    2256    2253    2283      32    2274    2256   -2253    2283      33
    2271    2265    2262    2334       7    2271    2274    2277    2433       3
    2268    2265    2271    2274       7    2268    2265    2262    2334       7
    2265    2271    2274    2277       7    2265    2262    2334    2337      11
    2265    2262    2334    2283      32    2265    2262   -2334    2283      33
    2265    2262   -2256    2274      20    2265    2262   -2256    2274      21
    2265    2262   -2256    2274      22    2262    2265   -2271    2274      20
    2262    2265   -2271    2274      21    2262    2265   -2271    2274      22
    2262    2334    2283    2286      34    2262    2334   -2283    2286       3
    2262    2256   -2274    2271      20    2262    2256   -2274    2271      21
    2262    2256   -2274    2271      22    2262    2256    2274    2277       7
    2262    2256   -2253    2283      32    2262    2256   -2253    2283      33
    2256    2274   -2271    2265      20    2256    2274   -2271    2265      21
    2256    2274   -2271    2265      22    2256    2274    2277    2433       3
    2256    2262    2265    2268       7    2256    2262   -2265    2271      20
    2256    2262   -2265    2271      21    2256    2262   -2265    2271      22
    2256    2262    2334    2337      11    2256    2262   -2334    2283      32
    2256    2262   -2334    2283      33    2256    2253   -2283    2334      28
    2256    2253    2283    2286      34    2256    2253   -2283    2286       3
    2253    2256    2274    2271       7    2253    2256    2274    2277       7
    2253    2256    2262    2265       7    2253    2256   -2262    2334       7
    2253    2283   -2334    2262      28    2253    2283    2334    2337      28
    2253    2283    2286    2289      24    2253    2283   -2286    2289      25
    2253    2283   -2286    2289      26    2250    2253    2256    2274      11
    2250    2253    2256    2262      11    2250    2253    2283    2334      28
    2250    2253    2283    2286      28    2490    2487    2493    2496      15
    2490    2487   -2493    2496      16    2484    2487    2493    2496      15
    2484    2487   -2493    2496      16    2481    2478    2475    2484      15
    2481    2478   -2475    2484      16    2478    2475    2484    2487      18
    2478    2475   -2484    2487      19    2475    2484    2487    2490      17
    2475    2484    2487    2493      18    2475    2484   -2487    2493      19
    2475    2469   -2466    2493      20    2475    2469   -2466    2493      21
    2475    2469   -2466    2493      22    2472    2469    2466    2493       7
    2472    2469    2475    2484      15    2472    2469   -2475    2484      16
    2472    2469    2475    2478       7    2469    2466    2493    2496       7
    2469    2466    2493    2487      20    2469    2466   -2493    2487      21
    2469    2466   -2493    2487      22    2469    2475   -2484    2487      18
    2469    2475   -2484    2487      19    2469    2475    2478    2481       7
    2466    2493    2487    2490       7    2466    2493    2487    2484       7
    2466    2469   -2475    2484       7    2466    2469    2475    2478      20
    2466    2469   -2475    2478      21    2466    2469   -2475    2478      22
    2463    2466    2493    2496      15    2463    2466   -2493    2496      16
    2463    2466    2493    2487       7    2463    2466    2469    2475       7
    2463    2466    2469    2472      15    2463    2466   -2469    2472      16
    2460    2463    2466    2493      18    2460    2463   -2466    2493      19
    2460    2463    2466    2469      18    2460    2463   -2466    2469      19
    2457    2460    2463    2466      18    2457    2460   -2463    2466      19
    2454    2457    2460    2463       7    2454    2451    2448    2499      24
    2454    2451   -2448    2499      25    2454    2451   -2448    2499      26
    2451    2454    2457    2460      27    2451    2448    2499    2502      28
    2448    2451    2454    2457      29    2442    2598    2595    2601       3
    2442    2598    2595    2592       3    2439    2442    2598    2595       2
    2439    2421    2427    2499       7    2439    2421    2418    2448      32
    2439    2421   -2418    2448      33    2436    2430    2427    2499       7
    2436    2439    2442    2598       3    2433    2430    2436    2439       7
    2433    2430    2427    2499       7    2430    2436    2439    2442       7
    2430    2427    2499    2502      11    2430    2427    2499    2448      32
    2430    2427   -2499    2448      33    2430    2427   -2421    2439      20
    2430    2427   -2421    2439      21    2430    2427   -2421    2439      22
    2427    2430   -2436    2439      20    2427    2430   -2436    2439      21
    2427    2430   -2436    2439      22    2427    2499    2448    2451      34
    2427    2499   -2448    2451       3    2427    2421   -2439    2436      20
    2427    2421   -2439    2436      21    2427    2421   -2439    2436      22
    2427    2421    2439    2442       7    2427    2421   -2418    2448      32
    2427    2421   -2418    2448      33    2421    2439   -2436    2430      20
    2421    2439   -2436    2430      21    2421    2439   -2436    2430      22
    2421    2439    2442    2598       3    2421    2427    2430    2433       7
    2421    2427   -2430    2436      20    2421    2427   -2430    2436      21
    2421    2427   -2430    2436      22    2421    2427    2499    2502      11
    2421    2427   -2499    2448      32    2421    2427   -2499    2448      33
    2421    2418   -2448    2499      28    2421    2418    2448    2451      34
    2421    2418   -2448    2451       3    2418    2421    2439    2436       7
    2418    2421    2439    2442       7    2418    2421    2427    2430       7
    2418    2421   -2427    2499       7    2418    2448   -2499    2427      28
    2418    2448    2499    2502      28    2418    2448    2451    2454      24
    2418    2448   -2451    2454      25    2418    2448   -2451    2454      26
    2415    2418    2421    2439      11    2415    2418    2421    2427      11
    2415    2418    2448    2499      28    2415    2418    2448    2451      28
    2655    2652    2658    2661      15    2655    2652   -2658    2661      16
    2649    2652    2658    2661      15    2649    2652   -2658    2661      16
    2646    2643    2640    2649      15    2646    2643   -2640    2649      16
    2643    2640    2649    2652      18    2643    2640   -2649    2652      19
    2640    2649    2652    2655      17    2640    2649    2652    2658      18
    2640    2649   -2652    2658      19    2640    2634   -2631    2658      20
    2640    2634   -2631    2658      21    2640    2634   -2631    2658      22
    2637    2634    2631    2658       7    2637    2634    2640    2649      15
    2637    2634   -2640    2649      16    2637    2634    2640    2643       7
    2634    2631    2658    2661       7    2634    2631    2658    2652      20
    2634    2631   -2658    2652      21    2634    2631   -2658    2652      22
    2634    2640   -2649    2652      18    2634    2640   -2649    2652      19
    2634    2640    2643    2646       7    2631    2658    2652    2655       7
    2631    2658    2652    2649       7    2631    2634   -2640    2649       7
    2631    2634    2640    2643      20    2631    2634   -2640    2643      21
    2631    2634   -2640    2643      22    2628    2631    2658    2661      15
    2628    2631   -2658    2661      16    2628    2631    2658    2652       7
    2628    2631    2634    2640       7    2628    2631    2634    2637      15
    2628    2631   -2634    2637      16    2625    2628    2631    2658      18
    2625    2628   -2631    2658      19    2625    2628    2631    2634      18
    2625    2628   -2631    2634      19    2622    2625    2628    2631      18
    2622    2625   -2628    2631      19    2619    2622    2625    2628       7
    2619    2616    2613    2664      24    2619    2616   -2613    2664      25
    2619    2616   -2613    2664      26    2616    2619    2622    2625      27
    2616    2613    2664    2667      28    2613    2616    2619    2622      29
    2607    2763    2760    2766       3    2607    2763    2760    2757       3
    2604    2607    2763    2760       2    2604    2586    2592    2664       7
    2604    2586    2583    2613      32    2604    2586   -2583    2613      33
    2601    2595    2592    2664       7    2601    2604    2607    2763       3
    2598    2595    2601    2604       7    2598    2595    2592    2664       7
    2595    2601    2604    2607       7    2595    2592    2664    2667      11
    2595    2592    2664    2613      32    2595    2592   -2664    2613      33
    2595    2592   -2586    2604      20    2595    2592   -2586    2604      21
    2595    2592   -2586    2604      22    2592    2595   -2601    2604      20
    2592    2595   -2601    2604      21    2592    2595   -2601    2604      22
    2592    2664    2613    2616      34    2592    2664   -2613    2616       3
    2592    2586   -2604    2601      20    2592    2586   -2604    2601      21
    2592    2586   -2604    2601      22    2592    2586    2604    2607       7
    2592    2586   -2583    2613      32    2592    2586   -2583    2613      33
    2586    2604   -2601    2595      20    2586    2604   -2601    2595      21
    2586    2604   -2601    2595      22    2586    2604    2607    2763       3
    2586    2592    2595    2598       7    2586    2592   -2595    2601      20
    2586    2592   -2595    2601      21    2586    2592   -2595    2601      22
    2586    2592    2664    2667      11    2586    2592   -2664    2613      32
    2586    2592   -2664    2613      33    2586    2583   -2613    2664      28
    2586    2583    2613    2616      34    2586    2583   -2613    2616       3
    2583    2586    2604    2601       7    2583    2586    2604    2607       7
    2583    2586    2592    2595       7    2583    2586   -2592    2664       7
    2583    2613   -2664    2592      28    2583    2613    2664    2667      28
    2583    2613    2616    2619      24    2583    2613   -2616    2619      25
    2583    2613   -2616    2619      26    2580    2583    2586    2604      11
    2580    2583    2586    2592      11    2580    2583    2613    2664      28
    2580    2583    2613    2616      28    2820    2817    2823    2826      15
    2820    2817   -2823    2826      16    2814    2817    2823    2826      15
    2814    2817   -2823    2826      16    2811    2808    2805    2814      15
    2811    2808   -2805    2814      16    2808    2805    2814    2817      18
    2808    2805   -2814    2817      19    2805    2814    2817    2820      17
    2805    2814    2817    2823      18    2805    2814   -2817    2823      19
    2805    2799   -2796    2823      20    2805    2799   -2796    2823      21
    2805    2799   -2796    2823      22    2802    2799    2796    2823       7
    2802    2799    2805    2814      15    2802    2799   -2805    2814      16
    2802    2799    2805    2808       7    2799    2796    2823    2826       7
    2799    2796    2823    2817      20    2799    2796   -2823    2817      21
    2799    2796   -2823    2817      22    2799    2805   -2814    2817      18
    2799    2805   -2814    2817      19    2799    2805    2808    2811       7
    2796    2823    2817    2820       7    2796    2823    2817    2814       7
    2796    2799   -2805    2814       7    2796    2799    2805    2808      20
    2796    2799   -2805    2808      21    2796    2799   -2805    2808      22
    2793    2796    2823    2826      15    2793    2796   -2823    2826      16
    2793    2796    2823    2817       7    2793    2796    2799    2805       7
    2793    2796    2799    2802      15    2793    2796   -2799    2802      16
    2790    2793    2796    2823      18    2790    2793   -2796    2823      19
    2790    2793    2796    2799      18    2790    2793   -2796    2799      19
    2787    2790    2793    2796      18    2787    2790   -2793    2796      19
    2784    2787    2790    2793       7    2784    2781    2778    2829      24
    2784    2781   -2778    2829      25    2784    2781   -2778    2829      26
    2781    2784    2787    2790      27    2781    2778    2829    2832      28
    2778    2781    2784    2787      29    2772    2928    2925    2931       3
    2772    2928    2925    2922       3    2769    2772    2928    2925       2
    2769    2751    2757    2829       7    2769    2751    2748    2778      32
    2769    2751   -2748    2778      33    2766    2760    2757    2829       7
    2766    2769    2772    2928       3    2763    2760    2766    2769       7
    2763    2760    2757    2829       7    2760    2766    2769    2772       7
    2760    2757    2829    2832      11    2760    2757    2829    2778      32
    2760    2757   -2829    2778      33    2760    2757   -2751    2769      20
    2760    2757   -2751    2769      21    2760    2757   -2751    2769      22
    2757    2760   -2766    2769      20    2757    2760   -2766    2769      21
    2757    2760   -2766    2769      22    2757    2829    2778    2781      34
    2757    2829   -2778    2781       3    2757    2751   -2769    2766      20
    2757    2751   -2769    2766      21    2757    2751   -2769    2766      22
    2757    2751    2769    2772       7    2757    2751   -2748    2778      32
    2757    2751   -2748    2778      33    2751    2769   -2766    2760      20
    2751    2769   -2766    2760      21    2751    2769   -2766    2760      22
    2751    2769    2772    2928       3    2751    2757    2760    2763       7
    2751    2757   -2760    2766      20    2751    2757   -2760    2766      21
    2751    2757   -2760    2766      22    2751    2757    2829    2832      11
    2751    2757   -2829    2778      32    2751    2757   -2829    2778      33
    2751    2748   -2778    2829      28    2751    2748    2778    2781      34
    2751    2748   -2778    2781       3    2748    2751    2769    2766       7
    2748    2751    2769    2772       7    2748    2751    2757    2760       7
    2748    2751   -2757    2829       7    2748    2778   -2829    2757      28
    2748    2778    2829    2832      28    2748    2778    2781    2784      24
    2748    2778   -2781    2784      25    2748    2778   -2781    2784      26
    2745    2748    2751    2769      11    2745    2748    2751    2757      11
    2745    2748    2778    2829      28    2745    2748    2778    2781      28
    2985    2982    2988    2991      15    2985    2982   -2988    2991      16
    2979    2982    2988    2991      15    2979    2982   -2988    2991      16
    2976    2973    2970    2979      15    2976    2973   -2970    2979      16
    2973    2970    2979    2982      18    2973    2970   -2979    2982      19
    2970    2979    2982    2985      17    2970    2979    2982    2988      18
    2970    2979   -2982    2988      19    2970    2964   -2961    2988      20
    2970    2964   -2961    2988      21    2970    2964   -2961    2988      22
    2967    2964    2961    2988       7    2967    2964    2970    2979      15
    2967    2964   -2970    2979      16    2967    2964    2970    2973       7
    2964    2961    2988    2991       7    2964    2961    2988    2982      20
    2964    2961   -2988    2982      21    2964    2961   -2988    2982      22
    2964    2970   -2979    2982      18    2964    2970   -2979    2982      19
    2964    2970    2973    2976       7    2961    2988    2982    2985       7
    2961    2988    2982    2979       7    2961    2964   -2970    2979       7
    2961    2964    2970    2973      20    2961    2964   -2970    2973      21
    2961    2964   -2970    2973      22    2958    2961    2988    2991      15
    2958    2961   -2988    2991      16    2958    2961    2988    2982       7
    2958    2961    2964    2970       7    2958    2961    2964    2967      15
    2958    2961   -2964    2967      16    2955    2958    2961    2988      18
    2955    2958   -2961    2988      19    2955    2958    2961    2964      18
    2955    2958   -2961    2964      19    2952    2955    2958    2961      18
    2952    2955   -2958    2961      19    2949    2952    2955    2958       7
    2949    2946    2943    2994      24    2949    2946   -2943    2994      25
    2949    2946   -2943    2994      26    2946    2949    2952    2955      27
    2946    2943    2994    2997      28    2943    2946    2949    2952      29
    2937    3093    3090    3096       3    2937    3093    3090    3087       3
    2934    2937    3093    3090       2    2934    2916    2922    2994       7
    2934    2916    2913    2943      32    2934    2916   -2913    2943      33
    2931    2925    2922    2994       7    2931    2934    2937    3093       3
    2928    2925    2931    2934       7    2928    2925    2922    2994       7
    2925    2931    2934    2937       7    2925    2922    2994    2997      11
    2925    2922    2994    2943      32    2925    2922   -2994    2943      33
    2925    2922   -2916    2934      20    2925    2922   -2916    2934      21
    2925    2922   -2916    2934      22    2922    2925   -2931    2934      20
    2922    2925   -2931    2934      21    2922    2925   -2931    2934      22
    2922    2994    2943    2946      34    2922    2994   -2943    2946       3
    2922    2916   -2934    2931      20    2922    2916   -2934    2931      21
    2922    2916   -2934    2931      22    2922    2916    2934    2937       7
    2922    2916   -2913    2943      32    2922    2916   -2913    2943      33
    2916    2934   -2931    2925      20    2916    2934   -2931    2925      21
    2916    2934   -2931    2925      22    2916    2934    2937    3093       3
    2916    2922    2925    2928       7    2916    2922   -2925    2931      20
    2916    2922   -2925    2931      21    2916    2922   -2925    2931      22
    2916    2922    2994    2997      11    2916    2922   -2994    2943      32
    2916    2922   -2994    2943      33    2916    2913   -2943    2994      28
    2916    2913    2943    2946      34    2916    2913   -2943    2946       3
    2913    2916    2934    2931       7    2913    2916    2934    2937       7
    2913    2916    2922    2925       7    2913    2916   -2922    2994       7
    2913    2943   -2994    2922      28    2913    2943    2994    2997      28
    2913    2943    2946    2949      24    2913    2943   -2946    2949      25
    2913    2943   -2946    2949      26    2910    2913    2916    2934      11
    2910    2913    2916    2922      11    2910    2913    2943    2994      28
    2910    2913    2943    2946      28    3150    3147    3153    3156      15
    3150    3147   -3153    3156      16    3144    3147    3153    3156      15
    3144    3147   -3153    3156      16    3141    3138    3135    3144      15
    3141    3138   -3135    3144      16    3138    3135    3144    3147      18
    3138    3135   -3144    3147      19    3135    3144    3147    3150      17
    3135    3144    3147    3153      18    3135    3144   -3147    3153      19
    3135    3129   -3126    3153      20    3135    3129   -3126    3153      21
    3135    3129   -3126    3153      22    3132    3129    3126    3153       7
    3132    3129    3135    3144      15    3132    3129   -3135    3144      16
    3132    3129    3135    3138       7    3129    3126    3153    3156       7
    3129    3126    3153    3147      20    3129    3126   -3153    3147      21
    3129    3126   -3153    3147      22    3129    3135   -3144    3147      18
    3129    3135   -3144    3147      19    3129    3135    3138    3141       7
    3126    3153    3147    3150       7    3126    3153    3147    3144       7
    3126    3129   -3135    3144       7    3126    3129    3135    3138      20
    3126    3129   -3135    3138      21    3126    3129   -3135    3138      22
    3123    3126    3153    3156      15    3123    3126   -3153    3156      16
    3123    3126    3153    3147       7    3123    3126    3129    3135       7
    3123    3126    3129    3132      15    3123    3126   -3129    3132      16
    3120    3123    3126    3153      18    3120    3123   -3126    3153      19
    3120    3123    3126    3129      18    3120    3123   -3126    3129      19
    3117    3120    3123    3126      18    3117    3120   -3123    3126      19
    3114    3117    3120    3123       7    3114    3111    3108    3159      24
    3114    3111   -3108    3159      25    3114    3111   -3108    3159      26
    3111    3114    3117    3120      27    3111    3108    3159    3162      28
    3108    3111    3114    3117      29    3102    3258    3255    3261       3
    3102    3258    3255    3252       3    3099    3102    3258    3255       2
    3099    3081    3087    3159       7    3099    3081    3078    3108      32
    3099    3081   -3078    3108      33    3096    3090    3087    3159       7
    3096    3099    3102    3258       3    3093    3090    3096    3099       7
    3093    3090    3087    3159       7    3090    3096    3099    3102       7
    3090    3087    3159    3162      11    3090    3087    3159    3108      32
    3090    3087   -3159    3108      33    3090    3087   -3081    3099      20
    3090    3087   -3081    3099      21    3090    3087   -3081    3099      22
    3087    3090   -3096    3099      20    3087    3090   -3096    3099      21
    3087    3090   -3096    3099      22    3087    3159    3108    3111      34
    3087    3159   -3108    3111       3    3087    3081   -3099    3096      20
    3087    3081   -3099    3096      21    3087    3081   -3099    3096      22
    3087    3081    3099    3102       7    3087    3081   -3078    3108      32
    3087    3081   -3078    3108      33    3081    3099   -3096    3090      20
    3081    3099   -3096    3090      21    3081    3099   -3096    3090      22
    3081    3099    3102    3258       3    3081    3087    3090    3093       7
    3081    3087   -3090    3096      20    3081    3087   -3090    3096      21
    3081    3087   -3090    3096      22    3081    3087    3159    3162      11
    3081    3087   -3159    3108      32    3081    3087   -3159    3108      33
    3081    3078   -3108    3159      28    3081    3078    3108    3111      34
    3081    3078   -3108    3111       3    3078    3081    3099    3096       7
    3078    3081    3099    3102       7    3078    3081    3087    3090       7
    3078    3081   -3087    3159       7    3078    3108   -3159    3087      28
    3078    3108    3159    3162      28    3078    3108    3111    3114      24
    3078    3108   -3111    3114      25    3078    3108   -3111    3114      26
    3075    3078    3081    3099      11    3075    3078    3081    3087      11
    3075    3078    3108    3159      28    3075    3078    3108    3111      28
    3315    3312    3318    3321      15    3315    3312   -3318    3321      16
    3309    3312    3318    3321      15    3309    3312   -3318    3321      16
    3306    3303    3300    3309      15    3306    3303   -3300    3309      16
    3303    3300    3309    3312      18    3303    3300   -3309    3312      19
    3300    3309    3312    3315      17    3300    3309    3312    3318      18
    3300    3309   -3312    3318      19    3300    3294   -3291    3318      20
    3300    3294   -3291    3318      21    3300    3294   -3291    3318      22
    3297    3294    3291    3318       7    3297    3294    3300    3309      15
    3297    3294   -3300    3309      16    3297    3294    3300    3303       7
    3294    3291    3318    3321       7    3294    3291    3318    3312      20
    3294    3291   -3318    3312      21    3294    3291   -3318    3312      22
    3294    3300   -3309    3312      18    3294    3300   -3309    3312      19
    3294    3300    3303    3306       7    3291    3318    3312    3315       7
    3291    3318    3312    3309       7    3291    3294   -3300    3309       7
    3291    3294    3300    3303      20    3291    3294   -3300    3303      21
    3291    3294   -3300    3303      22    3288    3291    3318    3321      15
    3288    3291   -3318    3321      16    3288    3291    3318    3312       7
    3288    3291    3294    3300       7    3288    3291    3294    3297      15
    3288    3291   -3294    3297      16    3285    3288    3291    3318      18
    3285    3288   -3291    3318      19    3285    3288    3291    3294      18
    3285    3288   -3291    3294      19    3282    3285    3288    3291      18
    3282    3285   -3288    3291      19    3279    3282    3285    3288       7
    3279    3276    3273    3324      24    3279    3276   -3273    3324      25
    3279    3276   -3273    3324      26    3276    3279    3282    3285      27
    3276    3273    3324    3327      28    3273    3276    3279    3282      29
    3264    3246    3252    3324       7    3264    3246    3243    3273      32
    3264    3246   -3243    3273      33    3261    3255    3252    3324       7
    3261    3264    3267    3405       3    3258    3255    3261    3264       7
    3258    3255    3252    3324       7    3255    3261    3264    3267       7
    3255    3252    3324    3327      11    3255    3252    3324    3273      32
    3255    3252   -3324    3273      33    3255    3252   -3246    3264      20
    3255    3252   -3246    3264      21    3255    3252   -3246    3264      22
    3252    3255   -3261    3264      20    3252    3255   -3261    3264      21
    3252    3255   -3261    3264      22    3252    3324    3273    3276      34
    3252    3324   -3273    3276       3    3252    3246   -3264    3261      20
    3252    3246   -3264    3261      21    3252    3246   -3264    3261      22
    3252    3246    3264    3267       7    3252    3246   -3243    3273      32
    3252    3246   -3243    3273      33    3246    3264   -3261    3255      20
    3246    3264   -3261    3255      21    3246    3264   -3261    3255      22
    3246    3264    3267    3405       3    3246    3252    3255    3258       7
    3246    3252   -3255    3261      20    3246    3252   -3255    3261      21
    3246    3252   -3255    3261      22    3246    3252    3324    3327      11
    3246    3252   -3324    3273      32    3246    3252   -3324    3273      33
    3246    3243   -3273    3324      28    3246    3243    3273    3276      34
    3246    3243   -3273    3276       3    3243    3246    3264    3261       7
    3243    3246    3264    3267       7    3243    3246    3252    3255       7
    3243    3246   -3252    3324       7    3243    3273   -3324    3252      28
    3243    3273    3324    3327      28    3243    3273    3276    3279      24
    3243    3273   -3276    3279      25    3243    3273   -3276    3279      26
    3240    3243    3246    3264      11    3240    3243    3246    3252      11
    3240    3243    3273    3324      28    3240    3243    3273    3276      28
      15      27     -45     -42      35       6      36     -42     -45      35
      33      39     -36     -42      35      24      30     -27     -45      35
      12      18     -15     -45      35       3       9      -6     -42      35
      99     120    -171    -174      36      90     171    -120    -123      35
      93     120     -90     -87      36     264     285    -336    -339      36
     255     336    -285    -288      35     258     285    -255    -252      36
     429     450    -501    -504      36     420     501    -450    -453      35
     423     450    -420    -417      36     594     615    -666    -669      36
     585     666    -615    -618      35     588     615    -585    -582      36
     759     780    -831    -834      36     750     831    -780    -783      35
     753     780    -750    -747      36     924     945    -996    -999      36
     915     996    -945    -948      35     918     945    -915    -912      36
    1089    1110   -1161   -1164      36    1080    1161   -1110   -1113      35
    1083    1110   -1080   -1077      36    1254    1275   -1326   -1329      36
    1245    1326   -1275   -1278      35    1248    1275   -1245   -1242      36
    1419    1440   -1491   -1494      36    1410    1491   -1440   -1443      35
    1413    1440   -1410   -1407      36    1584    1605   -1656   -1659      36
    1575    1656   -1605   -1608      35    1578    1605   -1575   -1572      36
    1767    1788   -1839   -1842      36    1758    1839   -1788   -1791      35
    1761    1788   -1758   -1755      36    1932    1953   -2004   -2007      36
    1923    2004   -1953   -1956      35    1926    1953   -1923   -1920      36
    2097    2118   -2169   -2172      36    2088    2169   -2118   -2121      35
    2091    2118   -2088   -2085      36    2262    2283   -2334   -2337      36
    2253    2334   -2283   -2286      35    2256    2283   -2253   -2250      36
    2427    2448   -2499   -2502      36    2418    2499   -2448   -2451      35
    2421    2448   -2418   -2415      36    2592    2613   -2664   -2667      36
    2583    2664   -2613   -2616      35    2586    2613   -2583   -2580      36
    2757    2778   -2829   -2832      36    2748    2829   -2778   -2781      35
    2751    2778   -2748   -2745      36    2922    2943   -2994   -2997      36
    2913    2994   -2943   -2946      35    2916    2943   -2913   -2910      36
    3087    3108   -3159   -3162      36    3078    3159   -3108   -3111      35
    3081    3108   -3078   -3075      36    3252    3273   -3324   -3327      36
    3243    3324   -3273   -3276      35    3246    3273   -3243   -3240      36
%FLAG EXCLUDED_ATOMS_LIST                                                       
%FORMAT(10I8)                                                                   
       2       3       4      12      13      14      15      17      18      26
       3       4       5      13      14      15      16      17      18      19
      26       4       5       6      10      12      13      14      15      16
      17      18      19      20       5       6       7      13      15      16
      18      19      20       6       7       8      10      15      16      19
      20      21       7       8       9      10      11      13      15      16
      19      20      21      22       8       9      10      15      16      20
      21      22      23       9      10      11      16      21      22      23
      10      11      12      15      16      21      22      23      24      11
      12      13      15      16      22      23      24      25      12      13
      14      15      16      23      24      25      13      14      15      16
      24      25      26      14      15      16      17      24      25      26
      15      16      17      18      25      26      16      18      19      25
      26      20      21      23      24      18      26       0      20       0
      22      23       0      25       0       0      28      29      34      35
      36      37      60      61      29      35      36      61      35      36
      61      31      32      33      34      38      41      42      58      32
      33      34      35      37      38      39      40      41      42      43
      58      59      64      66      67      33      34      35      36      37
      38      39      40      41      42      58      59      60      62      63
      64      65      91      34      35      37      38      39      40      41
      58      64      35      36      37      38      39      40      41      42
      58      59      60      61      62      63      64      36      37      38
      39      40      41      58      59      60      61      62      63      64
      37      38      40      58      60      61      62      63      38      39
      40      58      60      61      62      63      64      65      91      39
      40      41      58      60      62      63      64      65      90      91
     116      62      63      64      65      89      90      91      92     115
     116      41      58      59      60      42      43      44      58      59
      66      67      68      69      43      44      45      58      59      66
      67      68      69      70      71      44      45      46      58      66
      67      68      69      70      71      72      73      45      46      47
      66      67      68      69      70      71      72      73      46      47
      48      56      68      69      70      71      72      73      74      47
      48      49      50      54      56      57      70      71      72      73
      74      75      83      48      49      50      51      53      54      55
      56      57      72      73      74      75      76      77      81      83
      84      49      50      51      52      53      54      56      57      74
      75      76      77      78      79      83      50      51      53      56
      74      75      76      77      51      52      53      54      55      56
      74      75      76      77      78      79      80      81      52      53
      54      75      77      78      79      80      53      77      78      79
      80      54      55      56      57      75      77      78      79      81
      82      83      55      56      57      74      77      81      82      83
      84      56      57      81      82      83      57      74      75      81
      82      83      84      74      81      83      84      59      60      66
      67       0      61      62      63       0      63      64      64      65
      91      90      91     116      67      68      69      68      69      69
      70      71      70      71      71      72      73      72      73      73
       0      75      83      76      77       0      78      79      79      80
      80       0      82      83       0      84       0      86      87      88
      89      93      96      97     113      87      88      89      90      92
      93      94      95      96      97      98     113     114     119     121
     122      88      89      90      91      92      93      94      95      96
      97     113     114     115     117     118     119     120     146      89
      90      92      93      94      95      96     113     119      90      91
      92      93      94      95      96      97     113     114     115     116
     117     118     119      91      92      93      94      95      96     113
     114     115     116     117     118     119      92      93      95     113
     115     116     117     118      93      94      95     113     115     116
     117     118     119     120     146      94      95      96     113     115
     117     118     119     120     145     146     171     117     118     119
     120     144     145     146     147     170     171      96     113     114
     115      97      98      99     113     114     121     122     123     124
      98      99     100     113     114     121     122     123     124     125
     126      99     100     101     113     121     122     123     124     125
     126     127     128     100     101     102     121     122     123     124
     125     126     127     128     101     102     103     111     123     124
     125     126     127     128     129     102     103     104     105     109
     111     112     125     126     127     128     129     130     138     103
     104     105     106     108     109     110     111     112     127     128
     129     130     131     132     136     138     139     104     105     106
     107     108     109     111     112     129     130     131     132     133
     134     138     105     106     108     111     129     130     131     132
     106     107     108     109     110     111     129     130     131     132
     133     134     135     136     107     108     109     130     132     133
     134     135     108     132     133     134     135     109     110     111
     112     130     132     133     134     136     137     138     110     111
     112     129     132     136     137     138     139     111     112     136
     137     138     112     129     130     136     137     138     139     129
     136     138     139     114     115     121     122       0     116     117
     118       0     118     119     119     120     146     145     146     171
     122     123     124     123     124     124     125     126     125     126
     126     127     128     127     128     128       0     130     138     131
     132       0     133     134     134     135     135       0     137     138
       0     139       0     141     142     143     144     148     151     152
     168     142     143     144     145     147     148     149     150     151
     152     153     168     169     174     176     177     143     144     145
     146     147     148     149     150     151     152     168     169     170
     172     173     174     175     201     144     145     147     148     149
     150     151     168     174     145     146     147     148     149     150
     151     152     168     169     170     171     172     173     174     146
     147     148     149     150     151     168     169     170     171     172
     173     174     147     148     150     168     170     171     172     173
     148     149     150     168     170     171     172     173     174     175
     201     149     150     151     168     170     172     173     174     175
     200     201     226     172     173     174     175     199     200     201
     202     225     226     151     168     169     170     152     153     154
     168     169     176     177     178     179     153     154     155     168
     169     176     177     178     179     180     181     154     155     156
     168     176     177     178     179     180     181     182     183     155
     156     157     176     177     178     179     180     181     182     183
     156     157     158     166     178     179     180     181     182     183
     184     157     158     159     160     164     166     167     180     181
     182     183     184     185     193     158     159     160     161     163
     164     165     166     167     182     183     184     185     186     187
     191     193     194     159     160     161     162     163     164     166
     167     184     185     186     187     188     189     193     160     161
     163     166     184     185     186     187     161     162     163     164
     165     166     184     185     186     187     188     189     190     191
     162     163     164     185     187     188     189     190     163     187
     188     189     190     164     165     166     167     185     187     188
     189     191     192     193     165     166     167     184     187     191
     192     193     194     166     167     191     192     193     167     184
     185     191     192     193     194     184     191     193     194     169
     170     176     177       0     171     172     173       0     173     174
     174     175     201     200     201     226     177     178     179     178
     179     179     180     181     180     181     181     182     183     182
     183     183       0     185     193     186     187       0     188     189
     189     190     190       0     192     193       0     194       0     196
     197     198     199     203     206     207     223     197     198     199
     200     202     203     204     205     206     207     208     223     224
     229     231     232     198     199     200     201     202     203     204
     205     206     207     223     224     225     227     228     229     230
     256     199     200     202     203     204     205     206     223     229
     200     201     202     203     204     205     206     207     223     224
     225     226     227     228     229     201     202     203     204     205
     206     223     224     225     226     227     228     229     202     203
     205     223     225     226     227     228     203     204     205     223
     225     226     227     228     229     230     256     204     205     206
     223     225     227     228     229     230     255     256     281     227
     228     229     230     254     255     256     257     280     281     206
     223     224     225     207     208     209     223     224     231     232
     233     234     208     209     210     223     224     231     232     233
     234     235     236     209     210     211     223     231     232     233
     234     235     236     237     238     210     211     212     231     232
     233     234     235     236     237     238     211     212     213     221
     233     234     235     236     237     238     239     212     213     214
     215     219     221     222     235     236     237     238     239     240
     248     213     214     215     216     218     219     220     221     222
     237     238     239     240     241     242     246     248     249     214
     215     216     217     218     219     221     222     239     240     241
     242     243     244     248     215     216     218     221     239     240
     241     242     216     217     218     219     220     221     239     240
     241     242     243     244     245     246     217     218     219     240
     242     243     244     245     218     242     243     244     245     219
     220     221     222     240     242     243     244     246     247     248
     220     221     222     239     242     246     247     248     249     221
     222     246     247     248     222     239     240     246     247     248
     249     239     246     248     249     224     225     231     232       0
     226     227     228       0     228     229     229     230     256     255
     256     281     232     233     234     233     234     234     235     236
     235     236     236     237     238     237     238     238       0     240
     248     241     242       0     243     244     244     245     245       0
     247     248       0     249       0     251     252     253     254     258
     261     262     278     252     253     254     255     257     258     259
     260     261     262     263     278     279     284     286     287     253
     254     255     256     257     258     259     260     261     262     278
     279     280     282     283     284     285     311     254     255     257
     258     259     260     261     278     284     255     256     257     258
     259     260     261     262     278     279     280     281     282     283
     284     256     257     258     259     260     261     278     279     280
     281     282     283     284     257     258     260     278     280     281
     282     283     258     259     260     278     280     281     282     283
     284     285     311     259     260     261     278     280     282     283
     284     285     310     311     336     282     283     284     285     309
     310     311     312     335     336     261     278     279     280     262
     263     264     278     279     286     287     288     289     263     264
     265     278     279     286     287     288     289     290     291     264
     265     266     278     286     287     288     289     290     291     292
     293     265     266     267     286     287     288     289     290     291
     292     293     266     267     268     276     288     289     290     291
     292     293     294     267     268     269     270     274     276     277
     290     291     292     293     294     295     303     268     269     270
     271     273     274     275     276     277     292     293     294     295
     296     297     301     303     304     269     270     271     272     273
     274     276     277     294     295     296     297     298     299     303
     270     271     273     276     294     295     296     297     271     272
     273     274     275     276     294     295     296     297     298     299
     300     301     272     273     274     295     297     298     299     300
     273     297     298     299     300     274     275     276     277     295
     297     298     299     301     302     303     275     276     277     294
     297     301     302     303     304     276     277     301     302     303
     277     294     295     301     302     303     304     294     301     303
     304     279     280     286     287       0     281     282     283       0
     283     284     284     285     311     310     311     336     287     288
     289     288     289     289     290     291     290     291     291     292
     293     292     293     293       0     295     303     296     297       0
     298     299     299     300     300       0     302     303       0     304
       0     306     307     308     309     313     316     317     333     307
     308     309     310     312     313     314     315     316     317     318
     333     334     339     341     342     308     309     310     311     312
     313     314     315     316     317     333     334     335     337     338
     339     340     366     309     310     312     313     314     315     316
     333     339     310     311     312     313     314     315     316     317
     333     334     335     336     337     338     339     311     312     313
     314     315     316     333     334     335     336     337     338     339
     312     313     315     333     335     336     337     338     313     314
     315     333     335     336     337     338     339     340     366     314
     315     316     333     335     337     338     339     340     365     366
     391     337     338     339     340     364     365     366     367     390
     391     316     333     334     335     317     318     319     333     334
     341     342     343     344     318     319     320     333     334     341
     342     343     344     345     346     319     320     321     333     341
     342     343     344     345     346     347     348     320     321     322
     341     342     343     344     345     346     347     348     321     322
     323     331     343     344     345     346     347     348     349     322
     323     324     325     329     331     332     345     346     347     348
     349     350     358     323     324     325     326     328     329     330
     331     332     347     348     349     350     351     352     356     358
     359     324     325     326     327     328     329     331     332     349
     350     351     352     353     354     358     325     326     328     331
     349     350     351     352     326     327     328     329     330     331
     349     350     351     352     353     354     355     356     327     328
     329     350     352     353     354     355     328     352     353     354
     355     329     330     331     332     350     352     353     354     356
     357     358     330     331     332     349     352     356     357     358
     359     331     332     356     357     358     332     349     350     356
     357     358     359     349     356     358     359     334     335     341
     342       0     336     337     338       0     338     339     339     340
     366     365     366     391     342     343     344     343     344     344
     345     346     345     346     346     347     348     347     348     348
       0     350     358     351     352       0     353     354     354     355
     355       0     357     358       0     359       0     361     362     363
     364     368     371     372     388     362     363     364     365     367
     368     369     370     371     372     373     388     389     394     396
     397     363     364     365     366     367     368     369     370     371
     372     388     389     390     392     393     394     395     421     364
     365     367     368     369     370     371     388     394     365     366
     367     368     369     370     371     372     388     389     390     391
     392     393     394     366     367     368     369     370     371     388
     389     390     391     392     393     394     367     368     370     388
     390     391     392     393     368     369     370     388     390     391
     392     393     394     395     421     369     370     371     388     390
     392     393     394     395     420     421     446     392     393     394
     395     419     420     421     422     445     446     371     388     389
     390     372     373     374     388     389     396     397     398     399
     373     374     375     388     389     396     397     398     399     400
     401     374     375     376     388     396     397     398     399     400
     401     402     403     375     376     377     396     397     398     399
     400     401     402     403     376     377     378     386     398     399
     400     401     402     403     404     377     378     379     380     384
     386     387     400     401     402     403     404     405     413     378
     379     380     381     383     384     385     386     387     402     403
     404     405     406     407     411     413     414     379     380     381
     382     383     384     386     387     404     405     406     407     408
     409     413     380     381     383     386     404     405     406     407
     381     382     383     384     385     386     404     405     406     407
     408     409     410     411     382     383     384     405     407     408
     409     410     383     407     408     409     410     384     385     386
     387     405     407     408     409     411     412     413     385     386
     387     404     407     411     412     413     414     386     387     411
     412     413     387     404     405     411     412     413     414     404
     411     413     414     389     390     396     397       0     391     392
     393       0     393     394     394     395     421     420     421     446
     397     398     399     398     399     399     400     401     400     401
     401     402     403     402     403     403       0     405     413     406
     407       0     408     409     409     410     410       0     412     413
       0     414       0     416     417     418     419     423     426     427
     443     417     418     419     420     422     423     424     425     426
     427     428     443     444     449     451     452     418     419     420
     421     422     423     424     425     426     427     443     444     445
     447     448     449     450     476     419     420     422     423     424
     425     426     443     449     420     421     422     423     424     425
     426     427     443     444     445     446     447     448     449     421
     422     423     424     425     426     443     444     445     446     447
     448     449     422     423     425     443     445     446     447     448
     423     424     425     443     445     446     447     448     449     450
     476     424     425     426     443     445     447     448     449     450
     475     476     501     447     448     449     450     474     475     476
     477     500     501     426     443     444     445     427     428     429
     443     444     451     452     453     454     428     429     430     443
     444     451     452     453     454     455     456     429     430     431
     443     451     452     453     454     455     456     457     458     430
     431     432     451     452     453     454     455     456     457     458
     431     432     433     441     453     454     455     456     457     458
     459     432     433     434     435     439     441     442     455     456
     457     458     459     460     468     433     434     435     436     438
     439     440     441     442     457     458     459     460     461     462
     466     468     469     434     435     436     437     438     439     441
     442     459     460     461     462     463     464     468     435     436
     438     441     459     460     461     462     436     437     438     439
     440     441     459     460     461     462     463     464     465     466
     437     438     439     460     462     463     464     465     438     462
     463     464     465     439     440     441     442     460     462     463
     464     466     467     468     440     441     442     459     462     466
     467     468     469     441     442     466     467     468     442     459
     460     466     467     468     469     459     466     468     469     444
     445     451     452       0     446     447     448       0     448     449
     449     450     476     475     476     501     452     453     454     453
     454     454     455     456     455     456     456     457     458     457
     458     458       0     460     468     461     462       0     463     464
     464     465     465       0     467     468       0     469       0     471
     472     473     474     478     481     482     498     472     473     474
     475     477     478     479     480     481     482     483     498     499
     504     506     507     473     474     475     476     477     478     479
     480     481     482     498     499     500     502     503     504     505
     531     474     475     477     478     479     480     481     498     504
     475     476     477     478     479     480     481     482     498     499
     500     501     502     503     504     476     477     478     479     480
     481     498     499     500     501     502     503     504     477     478
     480     498     500     501     502     503     478     479     480     498
     500     501     502     503     504     505     531     479     480     481
     498     500     502     503     504     505     530     531     556     502
     503     504     505     529     530     531     532     555     556     481
     498     499     500     482     483     484     498     499     506     507
     508     509     483     484     485     498     499     506     507     508
     509     510     511     484     485     486     498     506     507     508
     509     510     511     512     513     485     486     487     506     507
     508     509     510     511     512     513     486     487     488     496
     508     509     510     511     512     513     514     487     488     489
     490     494     496     497     510     511     512     513     514     515
     523     488     489     490     491     493     494     495     496     497
     512     513     514     515     516     517     521     523     524     489
     490     491     492     493     494     496     497     514     515     516
     517     518     519     523     490     491     493     496     514     515
     516     517     491     492     493     494     495     496     514     515
     516     517     518     519     520     521     492     493     494     515
     517     518     519     520     493     517     518     519     520     494
     495     496     497     515     517     518     519     521     522     523
     495     496     497     514     517     521     522     523     524     496
     497     521     522     523     497     514     515     521     522     523
     524     514     521     523     524     499     500     506     507       0
     501     502     503       0     503     504     504     505     531     530
     531     556     507     508     509     508     509     509     510     511
     510     511     511     512     513     512     513     513       0     515
     523     516     517       0     518     519     519     520     520       0
     522     523       0     524       0     526     527     528     529     533
     536     537     553     527     528     529     530     532     533     534
     535     536     537     538     553     554     559     561     562     528
     529     530     531     532     533     534     535     536     537     553
     554     555     557     558     559     560     580     529     530     532
     533     534     535     536     553     559     530     531     532     533
     534     535     536     537     553     554     555     556     557     558
     559     531     532     533     534     535     536     553     554     555
     556     557     558     559     532     533     535     553     555     556
     557     558     533     534     535     553     555     556     557     558
     559     560     580     534     535     536     553     555     557     558
     559     560     580     581     582     557     558     559     560     580
     581     582     536     553     554     555     537     538     539     553
     554     561     562     563     564     538     539     540     553     554
     561     562     563     564     565     566     539     540     541     553
     561     562     563     564     565     566     567     568     540     541
     542     561     562     563     564     565     566     567     568     541
     542     543     551     563     564     565     566     567     568     569
     542     543     544     545     549     551     552     565     566     567
     568     569     570     578     543     544     545     546     548     549
     550     551     552     567     568     569     570     571     572     576
     578     579     544     545     546     547     548     549     551     552
     569     570     571     572     573     574     578     545     546     548
     551     569     570     571     572     546     547     548     549     550
     551     569     570     571     572     573     574     575     576     547
     548     549     570     572     573     574     575     548     572     573
     574     575     549     550     551     552     570     572     573     574
     576     577     578     550     551     552     569     572     576     577
     578     579     551     552     576     577     578     552     569     570
     576     577     578     579     569     576     578     579     554     555
     561     562       0     556     557     558       0     558     559     559
     560     580     580     581     582     562     563     564     563     564
     564     565     566     565     566     566     567     568     567     568
     568       0     570     578     571     572       0     573     574     574
     575     575       0     577     578       0     579       0     581     582
     582       0     584     585     590     591     592     593     616     617
     585     591     592     617     591     592     617     587     588     589
     590     594     597     598     614     588     589     590     591     593
     594     595     596     597     598     599     614     615     620     622
     623     589     590     591     592     593     594     595     596     597
     598     614     615     616     618     619     620     621     647     590
     591     593     594     595     596     597     614     620     591     592
     593     594     595     596     597     598     614     615     616     617
     618     619     620     592     593     594     595     596     597     614
     615     616     617     618     619     620     593     594     596     614
     616     617     618     619     594     595     596     614     616     617
     618     619     620     621     647     595     596     597     614     616
     618     619     620     621     646     647     672     618     619     620
     621     645     646     647     648     671     672     597     614     615
     616     598     599     600     614     615     622     623     624     625
     599     600     601     614     615     622     623     624     625     626
     627     600     601     602     614     622     623     624     625     626
     627     628     629     601     602     603     622     623     624     625
     626     627     628     629     602     603     604     612     624     625
     626     627     628     629     630     603     604     605     606     610
     612     613     626     627     628     629     630     631     639     604
     605     606     607     609     610     611     612     613     628     629
     630     631     632     633     637     639     640     605     606     607
     608     609     610     612     613     630     631     632     633     634
     635     639     606     607     609     612     630     631     632     633
     607     608     609     610     611     612     630     631     632     633
     634     635     636     637     608     609     610     631     633     634
     635     636     609     633     634     635     636     610     611     612
     613     631     633     634     635     637     638     639     611     612
     613     630     633     637     638     639     640     612     613     637
     638     639     613     630     631     637     638     639     640     630
     637     639     640     615     616     622     623       0     617     618
     619       0     619     620     620     621     647     646     647     672
     623     624     625     624     625     625     626     627     626     627
     627     628     629     628     629     629       0     631     639     632
     633       0     634     635     635     636     636       0     638     639
       0     640       0     642     643     644     645     649     652     653
     669     643     644     645     646     648     649     650     651     652
     653     654     669     670     675     677     678     644     645     646
     647     648     649     650     651     652     653     669     670     671
     673     674     675     676     702     645     646     648     649     650
     651     652     669     675     646     647     648     649     650     651
     652     653     669     670     671     672     673     674     675     647
     648     649     650     651     652     669     670     671     672     673
     674     675     648     649     651     669     671     672     673     674
     649     650     651     669     671     672     673     674     675     676
     702     650     651     652     669     671     673     674     675     676
     701     702     727     673     674     675     676     700     701     702
     703     726     727     652     669     670     671     653     654     655
     669     670     677     678     679     680     654     655     656     669
     670     677     678     679     680     681     682     655     656     657
     669     677     678     679     680     681     682     683     684     656
     657     658     677     678     679     680     681     682     683     684
     657     658     659     667     679     680     681     682     683     684
     685     658     659     660     661     665     667     668     681     682
     683     684     685     686     694     659     660     661     662     664
     665     666     667     668     683     684     685     686     687     688
     692     694     695     660     661     662     663     664     665     667
     668     685     686     687     688     689     690     694     661     662
     664     667     685     686     687     688     662     663     664     665
     666     667     685     686     687     688     689     690     691     692
     663     664     665     686     688     689     690     691     664     688
     689     690     691     665     666     667     668     686     688     689
     690     692     693     694     666     667     668     685     688     692
     693     694     695     667     668     692     693     694     668     685
     686     692     693     694     695     685     692     694     695     670
     671     677     678       0     672     673     674       0     674     675
     675     676     702     701     702     727     678     679     680     679
     680     680     681     682     681     682     682     683     684     683
     684     684       0     686     694     687     688       0     689     690
     690     691     691       0     693     694       0     695       0     697
     698     699     700     704     707     708     724     698     699     700
     701     703     704     705     706     707     708     709     724     725
     730     732     733     699     700     701     702     703     704     705
     706     707     708     724     725     726     728     729     730     731
     757     700     701     703     704     705     706     707     724     730
     701     702     703     704     705     706     707     708     724     725
     726     727     728     729     730     702     703     704     705     706
     707     724     725     726     727     728     729     730     703     704
     706     724     726     727     728     729     704     705     706     724
     726     727     728     729     730     731     757     705     706     707
     724     726     728     729     730     731     756     757     782     728
     729     730     731     755     756     757     758     781     782     707
     724     725     726     708     709     710     724     725     732     733
     734     735     709     710     711     724     725     732     733     734
     735     736     737     710     711     712     724     732     733     734
     735     736     737     738     739     711     712     713     732     733
     734     735     736     737     738     739     712     713     714     722
     734     735     736     737     738     739     740     713     714     715
     716     720     722     723     736     737     738     739     740     741
     749     714     715     716     717     719     720     721     722     723
     738     739     740     741     742     743     747     749     750     715
     716     717     718     719     720     722     723     740     741     742
     743     744     745     749     716     717     719     722     740     741
     742     743     717     718     719     720     721     722     740     741
     742     743     744     745     746     747     718     719     720     741
     743     744     745     746     719     743     744     745     746     720
     721     722     723     741     743     744     745     747     748     749
     721     722     723     740     743     747     748     749     750     722
     723     747     748     749     723     740     741     747     748     749
     750     740     747     749     750     725     726     732     733       0
     727     728     729       0     729     730     730     731     757     756
     757     782     733     734     735     734     735     735     736     737
     736     737     737     738     739     738     739     739       0     741
     749     742     743       0     744     745     745     746     746       0
     748     749       0     750       0     752     753     754     755     759
     762     763     779     753     754     755     756     758     759     760
     761     762     763     764     779     780     785     787     788     754
     755     756     757     758     759     760     761     762     763     779
     780     781     783     784     785     786     812     755     756     758
     759     760     761     762     779     785     756     757     758     759
     760     761     762     763     779     780     781     782     783     784
     785     757     758     759     760     761     762     779     780     781
     782     783     784     785     758     759     761     779     781     782
     783     784     759     760     761     779     781     782     783     784
     785     786     812     760     761     762     779     781     783     784
     785     786     811     812     837     783     784     785     786     810
     811     812     813     836     837     762     779     780     781     763
     764     765     779     780     787     788     789     790     764     765
     766     779     780     787     788     789     790     791     792     765
     766     767     779     787     788     789     790     791     792     793
     794     766     767     768     787     788     789     790     791     792
     793     794     767     768     769     777     789     790     791     792
     793     794     795     768     769     770     771     775     777     778
     791     792     793     794     795     796     804     769     770     771
     772     774     775     776     777     778     793     794     795     796
     797     798     802     804     805     770     771     772     773     774
     775     777     778     795     796     797     798     799     800     804
     771     772     774     777     795     796     797     798     772     773
     774     775     776     777     795     796     797     798     799     800
     801     802     773     774     775     796     798     799     800     801
     774     798     799     800     801     775     776     777     778     796
     798     799     800     802     803     804     776     777     778     795
     798     802     803     804     805     777     778     802     803     804
     778     795     796     802     803     804     805     795     802     804
     805     780     781     787     788       0     782     783     784       0
     784     785     785     786     812     811     812     837     788     789
     790     789     790     790     791     792     791     792     792     793
     794     793     794     794       0     796     804     797     798       0
     799     800     800     801     801       0     803     804       0     805
       0     807     808     809     810     814     817     818     834     808
     809     810     811     813     814     815     816     817     818     819
     834     835     840     842     843     809     810     811     812     813
     814     815     816     817     818     834     835     836     838     839
     840     841     867     810     811     813     814     815     816     817
     834     840     811     812     813     814     815     816     817     818
     834     835     836     837     838     839     840     812     813     814
     815     816     817     834     835     836     837     838     839     840
     813     814     816     834     836     837     838     839     814     815
     816     834     836     837     838     839     840     841     867     815
     816     817     834     836     838     839     840     841     866     867
     892     838     839     840     841     865     866     867     868     891
     892     817     834     835     836     818     819     820     834     835
     842     843     844     845     819     820     821     834     835     842
     843     844     845     846     847     820     821     822     834     842
     843     844     845     846     847     848     849     821     822     823
     842     843     844     845     846     847     848     849     822     823
     824     832     844     845     846     847     848     849     850     823
     824     825     826     830     832     833     846     847     848     849
     850     851     859     824     825     826     827     829     830     831
     832     833     848     849     850     851     852     853     857     859
     860     825     826     827     828     829     830     832     833     850
     851     852     853     854     855     859     826     827     829     832
     850     851     852     853     827     828     829     830     831     832
     850     851     852     853     854     855     856     857     828     829
     830     851     853     854     855     856     829     853     854     855
     856     830     831     832     833     851     853     854     855     857
     858     859     831     832     833     850     853     857     858     859
     860     832     833     857     858     859     833     850     851     857
     858     859     860     850     857     859     860     835     836     842
     843       0     837     838     839       0     839     840     840     841
     867     866     867     892     843     844     845     844     845     845
     846     847     846     847     847     848     849     848     849     849
       0     851     859     852     853       0     854     855     855     856
     856       0     858     859       0     860       0     862     863     864
     865     869     872     873     889     863     864     865     866     868
     869     870     871     872     873     874     889     890     895     897
     898     864     865     866     867     868     869     870     871     872
     873     889     890     891     893     894     895     896     922     865
     866     868     869     870     871     872     889     895     866     867
     868     869     870     871     872     873     889     890     891     892
     893     894     895     867     868     869     870     871     872     889
     890     891     892     893     894     895     868     869     871     889
     891     892     893     894     869     870     871     889     891     892
     893     894     895     896     922     870     871     872     889     891
     893     894     895     896     921     922     947     893     894     895
     896     920     921     922     923     946     947     872     889     890
     891     873     874     875     889     890     897     898     899     900
     874     875     876     889     890     897     898     899     900     901
     902     875     876     877     889     897     898     899     900     901
     902     903     904     876     877     878     897     898     899     900
     901     902     903     904     877     878     879     887     899     900
     901     902     903     904     905     878     879     880     881     885
     887     888     901     902     903     904     905     906     914     879
     880     881     882     884     885     886     887     888     903     904
     905     906     907     908     912     914     915     880     881     882
     883     884     885     887     888     905     906     907     908     909
     910     914     881     882     884     887     905     906     907     908
     882     883     884     885     886     887     905     906     907     908
     909     910     911     912     883     884     885     906     908     909
     910     911     884     908     909     910     911     885     886     887
     888     906     908     909     910     912     913     914     886     887
     888     905     908     912     913     914     915     887     888     912
     913     914     888     905     906     912     913     914     915     905
     912     914     915     890     891     897     898       0     892     893
     894       0     894     895     895     896     922     921     922     947
     898     899     900     899     900     900     901     902     901     902
     902     903     904     903     904     904       0     906     914     907
     908       0     909     910     910     911     911       0     913     914
       0     915       0     917     918     919     920     924     927     928
     944     918     919     920     921     923     924     925     926     927
     928     929     944     945     950     952     953     919     920     921
     922     923     924     925     926     927     928     944     945     946
     948     949     950     951     977     920     921     923     924     925
     926     927     944     950     921     922     923     924     925     926
     927     928     944     945     946     947     948     949     950     922
     923     924     925     926     927     944     945     946     947     948
     949     950     923     924     926     944     946     947     948     949
     924     925     926     944     946     947     948     949     950     951
     977     925     926     927     944     946     948     949     950     951
     976     977    1002     948     949     950     951     975     976     977
     978    1001    1002     927     944     945     946     928     929     930
     944     945     952     953     954     955     929     930     931     944
     945     952     953     954     955     956     957     930     931     932
     944     952     953     954     955     956     957     958     959     931
     932     933     952     953     954     955     956     957     958     959
     932     933     934     942     954     955     956     957     958     959
     960     933     934     935     936     940     942     943     956     957
     958     959     960     961     969     934     935     936     937     939
     940     941     942     943     958     959     960     961     962     963
     967     969     970     935     936     937     938     939     940     942
     943     960     961     962     963     964     965     969     936     937
     939     942     960     961     962     963     937     938     939     940
     941     942     960     961     962     963     964     965     966     967
     938     939     940     961     963     964     965     966     939     963
     964     965     966     940     941     942     943     961     963     964
     965     967     968     969     941     942     943     960     963     967
     968     969     970     942     943     967     968     969     943     960
     961     967     968     969     970     960     967     969     970     945
     946     952     953       0     947     948     949       0     949     950
     950     951     977     976     977    1002     953     954     955     954
     955     955     956     957     956     957     957     958     959     958
     959     959       0     961     969     962     963       0     964     965
     965     966     966       0     968     969       0     970       0     972
     973     974     975     979     982     983     999     973     974     975
     976     978     979     980     981     982     983     984     999    1000
    1005    1007    1008     974     975     976     977     978     979     980
     981     982     983     999    1000    1001    1003    1004    1005    1006
    1032     975     976     978     979     980     981     982     999    1005
     976     977     978     979     980     981     982     983     999    1000
    1001    1002    1003    1004    1005     977     978     979     980     981
     982     999    1000    1001    1002    1003    1004    1005     978     979
     981     999    1001    1002    1003    1004     979     980     981     999
    1001    1002    1003    1004    1005    1006    1032     980     981     982
     999    1001    1003    1004    1005    1006    1031    1032    1057    1003
    1004    1005    1006    1030    1031    1032    1033    1056    1057     982
     999    1000    1001     983     984     985     999    1000    1007    1008
    1009    1010     984     985     986     999    1000    1007    1008    1009
    1010    1011    1012     985     986     987     999    1007    1008    1009
    1010    1011    1012    1013    1014     986     987     988    1007    1008
    1009    1010    1011    1012    1013    1014     987     988     989     997
    1009    1010    1011    1012    1013    1014    1015     988     989     990
     991     995     997     998    1011    1012    1013    1014    1015    1016
    1024     989     990     991     992     994     995     996     997     998
    1013    1014    1015    1016    1017    1018    1022    1024    1025     990
     991     992     993     994     995     997     998    1015    1016    1017
    1018    1019    1020    1024     991     992     994     997    1015    1016
    1017    1018     992     993     994     995     996     997    1015    1016
    1017    1018    1019    1020    1021    1022     993     994     995    1016
    1018    1019    1020    1021     994    1018    1019    1020    1021     995
     996     997     998    1016    1018    1019    1020    1022    1023    1024
     996     997     998    1015    1018    1022    1023    1024    1025     997
     998    1022    1023    1024     998    1015    1016    1022    1023    1024
    1025    1015    1022    1024    1025    1000    1001    1007    1008       0
    1002    1003    1004       0    1004    1005    1005    1006    1032    1031
    1032    1057    1008    1009    1010    1009    1010    1010    1011    1012
    1011    1012    1012    1013    1014    1013    1014    1014       0    1016
    1024    1017    1018       0    1019    1020    1020    1021    1021       0
    1023    1024       0    1025       0    1027    1028    1029    1030    1034
    1037    1038    1054    1028    1029    1030    1031    1033    1034    1035
    1036    1037    1038    1039    1054    1055    1060    1062    1063    1029
    1030    1031    1032    1033    1034    1035    1036    1037    1038    1054
    1055    1056    1058    1059    1060    1061    1087    1030    1031    1033
    1034    1035    1036    1037    1054    1060    1031    1032    1033    1034
    1035    1036    1037    1038    1054    1055    1056    1057    1058    1059
    1060    1032    1033    1034    1035    1036    1037    1054    1055    1056
    1057    1058    1059    1060    1033    1034    1036    1054    1056    1057
    1058    1059    1034    1035    1036    1054    1056    1057    1058    1059
    1060    1061    1087    1035    1036    1037    1054    1056    1058    1059
    1060    1061    1086    1087    1112    1058    1059    1060    1061    1085
    1086    1087    1088    1111    1112    1037    1054    1055    1056    1038
    1039    1040    1054    1055    1062    1063    1064    1065    1039    1040
    1041    1054    1055    1062    1063    1064    1065    1066    1067    1040
    1041    1042    1054    1062    1063    1064    1065    1066    1067    1068
    1069    1041    1042    1043    1062    1063    1064    1065    1066    1067
    1068    1069    1042    1043    1044    1052    1064    1065    1066    1067
    1068    1069    1070    1043    1044    1045    1046    1050    1052    1053
    1066    1067    1068    1069    1070    1071    1079    1044    1045    1046
    1047    1049    1050    1051    1052    1053    1068    1069    1070    1071
    1072    1073    1077    1079    1080    1045    1046    1047    1048    1049
    1050    1052    1053    1070    1071    1072    1073    1074    1075    1079
    1046    1047    1049    1052    1070    1071    1072    1073    1047    1048
    1049    1050    1051    1052    1070    1071    1072    1073    1074    1075
    1076    1077    1048    1049    1050    1071    1073    1074    1075    1076
    1049    1073    1074    1075    1076    1050    1051    1052    1053    1071
    1073    1074    1075    1077    1078    1079    1051    1052    1053    1070
    1073    1077    1078    1079    1080    1052    1053    1077    1078    1079
    1053    1070    1071    1077    1078    1079    1080    1070    1077    1079
    1080    1055    1056    1062    1063       0    1057    1058    1059       0
    1059    1060    1060    1061    1087    1086    1087    1112    1063    1064
    1065    1064    1065    1065    1066    1067    1066    1067    1067    1068
    1069    1068    1069    1069       0    1071    1079    1072    1073       0
    1074    1075    1075    1076    1076       0    1078    1079       0    1080
       0    1082    1083    1084    1085    1089    1092    1093    1109    1083
    1084    1085    1086    1088    1089    1090    1091    1092    1093    1094
    1109    1110    1115    1117    1118    1084    1085    1086    1087    1088
    1089    1090    1091    1092    1093    1109    1110    1111    1113    1114
    1115    1116    1136    1085    1086    1088    1089    1090    1091    1092
    1109    1115    1086    1087    1088    1089    1090    1091    1092    1093
    1109    1110    1111    1112    1113    1114    1115    1087    1088    1089
    1090    1091    1092    1109    1110    1111    1112    1113    1114    1115
    1088    1089    1091    1109    1111    1112    1113    1114    1089    1090
    1091    1109    1111    1112    1113    1114    1115    1116    1136    1090
    1091    1092    1109    1111    1113    1114    1115    1116    1136    1137
    1138    1113    1114    1115    1116    1136    1137    1138    1092    1109
    1110    1111    1093    1094    1095    1109    1110    1117    1118    1119
    1120    1094    1095    1096    1109    1110    1117    1118    1119    1120
    1121    1122    1095    1096    1097    1109    1117    1118    1119    1120
    1121    1122    1123    1124    1096    1097    1098    1117    1118    1119
    1120    1121    1122    1123    1124    1097    1098    1099    1107    1119
    1120    1121    1122    1123    1124    1125    1098    1099    1100    1101
    1105    1107    1108    1121    1122    1123    1124    1125    1126    1134
    1099    1100    1101    1102    1104    1105    1106    1107    1108    1123
    1124    1125    1126    1127    1128    1132    1134    1135    1100    1101
    1102    1103    1104    1105    1107    1108    1125    1126    1127    1128
    1129    1130    1134    1101    1102    1104    1107    1125    1126    1127
    1128    1102    1103    1104    1105    1106    1107    1125    1126    1127
    1128    1129    1130    1131    1132    1103    1104    1105    1126    1128
    1129    1130    1131    1104    1128    1129    1130    1131    1105    1106
    1107    1108    1126    1128    1129    1130    1132    1133    1134    1106
    1107    1108    1125    1128    1132    1133    1134    1135    1107    1108
    1132    1133    1134    1108    1125    1126    1132    1133    1134    1135
    1125    1132    1134    1135    1110    1111    1117    1118       0    1112
    1113    1114       0    1114    1115    1115    1116    1136    1136    1137
    1138    1118    1119    1120    1119    1120    1120    1121    1122    1121
    1122    1122    1123    1124    1123    1124    1124       0    1126    1134
    1127    1128       0    1129    1130    1130    1131    1131       0    1133
    1134       0    1135       0    1137    1138    1138       0    1140    1141
    1141       0    1143    1144    1144       0    1146    1147    1147       0
    1149    1150    1150       0    1152    1153    1153       0    1155    1156
    1156       0    1158    1159    1159       0    1161    1162    1162       0
    1164    1165    1165       0    1167    1168    1168       0    1170    1171
    1171       0    1173    1174    1174       0    1176    1177    1177       0
    1179    1180    1180       0    1182    1183    1183       0    1185    1186
    1186       0    1188    1189    1189       0    1191    1192    1192       0
    1194    1195    1195       0    1197    1198    1198       0    1200    1201
    1201       0    1203    1204    1204       0    1206    1207    1207       0
    1209    1210    1210       0    1212    1213    1213       0    1215    1216
    1216       0    1218    1219    1219       0    1221    1222    1222       0
    1224    1225    1225       0    1227    1228    1228       0    1230    1231
    1231       0    1233    1234    1234       0    1236    1237    1237       0
    1239    1240    1240       0    1242    1243    1243       0    1245    1246
    1246       0    1248    1249    1249       0    1251    1252    1252       0
    1254    1255    1255       0    1257    1258    1258       0    1260    1261
    1261       0    1263    1264    1264       0    1266    1267    1267       0
    1269    1270    1270       0    1272    1273    1273       0    1275    1276
    1276       0    1278    1279    1279       0    1281    1282    1282       0
    1284    1285    1285       0    1287    1288    1288       0    1290    1291
    1291       0    1293    1294    1294       0    1296    1297    1297       0
    1299    1300    1300       0    1302    1303    1303       0    1305    1306
    1306       0    1308    1309    1309       0    1311    1312    1312       0
    1314    1315    1315       0    1317    1318    1318       0    1320    1321
    1321       0    1323    1324    1324       0    1326    1327    1327       0
    1329    1330    1330       0    1332    1333    1333       0    1335    1336
    1336       0    1338    1339    1339       0    1341    1342    1342       0
    1344    1345    1345       0    1347    1348    1348       0    1350    1351
    1351       0    1353    1354    1354       0    1356    1357    1357       0
    1359    1360    1360       0    1362    1363    1363       0    1365    1366
    1366       0    1368    1369    1369       0    1371    1372    1372       0
    1374    1375    1375       0    1377    1378    1378       0    1380    1381
    1381       0    1383    1384    1384       0    1386    1387    1387       0
    1389    1390    1390       0    1392    1393    1393       0    1395    1396
    1396       0    1398    1399    1399       0    1401    1402    1402       0
    1404    1405    1405       0    1407    1408    1408       0    1410    1411
    1411       0    1413    1414    1414       0    1416    1417    1417       0
    1419    1420    1420       0    1422    1423    1423       0    1425    1426
    1426       0    1428    1429    1429       0    1431    1432    1432       0
    1434    1435    1435       0    1437    1438    1438       0    1440    1441
    1441       0    1443    1444    1444       0    1446    1447    1447       0
    1449    1450    1450       0    1452    1453    1453       0    1455    1456
    1456       0    1458    1459    1459       0    1461    1462    1462       0
    1464    1465    1465       0    1467    1468    1468       0    1470    1471
    1471       0    1473    1474    1474       0    1476    1477    1477       0
    1479    1480    1480       0    1482    1483    1483       0    1485    1486
    1486       0    1488    1489    1489       0    1491    1492    1492       0
    1494    1495    1495       0    1497    1498    1498       0    1500    1501
    1501       0    1503    1504    1504       0    1506    1507    1507       0
    1509    1510    1510       0    1512    1513    1513       0    1515    1516
    1516       0    1518    1519    1519       0    1521    1522    1522       0
    1524    1525    1525       0    1527    1528    1528       0    1530    1531
    1531       0    1533    1534    1534       0    1536    1537    1537       0
    1539    1540    1540       0    1542    1543    1543       0    1545    1546
    1546       0    1548    1549    1549       0    1551    1552    1552       0
    1554    1555    1555       0    1557    1558    1558       0    1560    1561
    1561       0    1563    1564    1564       0    1566    1567    1567       0
    1569    1570    1570       0    1572    1573    1573       0    1575    1576
    1576       0    1578    1579    1579       0    1581    1582    1582       0
    1584    1585    1585       0    1587    1588    1588       0    1590    1591
    1591       0    1593    1594    1594       0    1596    1597    1597       0
    1599    1600    1600       0    1602    1603    1603       0    1605    1606
    1606       0    1608    1609    1609       0    1611    1612    1612       0
    1614    1615    1615       0    1617    1618    1618       0    1620    1621
    1621       0    1623    1624    1624       0    1626    1627    1627       0
    1629    1630    1630       0    1632    1633    1633       0    1635    1636
    1636       0    1638    1639    1639       0    1641    1642    1642       0
    1644    1645    1645       0    1647    1648    1648       0    1650    1651
    1651       0    1653    1654    1654       0    1656    1657    1657       0
    1659    1660    1660       0    1662    1663    1663       0    1665    1666
    1666       0    1668    1669    1669       0    1671    1672    1672       0
    1674    1675    1675       0    1677    1678    1678       0    1680    1681
    1681       0    1683    1684    1684       0    1686    1687    1687       0
    1689    1690    1690       0    1692    1693    1693       0    1695    1696
    1696       0    1698    1699    1699       0    1701    1702    1702       0
    1704    1705    1705       0    1707    1708    1708       0    1710    1711
    1711       0    1713    1714    1714       0    1716    1717    1717       0
    1719    1720    1720       0    1722    1723    1723       0    1725    1726
    1726       0    1728    1729    1729       0    1731    1732    1732       0
    1734    1735    1735       0    1737    1738    1738       0    1740    1741
    1741       0    1743    1744    1744       0    1746    1747    1747       0
    1749    1750    1750       0    1752    1753    1753       0    1755    1756
    1756       0    1758    1759    1759       0    1761    1762    1762       0
    1764    1765    1765       0    1767    1768    1768       0    1770    1771
    1771       0    1773    1774    1774       0    1776    1777    1777       0
    1779    1780    1780       0    1782    1783    1783       0    1785    1786
    1786       0    1788    1789    1789       0    1791    1792    1792       0
    1794    1795    1795       0    1797    1798    1798       0    1800    1801
    1801       0    1803    1804    1804       0    1806    1807    1807       0
    1809    1810    1810       0    1812    1813    1813       0    1815    1816
    1816       0    1818    1819    1819       0    1821    1822    1822       0
    1824    1825    1825       0    1827    1828    1828       0    1830    1831
    1831       0    1833    1834    1834       0    1836    1837    1837       0
    1839    1840    1840       0    1842    1843    1843       0    1845    1846
    1846       0    1848    1849    1849       0    1851    1852    1852       0
    1854    1855    1855       0    1857    1858    1858       0    1860    1861
    1861       0    1863    1864    1864       0    1866    1867    1867       0
    1869    1870    1870       0    1872    1873    1873       0    1875    1876
    1876       0    1878    1879    1879       0    1881    1882    1882       0
    1884    1885    1885       0    1887    1888    1888       0    1890    1891
    1891       0    1893    1894    1894       0    1896    1897    1897       0
    1899    1900    1900       0    1902    1903    1903       0    1905    1906
    1906       0    1908    1909    1909       0    1911    1912    1912       0
    1914    1915    1915       0    1917    1918    1918       0    1920    1921
    1921       0    1923    1924    1924       0    1926    1927    1927       0
    1929    1930    1930       0    1932    1933    1933       0    1935    1936
    1936       0    1938    1939    1939       0    1941    1942    1942       0
    1944    1945    1945       0    1947    1948    1948       0    1950    1951
    1951       0    1953    1954    1954       0    1956    1957    1957       0
    1959    1960    1960       0    1962    1963    1963       0    1965    1966
    1966       0    1968    1969    1969       0    1971    1972    1972       0
    1974    1975    1975       0    1977    1978    1978       0    1980    1981
    1981       0    1983    1984    1984       0    1986    1987    1987       0
    1989    1990    1990       0    1992    1993    1993       0    1995    1996
    1996       0    1998    1999    1999       0    2001    2002    2002       0
    2004    2005    2005       0    2007    2008    2008       0    2010    2011
    2011       0    2013    2014    2014       0    2016    2017    2017       0
    2019    2020    2020       0    2022    2023    2023       0    2025    2026
    2026       0    2028    2029    2029       0    2031    2032    2032       0
    2034    2035    2035       0    2037    2038    2038       0    2040    2041
    2041       0    2043    2044    2044       0    2046    2047    2047       0
    2049    2050    2050       0    2052    2053    2053       0    2055    2056
    2056       0    2058    2059    2059       0    2061    2062    2062       0
    2064    2065    2065       0    2067    2068    2068       0    2070    2071
    2071       0    2073    2074    2074       0    2076    2077    2077       0
    2079    2080    2080       0    2082    2083    2083       0    2085    2086
    2086       0    2088    2089    2089       0    2091    2092    2092       0
    2094    2095    2095       0    2097    2098    2098       0    2100    2101
    2101       0    2103    2104    2104       0    2106    2107    2107       0
    2109    2110    2110       0    2112    2113    2113       0    2115    2116
    2116       0    2118    2119    2119       0    2121    2122    2122       0
    2124    2125    2125       0    2127    2128    2128       0    2130    2131
    2131       0    2133    2134    2134       0    2136    2137    2137       0
    2139    2140    2140       0    2142    2143    2143       0    2145    2146
    2146       0    2148    2149    2149       0    2151    2152    2152       0
    2154    2155    2155       0    2157    2158    2158       0    2160    2161
    2161       0    2163    2164    2164       0    2166    2167    2167       0
    2169    2170    2170       0    2172    2173    2173       0    2175    2176
    2176       0    2178    2179    2179       0    2181    2182    2182       0
    2184    2185    2185       0    2187    2188    2188       0    2190    2191
    2191       0    2193    2194    2194       0    2196    2197    2197       0
    2199    2200    2200       0    2202    2203    2203       0    2205    2206
    2206       0    2208    2209    2209       0    2211    2212    2212       0
    2214    2215    2215       0    2217    2218    2218       0    2220    2221
    2221       0    2223    2224    2224       0    2226    2227    2227       0
    2229    2230    2230       0    2232    2233    2233       0    2235    2236
    2236       0    2238    2239    2239       0    2241    2242    2242       0
    2244    2245    2245       0    2247    2248    2248       0    2250    2251
    2251       0    2253    2254    2254       0    2256    2257    2257       0
    2259    2260    2260       0    2262    2263    2263       0    2265    2266
    2266       0    2268    2269    2269       0    2271    2272    2272       0
    2274    2275    2275       0    2277    2278    2278       0    2280    2281
    2281       0    2283    2284    2284       0    2286    2287    2287       0
    2289    2290    2290       0    2292    2293    2293       0    2295    2296
    2296       0    2298    2299    2299       0    2301    2302    2302       0
    2304    2305    2305       0    2307    2308    2308       0    2310    2311
    2311       0    2313    2314    2314       0    2316    2317    2317       0
    2319    2320    2320       0    2322    2323    2323       0    2325    2326
    2326       0    2328    2329    2329       0    2331    2332    2332       0
    2334    2335    2335       0    2337    2338    2338       0    2340    2341
    2341       0    2343    2344    2344       0    2346    2347    2347       0
    2349    2350    2350       0    2352    2353    2353       0    2355    2356
    2356       0    2358    2359    2359       0    2361    2362    2362       0
    2364    2365    2365       0    2367    2368    2368       0    2370    2371
    2371       0    2373    2374    2374       0    2376    2377    2377       0
    2379    2380    2380       0    2382    2383    2383       0    2385    2386
    2386       0    2388    2389    2389       0    2391    2392    2392       0
    2394    2395    2395       0    2397    2398    2398       0    2400    2401
    2401       0    2403    2404    2404       0    2406    2407    2407       0
    2409    2410    2410       0    2412    2413    2413       0    2415    2416
    2416       0    2418    2419    2419       0    2421    2422    2422       0
    2424    2425    2425       0    2427    2428    2428       0    2430    2431
    2431       0    2433    2434    2434       0    2436    2437    2437       0
    2439    2440    2440       0    2442    2443    2443       0    2445    2446
    2446       0    2448    2449    2449       0    2451    2452    2452       0
    2454    2455    2455       0    2457    2458    2458       0    2460    2461
    2461       0    2463    2464    2464       0    2466    2467    2467       0
    2469    2470    2470       0    2472    2473    2473       0    2475    2476
    2476       0    2478    2479    2479       0    2481    2482    2482       0
    2484    2485    2485       0    2487    2488    2488       0    2490    2491
    2491       0    2493    2494    2494       0    2496    2497    2497       0
    2499    2500    2500       0    2502    2503    2503       0    2505    2506
    2506       0    2508    2509    2509       0    2511    2512    2512       0
    2514    2515    2515       0    2517    2518    2518       0    2520    2521
    2521       0    2523    2524    2524       0    2526    2527    2527       0
    2529    2530    2530       0    2532    2533    2533       0    2535    2536
    2536       0    2538    2539    2539       0    2541    2542    2542       0
    2544    2545    2545       0    2547    2548    2548       0    2550    2551
    2551       0    2553    2554    2554       0    2556    2557    2557       0
    2559    2560    2560       0    2562    2563    2563       0    2565    2566
    2566       0    2568    2569    2569       0    2571    2572    2572       0
    2574    2575    2575       0    2577    2578    2578       0    2580    2581
    2581       0    2583    2584    2584       0    2586    2587    2587       0
    2589    2590    2590       0    2592    2593    2593       0    2595    2596
    2596       0    2598    2599    2599       0    2601    2602    2602       0
    2604    2605    2605       0    2607    2608    2608       0    2610    2611
    2611       0    2613    2614    2614       0    2616    2617    2617       0
    2619    2620    2620       0    2622    2623    2623       0    2625    2626
    2626       0    2628    2629    2629       0    2631    2632    2632       0
    2634    2635    2635       0    2637    2638    2638       0    2640    2641
    2641       0    2643    2644    2644       0    2646    2647    2647       0
    2649    2650    2650       0    2652    2653    2653       0    2655    2656
    2656       0    2658    2659    2659       0    2661    2662    2662       0
    2664    2665    2665       0    2667    2668    2668       0    2670    2671
    2671       0    2673    2674    2674       0    2676    2677    2677       0
    2679    2680    2680       0    2682    2683    2683       0    2685    2686
    2686       0    2688    2689    2689       0    2691    2692    2692       0
    2694    2695    2695       0    2697    2698    2698       0    2700    2701
    2701       0    2703    2704    2704       0    2706    2707    2707       0
    2709    2710    2710       0    2712    2713    2713       0    2715    2716
    2716       0    2718    2719    2719       0    2721    2722    2722       0
    2724    2725    2725       0    2727    2728    2728       0    2730    2731
    2731       0    2733    2734    2734       0    2736    2737    2737       0
    2739    2740    2740       0    2742    2743    2743       0    2745    2746
    2746       0    2748    2749    2749       0    2751    2752    2752       0
    2754    2755    2755       0    2757    2758    2758       0    2760    2761
    2761       0    2763    2764    2764       0    2766    2767    2767       0
    2769    2770    2770       0    2772    2773    2773       0    2775    2776
    2776       0    2778    2779    2779       0    2781    2782    2782       0
    2784    2785    2785       0    2787    2788    2788       0    2790    2791
    2791       0    2793    2794    2794       0    2796    2797    2797       0
    2799    2800    2800       0    2802    2803    2803       0    2805    2806
    2806       0    2808    2809    2809       0    2811    2812    2812       0
    2814    2815    2815       0    2817    2818    2818       0    2820    2821
    2821       0    2823    2824    2824       0    2826    2827    2827       0
    2829    2830    2830       0    2832    2833    2833       0    2835    2836
    2836       0    2838    2839    2839       0    2841    2842    2842       0
    2844    2845    2845       0    2847    2848    2848       0    2850    2851
    2851       0    2853    2854    2854       0    2856    2857    2857       0
    2859    2860    2860       0    2862    2863    2863       0    2865    2866
    2866       0    2868    2869    2869       0    2871    2872    2872       0
    2874    2875    2875       0    2877    2878    2878       0    2880    2881
    2881       0    2883    2884    2884       0    2886    2887    2887       0
    2889    2890    2890       0    2892    2893    2893       0    2895    2896
    2896       0    2898    2899    2899       0    2901    2902    2902       0
    2904    2905    2905       0    2907    2908    2908       0    2910    2911
    2911       0    2913    2914    2914       0    2916    2917    2917       0
    2919    2920    2920       0    2922    2923    2923       0    2925    2926
    2926       0    2928    2929    2929       0    2931    2932    2932       0
    2934    2935    2935       0    2937    2938    2938       0    2940    2941
    2941       0    2943    2944    2944       0    2946    2947    2947       0
    2949    2950    2950       0    2952    2953    2953       0    2955    2956
    2956       0    2958    2959    2959       0    2961    2962    2962       0
    2964    2965    2965       0    2967    2968    2968       0    2970    2971
    2971       0    2973    2974    2974       0    2976    2977    2977       0
    2979    2980    2980       0    2982    2983    2983       0    2985    2986
    2986       0    2988    2989    2989       0    2991    2992    2992       0
    2994    2995    2995       0    2997    2998    2998       0    3000    3001
    3001       0    3003    3004    3004       0    3006    3007    3007       0
    3009    3010    3010       0    3012    3013    3013       0    3015    3016
    3016       0    3018    3019    3019       0    3021    3022    3022       0
    3024    3025    3025       0    3027    3028    3028       0    3030    3031
    3031       0    3033    3034    3034       0    3036    3037    3037       0
    3039    3040    3040       0    3042    3043    3043       0    3045    3046
    3046       0    3048    3049    3049       0    3051    3052    3052       0
    3054    3055    3055       0    3057    3058    3058       0    3060    3061
    3061       0    3063    3064    3064       0    3066    3067    3067       0
    3069    3070    3070       0    3072    3073    3073       0    3075    3076
    3076       0    3078    3079    3079       0    3081    3082    3082       0
    3084    3085    3085       0    3087    3088    3088       0    3090    3091
    3091       0    3093    3094    3094       0    3096    3097    3097       0
    3099    3100    3100       0    3102    3103    3103       0    3105    3106
    3106       0    3108    3109    3109       0    3111    3112    3112       0
    3114    3115    3115       0    3117    3118    3118       0    3120    3121
    3121       0    3123    3124    3124       0    3126    3127    3127       0
    3129    3130    3130       0    3132    3133    3133       0    3135    3136
    3136       0    3138    3139    3139       0    3141    3142    3142       0
    3144    3145    3145       0    3147    3148    3148       0    3150    3151
    3151       0    3153    3154    3154       0    3156    3157    3157       0
    3159    3160    3160       0    3162    3163    3163       0    3165    3166
    3166       0    3168    3169    3169       0    3171    3172    3172       0
    3174    3175    3175       0    3177    3178    3178       0    3180    3181
    3181       0    3183    3184    3184       0    3186    3187    3187       0
    3189    3190    3190       0    3192    3193    3193       0    3195    3196
    3196       0    3198    3199    3199       0    3201    3202    3202       0
    3204    3205    3205       0    3207    3208    3208       0    3210    3211
    3211       0    3213    3214    3214       0    3216    3217    3217       0
    3219    3220    3220       0    3222    3223    3223       0    3225    3226
    3226       0    3228    3229    3229       0    3231    3232    3232       0
    3234    3235    3235       0    3237    3238    3238       0    3240    3241
    3241       0    3243    3244    3244       0    3246    3247    3247       0
    3249    3250    3250       0    3252    3253    3253       0    3255    3256
    3256       0    3258    3259    3259       0    3261    3262    3262       0
    3264    3265    3265       0    3267    3268    3268       0    3270    3271
    3271       0    3273    3274    3274       0    3276    3277    3277       0
    3279    3280    3280       0    3282    3283    3283       0    3285    3286
    3286       0    3288    3289    3289       0    3291    3292    3292       0
    3294    3295    3295       0    3297    3298    3298       0    3300    3301
    3301       0    3303    3304    3304       0    3306    3307    3307       0
    3309    3310    3310       0    3312    3313    3313       0    3315    3316
    3316       0    3318    3319    3319       0    3321    3322    3322       0
    3324    3325    3325       0    3327    3328    3328       0    3330    3331
    3331       0    3333    3334    3334       0    3336    3337    3337       0
    3339    3340    3340       0    3342    3343    3343       0    3345    3346
    3346       0    3348    3349    3349       0    3351    3352    3352       0
    3354    3355    3355       0    3357    3358    3358       0    3360    3361
    3361       0    3363    3364    3364       0    3366    3367    3367       0
    3369    3370    3370       0    3372    3373    3373       0    3375    3376
    3376       0    3378    3379    3379       0    3381    3382    3382       0
    3384    3385    3385       0    3387    3388    3388       0    3390    3391
    3391       0    3393    3394    3394       0    3396    3397    3397       0
    3399    3400    3400       0    3402    3403    3403       0    3405    3406
    3406       0    3408    3409    3409       0    3411    3412    3412       0
    3414    3415    3415       0    3417    3418    3418       0    3420    3421
    3421       0    3423    3424    3424       0    3426    3427    3427       0
    3429    3430    3430       0    3432    3433    3433       0    3435    3436
    3436       0    3438    3439    3439       0    3441    3442    3442       0
    3444    3445    3445       0    3447    3448    3448       0    3450    3451
    3451       0    3453    3454    3454       0    3456    3457    3457       0
    3459    3460    3460       0    3462    3463    3463       0    3465    3466
    3466       0    3468    3469    3469       0    3471    3472    3472       0
    3474    3475    3475       0    3477    3478    3478       0    3480    3481
    3481       0    3483    3484    3484       0    3486    3487    3487       0
    3489    3490    3490       0    3492    3493    3493       0    3495    3496
    3496       0    3498    3499    3499       0    3501    3502    3502       0
    3504    3505    3505       0    3507    3508    3508       0    3510    3511
    3511       0    3513    3514    3514       0    3516    3517    3517       0
    3519    3520    3520       0    3522    3523    3523       0    3525    3526
    3526       0    3528    3529    3529       0    3531    3532    3532       0
    3534    3535    3535       0    3537    3538    3538       0    3540    3541
    3541       0    3543    3544    3544       0    3546    3547    3547       0
    3549    3550    3550       0    3552    3553    3553       0    3555    3556
    3556       0    3558    3559    3559       0    3561    3562    3562       0
    3564    3565    3565       0    3567    3568    3568       0    3570    3571
    3571       0    3573    3574    3574       0    3576    3577    3577       0
    3579    3580    3580       0    3582    3583    3583       0    3585    3586
    3586       0    3588    3589    3589       0    3591    3592    3592       0
    3594    3595    3595       0    3597    3598    3598       0    3600    3601
    3601       0    3603    3604    3604       0    3606    3607    3607       0
    3609    3610    3610       0    3612    3613    3613       0    3615    3616
    3616       0    3618    3619    3619       0    3621    3622    3622       0
    3624    3625    3625       0    3627    3628    3628       0    3630    3631
    3631       0    3633    3634    3634       0    3636    3637    3637       0
    3639    3640    3640       0    3642    3643    3643       0    3645    3646
    3646       0    3648    3649    3649       0    3651    3652    3652       0
    3654    3655    3655       0    3657    3658    3658       0    3660    3661
    3661       0    3663    3664    3664       0    3666    3667    3667       0
    3669    3670    3670       0    3672    3673    3673       0    3675    3676
    3676       0    3678    3679    3679       0    3681    3682    3682       0
    3684    3685    3685       0    3687    3688    3688       0    3690    3691
    3691       0    3693    3694    3694       0    3696    3697    3697       0
    3699    3700    3700       0    3702    3703    3703       0    3705    3706
    3706       0    3708    3709    3709       0    3711    3712    3712       0
    3714    3715    3715       0    3717    3718    3718       0    3720    3721
    3721       0    3723    3724    3724       0    3726    3727    3727       0
    3729    3730    3730       0    3732    3733    3733       0    3735    3736
    3736       0    3738    3739    3739       0    3741    3742    3742       0
    3744    3745    3745       0    3747    3748    3748       0    3750    3751
    3751       0    3753    3754    3754       0    3756    3757    3757       0
    3759    3760    3760       0    3762    3763    3763       0    3765    3766
    3766       0    3768    3769    3769       0    3771    3772    3772       0
    3774    3775    3775       0    3777    3778    3778       0    3780    3781
    3781       0    3783    3784    3784       0    3786    3787    3787       0
    3789    3790    3790       0    3792    3793    3793       0    3795    3796
    3796       0    3798    3799    3799       0    3801    3802    3802       0
    3804    3805    3805       0    3807    3808    3808       0    3810    3811
    3811       0    3813    3814    3814       0    3816    3817    3817       0
    3819    3820    3820       0    3822    3823    3823       0    3825    3826
    3826       0    3828    3829    3829       0    3831    3832    3832       0
    3834    3835    3835       0    3837    3838    3838       0    3840    3841
    3841       0    3843    3844    3844       0    3846    3847    3847       0
    3849    3850    3850       0    3852    3853    3853       0    3855    3856
    3856       0    3858    3859    3859       0    3861    3862    3862       0
    3864    3865    3865       0    3867    3868    3868       0    3870    3871
    3871       0    3873    3874    3874       0    3876    3877    3877       0
    3879    3880    3880       0    3882    3883    3883       0    3885    3886
    3886       0    3888    3889    3889       0    3891    3892    3892       0
    3894    3895    3895       0    3897    3898    3898       0    3900    3901
    3901       0    3903    3904    3904       0    3906    3907    3907       0
    3909    3910    3910       0    3912    3913    3913       0    3915    3916
    3916       0    3918    3919    3919       0    3921    3922    3922       0
    3924    3925    3925       0    3927    3928    3928       0    3930    3931
    3931       0    3933    3934    3934       0    3936    3937    3937       0
    3939    3940    3940       0    3942    3943    3943       0    3945    3946
    3946       0    3948    3949    3949       0    3951    3952    3952       0
    3954    3955    3955       0    3957    3958    3958       0    3960    3961
    3961       0    3963    3964    3964       0    3966    3967    3967       0
    3969    3970    3970       0    3972    3973    3973       0    3975    3976
    3976       0    3978    3979    3979       0    3981    3982    3982       0
    3984    3985    3985       0    3987    3988    3988       0    3990    3991
    3991       0    3993    3994    3994       0    3996    3997    3997       0
    3999    4000    4000       0    4002    4003    4003       0    4005    4006
    4006       0    4008    4009    4009       0    4011    4012    4012       0
    4014    4015    4015       0    4017    4018    4018       0    4020    4021
    4021       0    4023    4024    4024       0    4026    4027    4027       0
    4029    4030    4030       0    4032    4033    4033       0    4035    4036
    4036       0    4038    4039    4039       0    4041    4042    4042       0
    4044    4045    4045       0    4047    4048    4048       0    4050    4051
    4051       0    4053    4054    4054       0    4056    4057    4057       0
    4059    4060    4060       0    4062    4063    4063       0    4065    4066
    4066       0    4068    4069    4069       0    4071    4072    4072       0
    4074    4075    4075       0    4077    4078    4078       0    4080    4081
    4081       0    4083    4084    4084       0    4086    4087    4087       0
    4089    4090    4090       0    4092    4093    4093       0    4095    4096
    4096       0    4098    4099    4099       0    4101    4102    4102       0
    4104    4105    4105       0    4107    4108    4108       0    4110    4111
    4111       0    4113    4114    4114       0    4116    4117    4117       0
    4119    4120    4120       0    4122    4123    4123       0    4125    4126
    4126       0    4128    4129    4129       0    4131    4132    4132       0
    4134    4135    4135       0    4137    4138    4138       0    4140    4141
    4141       0    4143    4144    4144       0    4146    4147    4147       0
    4149    4150    4150       0    4152    4153    4153       0    4155    4156
    4156       0    4158    4159    4159       0    4161    4162    4162       0
    4164    4165    4165       0    4167    4168    4168       0    4170    4171
    4171       0    4173    4174    4174       0    4176    4177    4177       0
    4179    4180    4180       0    4182    4183    4183       0    4185    4186
    4186       0    4188    4189    4189       0    4191    4192    4192       0
    4194    4195    4195       0    4197    4198    4198       0    4200    4201
    4201       0    4203    4204    4204       0    4206    4207    4207       0
    4209    4210    4210       0    4212    4213    4213       0    4215    4216
    4216       0    4218    4219    4219       0    4221    4222    4222       0
    4224    4225    4225       0    4227    4228    4228       0    4230    4231
    4231       0    4233    4234    4234       0    4236    4237    4237       0
    4239    4240    4240       0    4242    4243    4243       0    4245    4246
    4246       0    4248    4249    4249       0    4251    4252    4252       0
    4254    4255    4255       0    4257    4258    4258       0    4260    4261
    4261       0    4263    4264    4264       0    4266    4267    4267       0
    4269    4270    4270       0    4272    4273    4273       0    4275    4276
    4276       0    4278    4279    4279       0    4281    4282    4282       0
    4284    4285    4285       0    4287    4288    4288       0    4290    4291
    4291       0    4293    4294    4294       0    4296    4297    4297       0
    4299    4300    4300       0    4302    4303    4303       0    4305    4306
    4306       0    4308    4309    4309       0    4311    4312    4312       0
    4314    4315    4315       0    4317    4318    4318       0    4320    4321
    4321       0    4323    4324    4324       0    4326    4327    4327       0
    4329    4330    4330       0    4332    4333    4333       0    4335    4336
    4336       0    4338    4339    4339       0    4341    4342    4342       0
    4344    4345    4345       0    4347    4348    4348       0    4350    4351
    4351       0    4353    4354    4354       0    4356    4357    4357       0
    4359    4360    4360       0    4362    4363    4363       0    4365    4366
    4366       0    4368    4369    4369       0    4371    4372    4372       0
    4374    4375    4375       0    4377    4378    4378       0    4380    4381
    4381       0    4383    4384    4384       0    4386    4387    4387       0
    4389    4390    4390       0    4392    4393    4393       0    4395    4396
    4396       0    4398    4399    4399       0    4401    4402    4402       0
    4404    4405    4405       0    4407    4408    4408       0    4410    4411
    4411       0    4413    4414    4414       0    4416    4417    4417       0
    4419    4420    4420       0    4422    4423    4423       0    4425    4426
    4426       0    4428    4429    4429       0    4431    4432    4432       0
    4434    4435    4435       0    4437    4438    4438       0    4440    4441
    4441       0    4443    4444    4444       0    4446    4447    4447       0
    4449    4450    4450       0    4452    4453    4453       0    4455    4456
    4456       0    4458    4459    4459       0    4461    4462    4462       0
    4464    4465    4465       0    4467    4468    4468       0    4470    4471
    4471       0    4473    4474    4474       0    4476    4477    4477       0
    4479    4480    4480       0    4482    4483    4483       0    4485    4486
    4486       0    4488    4489    4489       0    4491    4492    4492       0
    4494    4495    4495       0    4497    4498    4498       0    4500    4501
    4501       0    4503    4504    4504       0    4506    4507    4507       0
    4509    4510    4510       0    4512    4513    4513       0    4515    4516
    4516       0    4518    4519    4519       0    4521    4522    4522       0
    4524    4525    4525       0    4527    4528    4528       0    4530    4531
    4531       0    4533    4534    4534       0    4536    4537    4537       0
    4539    4540    4540       0    4542    4543    4543       0    4545    4546
    4546       0    4548    4549    4549       0    4551    4552    4552       0
    4554    4555    4555       0    4557    4558    4558       0    4560    4561
    4561       0    4563    4564    4564       0    4566    4567    4567       0
    4569    4570    4570       0    4572    4573    4573       0    4575    4576
    4576       0    4578    4579    4579       0    4581    4582    4582       0
    4584    4585    4585       0    4587    4588    4588       0    4590    4591
    4591       0    4593    4594    4594       0    4596    4597    4597       0
    4599    4600    4600       0    4602    4603    4603       0    4605    4606
    4606       0    4608    4609    4609       0    4611    4612    4612       0
    4614    4615    4615       0    4617    4618    4618       0    4620    4621
    4621       0    4623    4624    4624       0    4626    4627    4627       0
    4629    4630    4630       0    4632    4633    4633       0    4635    4636
    4636       0    4638    4639    4639       0    4641    4642    4642       0
    4644    4645    4645       0    4647    4648    4648       0    4650    4651
    4651       0    4653    4654    4654       0    4656    4657    4657       0
    4659    4660    4660       0    4662    4663    4663       0    4665    4666
    4666       0    4668    4669    4669       0    4671    4672    4672       0
    4674    4675    4675       0    4677    4678    4678       0    4680    4681
    4681       0    4683    4684    4684       0    4686    4687    4687       0
    4689    4690    4690       0    4692    4693    4693       0    4695    4696
    4696       0    4698    4699    4699       0    4701    4702    4702       0
    4704    4705    4705       0    4707    4708    4708       0    4710    4711
    4711       0    4713    4714    4714       0    4716    4717    4717       0
    4719    4720    4720       0    4722    4723    4723       0    4725    4726
    4726       0    4728    4729    4729       0    4731    4732    4732       0
    4734    4735    4735       0    4737    4738    4738       0    4740    4741
    4741       0    4743    4744    4744       0    4746    4747    4747       0
    4749    4750    4750       0    4752    4753    4753       0    4755    4756
    4756       0    4758    4759    4759       0    4761    4762    4762       0
    4764    4765    4765       0    4767    4768    4768       0    4770    4771
    4771       0    4773    4774    4774       0    4776    4777    4777       0
    4779    4780    4780       0    4782    4783    4783       0    4785    4786
    4786       0    4788    4789    4789       0    4791    4792    4792       0
    4794    4795    4795       0    4797    4798    4798       0    4800    4801
    4801       0    4803    4804    4804       0    4806    4807    4807       0
    4809    4810    4810       0    4812    4813    4813       0    4815    4816
    4816       0    4818    4819    4819       0    4821    4822    4822       0
    4824    4825    4825       0    4827    4828    4828       0    4830    4831
    4831       0    4833    4834    4834       0    4836    4837    4837       0
    4839    4840    4840       0    4842    4843    4843       0    4845    4846
    4846       0    4848    4849    4849       0    4851    4852    4852       0
    4854    4855    4855       0    4857    4858    4858       0    4860    4861
    4861       0    4863    4864    4864       0    4866    4867    4867       0
    4869    4870    4870       0    4872    4873    4873       0    4875    4876
    4876       0    4878    4879    4879       0    4881    4882    4882       0
    4884    4885    4885       0    4887    4888    4888       0    4890    4891
    4891       0    4893    4894    4894       0    4896    4897    4897       0
    4899    4900    4900       0    4902    4903    4903       0    4905    4906
    4906       0    4908    4909    4909       0    4911    4912    4912       0
    4914    4915    4915       0    4917    4918    4918       0    4920    4921
    4921       0    4923    4924    4924       0    4926    4927    4927       0
    4929    4930    4930       0    4932    4933    4933       0    4935    4936
    4936       0    4938    4939    4939       0    4941    4942    4942       0
    4944    4945    4945       0    4947    4948    4948       0    4950    4951
    4951       0    4953    4954    4954       0    4956    4957    4957       0
    4959    4960    4960       0    4962    4963    4963       0    4965    4966
    4966       0    4968    4969    4969       0    4971    4972    4972       0
    4974    4975    4975       0    4977    4978    4978       0    4980    4981
    4981       0    4983    4984    4984       0    4986    4987    4987       0
    4989    4990    4990       0    4992    4993    4993       0    4995    4996
    4996       0    4998    4999    4999       0    5001    5002    5002       0
    5004    5005    5005       0    5007    5008    5008       0    5010    5011
    5011       0    5013    5014    5014       0    5016    5017    5017       0
    5019    5020    5020       0    5022    5023    5023       0    5025    5026
    5026       0    5028    5029    5029       0    5031    5032    5032       0
    5034    5035    5035       0    5037    5038    5038       0    5040    5041
    5041       0    5043    5044    5044       0    5046    5047    5047       0
    5049    5050    5050       0    5052    5053    5053       0    5055    5056
    5056       0    5058    5059    5059       0    5061    5062    5062       0
    5064    5065    5065       0    5067    5068    5068       0    5070    5071
    5071       0    5073    5074    5074       0    5076    5077    5077       0
    5079    5080    5080       0    5082    5083    5083       0    5085    5086
    5086       0    5088    5089    5089       0    5091    5092    5092       0
    5094    5095    5095       0    5097    5098    5098       0    5100    5101
    5101       0    5103    5104    5104       0    5106    5107    5107       0
    5109    5110    5110       0    5112    5113    5113       0    5115    5116
    5116       0    5118    5119    5119       0    5121    5122    5122       0
    5124    5125    5125       0    5127    5128    5128       0    5130    5131
    5131       0    5133    5134    5134       0    5136    5137    5137       0
    5139    5140    5140       0    5142    5143    5143       0    5145    5146
    5146       0    5148    5149    5149       0    5151    5152    5152       0
    5154    5155    5155       0    5157    5158    5158       0    5160    5161
    5161       0    5163    5164    5164       0    5166    5167    5167       0
    5169    5170    5170       0    5172    5173    5173       0    5175    5176
    5176       0    5178    5179    5179       0    5181    5182    5182       0
    5184    5185    5185       0    5187    5188    5188       0    5190    5191
    5191       0    5193    5194    5194       0    5196    5197    5197       0
    5199    5200    5200       0    5202    5203    5203       0    5205    5206
    5206       0    5208    5209    5209       0    5211    5212    5212       0
    5214    5215    5215       0    5217    5218    5218       0    5220    5221
    5221       0    5223    5224    5224       0    5226    5227    5227       0
    5229    5230    5230       0    5232    5233    5233       0    5235    5236
    5236       0    5238    5239    5239       0    5241    5242    5242       0
    5244    5245    5245       0    5247    5248    5248       0    5250    5251
    5251       0    5253    5254    5254       0    5256    5257    5257       0
    5259    5260    5260       0    5262    5263    5263       0    5265    5266
    5266       0    5268    5269    5269       0    5271    5272    5272       0
    5274    5275    5275       0    5277    5278    5278       0    5280    5281
    5281       0    5283    5284    5284       0    5286    5287    5287       0
    5289    5290    5290       0    5292    5293    5293       0    5295    5296
    5296       0    5298    5299    5299       0    5301    5302    5302       0
    5304    5305    5305       0    5307    5308    5308       0    5310    5311
    5311       0    5313    5314    5314       0    5316    5317    5317       0
    5319    5320    5320       0    5322    5323    5323       0    5325    5326
    5326       0    5328    5329    5329       0    5331    5332    5332       0
    5334    5335    5335       0    5337    5338    5338       0    5340    5341
    5341       0    5343    5344    5344       0    5346    5347    5347       0
    5349    5350    5350       0    5352    5353    5353       0    5355    5356
    5356       0    5358    5359    5359       0    5361    5362    5362       0
    5364    5365    5365       0    5367    5368    5368       0    5370    5371
    5371       0    5373    5374    5374       0    5376    5377    5377       0
    5379    5380    5380       0    5382    5383    5383       0    5385    5386
    5386       0    5388    5389    5389       0    5391    5392    5392       0
    5394    5395    5395       0    5397    5398    5398       0    5400    5401
    5401       0    5403    5404    5404       0    5406    5407    5407       0
    5409    5410    5410       0    5412    5413    5413       0    5415    5416
    5416       0    5418    5419    5419       0    5421    5422    5422       0
    5424    5425    5425       0    5427    5428    5428       0    5430    5431
    5431       0    5433    5434    5434       0    5436    5437    5437       0
    5439    5440    5440       0    5442    5443    5443       0    5445    5446
    5446       0    5448    5449    5449       0    5451    5452    5452       0
    5454    5455    5455       0    5457    5458    5458       0    5460    5461
    5461       0    5463    5464    5464       0    5466    5467    5467       0
    5469    5470    5470       0    5472    5473    5473       0    5475    5476
    5476       0    5478    5479    5479       0    5481    5482    5482       0
    5484    5485    5485       0    5487    5488    5488       0    5490    5491
    5491       0    5493    5494    5494       0    5496    5497    5497       0
    5499    5500    5500       0    5502    5503    5503       0    5505    5506
    5506       0    5508    5509    5509       0    5511    5512    5512       0
    5514    5515    5515       0    5517    5518    5518       0    5520    5521
    5521       0    5523    5524    5524       0    5526    5527    5527       0
    5529    5530    5530       0    5532    5533    5533       0    5535    5536
    5536       0    5538    5539    5539       0    5541    5542    5542       0
    5544    5545    5545       0    5547    5548    5548       0    5550    5551
    5551       0    5553    5554    5554       0    5556    5557    5557       0
    5559    5560    5560       0    5562    5563    5563       0    5565    5566
    5566       0    5568    5569    5569       0    5571    5572    5572       0
    5574    5575    5575       0    5577    5578    5578       0    5580    5581
    5581       0    5583    5584    5584       0    5586    5587    5587       0
    5589    5590    5590       0    5592    5593    5593       0    5595    5596
    5596       0    5598    5599    5599       0    5601    5602    5602       0
    5604    5605    5605       0    5607    5608    5608       0    5610    5611
    5611       0    5613    5614    5614       0    5616    5617    5617       0
    5619    5620    5620       0    5622    5623    5623       0    5625    5626
    5626       0    5628    5629    5629       0    5631    5632    5632       0
    5634    5635    5635       0    5637    5638    5638       0    5640    5641
    5641       0    5643    5644    5644       0    5646    5647    5647       0
    5649    5650    5650       0    5652    5653    5653       0    5655    5656
    5656       0    5658    5659    5659       0    5661    5662    5662       0
    5664    5665    5665       0    5667    5668    5668       0    5670    5671
    5671       0    5673    5674    5674       0    5676    5677    5677       0
    5679    5680    5680       0    5682    5683    5683       0    5685    5686
    5686       0    5688    5689    5689       0    5691    5692    5692       0
    5694    5695    5695       0    5697    5698    5698       0    5700    5701
    5701       0    5703    5704    5704       0    5706    5707    5707       0
    5709    5710    5710       0    5712    5713    5713       0    5715    5716
    5716       0    5718    5719    5719       0    5721    5722    5722       0
    5724    5725    5725       0    5727    5728    5728       0    5730    5731
    5731       0    5733    5734    5734       0    5736    5737    5737       0
    5739    5740    5740       0    5742    5743    5743       0    5745    5746
    5746       0    5748    5749    5749       0    5751    5752    5752       0
    5754    5755    5755       0    5757    5758    5758       0    5760    5761
    5761       0    5763    5764    5764       0    5766    5767    5767       0
    5769    5770    5770       0    5772    5773    5773       0    5775    5776
    5776       0    5778    5779    5779       0    5781    5782    5782       0
    5784    5785    5785       0    5787    5788    5788       0    5790    5791
    5791       0    5793    5794    5794       0    5796    5797    5797       0
    5799    5800    5800       0    5802    5803    5803       0    5805    5806
    5806       0    5808    5809    5809       0    5811    5812    5812       0
    5814    5815    5815       0    5817    5818    5818       0    5820    5821
    5821       0    5823    5824    5824       0    5826    5827    5827       0
    5829    5830    5830       0    5832    5833    5833       0    5835    5836
    5836       0    5838    5839    5839       0    5841    5842    5842       0
    5844    5845    5845       0    5847    5848    5848       0    5850    5851
    5851       0    5853    5854    5854       0    5856    5857    5857       0
    5859    5860    5860       0    5862    5863    5863       0    5865    5866
    5866       0    5868    5869    5869       0    5871    5872    5872       0
    5874    5875    5875       0    5877    5878    5878       0    5880    5881
    5881       0    5883    5884    5884       0    5886    5887    5887       0
    5889    5890    5890       0    5892    5893    5893       0    5895    5896
    5896       0    5898    5899    5899       0    5901    5902    5902       0
    5904    5905    5905       0    5907    5908    5908       0    5910    5911
    5911       0    5913    5914    5914       0    5916    5917    5917       0
    5919    5920    5920       0    5922    5923    5923       0    5925    5926
    5926       0    5928    5929    5929       0    5931    5932    5932       0
    5934    5935    5935       0    5937    5938    5938       0    5940    5941
    5941       0    5943    5944    5944       0    5946    5947    5947       0
    5949    5950    5950       0    5952    5953    5953       0    5955    5956
    5956       0    5958    5959    5959       0    5961    5962    5962       0
    5964    5965    5965       0    5967    5968    5968       0    5970    5971
    5971       0    5973    5974    5974       0    5976    5977    5977       0
    5979    5980    5980       0    5982    5983    5983       0    5985    5986
    5986       0    5988    5989    5989       0    5991    5992    5992       0
    5994    5995    5995       0    5997    5998    5998       0    6000    6001
    6001       0    6003    6004    6004       0    6006    6007    6007       0
    6009    6010    6010       0    6012    6013    6013       0    6015    6016
    6016       0    6018    6019    6019       0    6021    6022    6022       0
    6024    6025    6025       0    6027    6028    6028       0    6030    6031
    6031       0    6033    6034    6034       0    6036    6037    6037       0
    6039    6040    6040       0    6042    6043    6043       0    6045    6046
    6046       0    6048    6049    6049       0    6051    6052    6052       0
    6054    6055    6055       0    6057    6058    6058       0    6060    6061
    6061       0    6063    6064    6064       0    6066    6067    6067       0
    6069    6070    6070       0    6072    6073    6073       0    6075    6076
    6076       0    6078    6079    6079       0    6081    6082    6082       0
    6084    6085    6085       0    6087    6088    6088       0    6090    6091
    6091       0    6093    6094    6094       0    6096    6097    6097       0
    6099    6100    6100       0    6102    6103    6103       0    6105    6106
    6106       0    6108    6109    6109       0    6111    6112    6112       0
    6114    6115    6115       0    6117    6118    6118       0    6120    6121
    6121       0    6123    6124    6124       0    6126    6127    6127       0
    6129    6130    6130       0    6132    6133    6133       0    6135    6136
    6136       0    6138    6139    6139       0    6141    6142    6142       0
    6144    6145    6145       0    6147    6148    6148       0    6150    6151
    6151       0    6153    6154    6154       0    6156    6157    6157       0
    6159    6160    6160       0    6162    6163    6163       0    6165    6166
    6166       0    6168    6169    6169       0    6171    6172    6172       0
    6174    6175    6175       0    6177    6178    6178       0    6180    6181
    6181       0    6183    6184    6184       0    6186    6187    6187       0
    6189    6190    6190       0    6192    6193    6193       0    6195    6196
    6196       0    6198    6199    6199       0    6201    6202    6202       0
    6204    6205    6205       0    6207    6208    6208       0    6210    6211
    6211       0    6213    6214    6214       0    6216    6217    6217       0
    6219    6220    6220       0    6222    6223    6223       0    6225    6226
    6226       0    6228    6229    6229       0    6231    6232    6232       0
    6234    6235    6235       0    6237    6238    6238       0    6240    6241
    6241       0    6243    6244    6244       0    6246    6247    6247       0
    6249    6250    6250       0    6252    6253    6253       0    6255    6256
    6256       0    6258    6259    6259       0    6261    6262    6262       0
    6264    6265    6265       0    6267    6268    6268       0    6270    6271
    6271       0    6273    6274    6274       0    6276    6277    6277       0
    6279    6280    6280       0    6282    6283    6283       0    6285    6286
    6286       0    6288    6289    6289       0    6291    6292    6292       0
    6294    6295    6295       0    6297    6298    6298       0    6300    6301
    6301       0    6303    6304    6304       0    6306    6307    6307       0
    6309    6310    6310       0    6312    6313    6313       0    6315    6316
    6316       0    6318    6319    6319       0    6321    6322    6322       0
    6324    6325    6325       0    6327    6328    6328       0    6330    6331
    6331       0    6333    6334    6334       0    6336    6337    6337       0
    6339    6340    6340       0    6342    6343    6343       0    6345    6346
    6346       0    6348    6349    6349       0    6351    6352    6352       0
    6354    6355    6355       0    6357    6358    6358       0    6360    6361
    6361       0    6363    6364    6364       0    6366    6367    6367       0
    6369    6370    6370       0    6372    6373    6373       0    6375    6376
    6376       0    6378    6379    6379       0    6381    6382    6382       0
    6384    6385    6385       0    6387    6388    6388       0    6390    6391
    6391       0    6393    6394    6394       0    6396    6397    6397       0
    6399    6400    6400       0    6402    6403    6403       0    6405    6406
    6406       0    6408    6409    6409       0    6411    6412    6412       0
    6414    6415    6415       0    6417    6418    6418       0    6420    6421
    6421       0    6423    6424    6424       0    6426    6427    6427       0
    6429    6430    6430       0    6432    6433    6433       0    6435    6436
    6436       0    6438    6439    6439       0    6441    6442    6442       0
    6444    6445    6445       0    6447    6448    6448       0    6450    6451
    6451       0    6453    6454    6454       0    6456    6457    6457       0
    6459    6460    6460       0    6462    6463    6463       0    6465    6466
    6466       0    6468    6469    6469       0    6471    6472    6472       0
    6474    6475    6475       0    6477    6478    6478       0    6480    6481
    6481       0    6483    6484    6484       0    6486    6487    6487       0
    6489    6490    6490       0    6492    6493    6493       0    6495    6496
    6496       0    6498    6499    6499       0    6501    6502    6502       0
    6504    6505    6505       0    6507    6508    6508       0    6510    6511
    6511       0    6513    6514    6514       0    6516    6517    6517       0
    6519    6520    6520       0    6522    6523    6523       0    6525    6526
    6526       0    6528    6529    6529       0    6531    6532    6532       0
    6534    6535    6535       0    6537    6538    6538       0    6540    6541
    6541       0    6543    6544    6544       0    6546    6547    6547       0
    6549    6550    6550       0    6552    6553    6553       0    6555    6556
    6556       0    6558    6559    6559       0    6561    6562    6562       0
    6564    6565    6565       0    6567    6568    6568       0    6570    6571
    6571       0    6573    6574    6574       0    6576    6577    6577       0
    6579    6580    6580       0    6582    6583    6583       0    6585    6586
    6586       0    6588    6589    6589       0    6591    6592    6592       0
    6594    6595    6595       0    6597    6598    6598       0    6600    6601
    6601       0    6603    6604    6604       0    6606    6607    6607       0
    6609    6610    6610       0    6612    6613    6613       0    6615    6616
    6616       0    6618    6619    6619       0    6621    6622    6622       0
    6624    6625    6625       0    6627    6628    6628       0    6630    6631
    6631       0    6633    6634    6634       0    6636    6637    6637       0
    6639    6640    6640       0    6642    6643    6643       0    6645    6646
    6646       0    6648    6649    6649       0    6651    6652    6652       0
    6654    6655    6655       0    6657    6658    6658       0    6660    6661
    6661       0    6663    6664    6664       0    6666    6667    6667       0
    6669    6670    6670       0    6672    6673    6673       0    6675    6676
    6676       0    6678    6679    6679       0    6681    6682    6682       0
    6684    6685    6685       0    6687    6688    6688       0    6690    6691
    6691       0    6693    6694    6694       0    6696    6697    6697       0
    6699    6700    6700       0    6702    6703    6703       0    6705    6706
    6706       0    6708    6709    6709       0    6711    6712    6712       0
    6714    6715    6715       0    6717    6718    6718       0    6720    6721
    6721       0    6723    6724    6724       0    6726    6727    6727       0
    6729    6730    6730       0    6732    6733    6733       0    6735    6736
    6736       0    6738    6739    6739       0    6741    6742    6742       0
    6744    6745    6745       0    6747    6748    6748       0    6750    6751
    6751       0    6753    6754    6754       0    6756    6757    6757       0
    6759    6760    6760       0    6762    6763    6763       0    6765    6766
    6766       0    6768    6769    6769       0    6771    6772    6772       0
    6774    6775    6775       0    6777    6778    6778       0    6780    6781
    6781       0    6783    6784    6784       0    6786    6787    6787       0
    6789    6790    6790       0    6792    6793    6793       0    6795    6796
    6796       0    6798    6799    6799       0    6801    6802    6802       0
    6804    6805    6805       0    6807    6808    6808       0    6810    6811
    6811       0    6813    6814    6814       0    6816    6817    6817       0
    6819    6820    6820       0    6822    6823    6823       0    6825    6826
    6826       0    6828    6829    6829       0    6831    6832    6832       0
    6834    6835    6835       0    6837    6838    6838       0    6840    6841
    6841       0    6843    6844    6844       0    6846    6847    6847       0
    6849    6850    6850       0    6852    6853    6853       0    6855    6856
    6856       0    6858    6859    6859       0    6861    6862    6862       0
    6864    6865    6865       0    6867    6868    6868       0    6870    6871
    6871       0    6873    6874    6874       0    6876    6877    6877       0
    6879    6880    6880       0    6882    6883    6883       0    6885    6886
    6886       0    6888    6889    6889       0    6891    6892    6892       0
    6894    6895    6895       0    6897    6898    6898       0    6900    6901
    6901       0    6903    6904    6904       0    6906    6907    6907       0
    6909    6910    6910       0    6912    6913    6913       0    6915    6916
    6916       0    6918    6919    6919       0    6921    6922    6922       0
    6924    6925    6925       0    6927    6928    6928       0    6930    6931
    6931       0    6933    6934    6934       0    6936    6937    6937       0
    6939    6940    6940       0    6942    6943    6943       0    6945    6946
    6946       0    6948    6949    6949       0    6951    6952    6952       0
    6954    6955    6955       0    6957    6958    6958       0    6960    6961
    6961       0    6963    6964    6964       0    6966    6967    6967       0
    6969    6970    6970       0    6972    6973    6973       0    6975    6976
    6976       0    6978    6979    6979       0    6981    6982    6982       0
    6984    6985    6985       0    6987    6988    6988       0    6990    6991
    6991       0    6993    6994    6994       0    6996    6997    6997       0
    6999    7000    7000       0    7002    7003    7003       0    7005    7006
    7006       0    7008    7009    7009       0    7011    7012    7012       0
    7014    7015    7015       0    7017    7018    7018       0    7020    7021
    7021       0    7023    7024    7024       0    7026    7027    7027       0
    7029    7030    7030       0    7032    7033    7033       0    7035    7036
    7036       0    7038    7039    7039       0    7041    7042    7042       0
    7044    7045    7045       0    7047    7048    7048       0    7050    7051
    7051       0    7053    7054    7054       0    7056    7057    7057       0
    7059    7060    7060       0    7062    7063    7063       0    7065    7066
    7066       0    7068    7069    7069       0    7071    7072    7072       0
    7074    7075    7075       0    7077    7078    7078       0    7080    7081
    7081       0    7083    7084    7084       0    7086    7087    7087       0
    7089    7090    7090       0    7092    7093    7093       0    7095    7096
    7096       0    7098    7099    7099       0    7101    7102    7102       0
    7104    7105    7105       0    7107    7108    7108       0    7110    7111
    7111       0    7113    7114    7114       0    7116    7117    7117       0
    7119    7120    7120       0    7122    7123    7123       0    7125    7126
    7126       0    7128    7129    7129       0    7131    7132    7132       0
    7134    7135    7135       0    7137    7138    7138       0    7140    7141
    7141       0    7143    7144    7144       0    7146    7147    7147       0
    7149    7150    7150       0    7152    7153    7153       0    7155    7156
    7156       0    7158    7159    7159       0    7161    7162    7162       0
    7164    7165    7165       0    7167    7168    7168       0    7170    7171
    7171       0    7173    7174    7174       0    7176    7177    7177       0
    7179    7180    7180       0    7182    7183    7183       0    7185    7186
    7186       0    7188    7189    7189       0    7191    7192    7192       0
    7194    7195    7195       0    7197    7198    7198       0    7200    7201
    7201       0    7203    7204    7204       0    7206    7207    7207       0
    7209    7210    7210       0    7212    7213    7213       0    7215    7216
    7216       0    7218    7219    7219       0    7221    7222    7222       0
    7224    7225    7225       0    7227    7228    7228       0    7230    7231
    7231       0    7233    7234    7234       0    7236    7237    7237       0
    7239    7240    7240       0    7242    7243    7243       0    7245    7246
    7246       0    7248    7249    7249       0    7251    7252    7252       0
    7254    7255    7255       0    7257    7258    7258       0    7260    7261
    7261       0    7263    7264    7264       0    7266    7267    7267       0
    7269    7270    7270       0    7272    7273    7273       0    7275    7276
    7276       0    7278    7279    7279       0    7281    7282    7282       0
    7284    7285    7285       0    7287    7288    7288       0    7290    7291
    7291       0    7293    7294    7294       0    7296    7297    7297       0
    7299    7300    7300       0    7302    7303    7303       0    7305    7306
    7306       0    7308    7309    7309       0    7311    7312    7312       0
    7314    7315    7315       0    7317    7318    7318       0    7320    7321
    7321       0    7323    7324    7324       0    7326    7327    7327       0
    7329    7330    7330       0    7332    7333    7333       0    7335    7336
    7336       0    7338    7339    7339       0    7341    7342    7342       0
    7344    7345    7345       0    7347    7348    7348       0    7350    7351
    7351       0    7353    7354    7354       0    7356    7357    7357       0
    7359    7360    7360       0    7362    7363    7363       0    7365    7366
    7366       0    7368    7369    7369       0    7371    7372    7372       0
    7374    7375    7375       0    7377    7378    7378       0    7380    7381
    7381       0    7383    7384    7384       0    7386    7387    7387       0
    7389    7390    7390       0    7392    7393    7393       0    7395    7396
    7396       0    7398    7399    7399       0    7401    7402    7402       0
    7404    7405    7405       0    7407    7408    7408       0    7410    7411
    7411       0    7413    7414    7414       0    7416    7417    7417       0
    7419    7420    7420       0    7422    7423    7423       0    7425    7426
    7426       0    7428    7429    7429       0    7431    7432    7432       0
    7434    7435    7435       0    7437    7438    7438       0    7440    7441
    7441       0    7443    7444    7444       0    7446    7447    7447       0
    7449    7450    7450       0    7452    7453    7453       0    7455    7456
    7456       0    7458    7459    7459       0    7461    7462    7462       0
    7464    7465    7465       0    7467    7468    7468       0    7470    7471
    7471       0    7473    7474    7474       0    7476    7477    7477       0
    7479    7480    7480       0    7482    7483    7483       0    7485    7486
    7486       0    7488    7489    7489       0    7491    7492    7492       0
    7494    7495    7495       0    7497    7498    7498       0    7500    7501
    7501       0    7503    7504    7504       0    7506    7507    7507       0
    7509    7510    7510       0    7512    7513    7513       0    7515    7516
    7516       0    7518    7519    7519       0    7521    7522    7522       0
    7524    7525    7525       0    7527    7528    7528       0    7530    7531
    7531       0    7533    7534    7534       0    7536    7537    7537       0
    7539    7540    7540       0    7542    7543    7543       0    7545    7546
    7546       0    7548    7549    7549       0    7551    7552    7552       0
    7554    7555    7555       0    7557    7558    7558       0    7560    7561
    7561       0    7563    7564    7564       0    7566    7567    7567       0
    7569    7570    7570       0    7572    7573    7573       0    7575    7576
    7576       0    7578    7579    7579       0    7581    7582    7582       0
    7584    7585    7585       0    7587    7588    7588       0    7590    7591
    7591       0    7593    7594    7594       0    7596    7597    7597       0
    7599    7600    7600       0    7602    7603    7603       0    7605    7606
    7606       0    7608    7609    7609       0    7611    7612    7612       0
    7614    7615    7615       0    7617    7618    7618       0    7620    7621
    7621       0    7623    7624    7624       0    7626    7627    7627       0
    7629    7630    7630       0    7632    7633    7633       0    7635    7636
    7636       0    7638    7639    7639       0    7641    7642    7642       0
    7644    7645    7645       0    7647    7648    7648       0    7650    7651
    7651       0    7653    7654    7654       0    7656    7657    7657       0
    7659    7660    7660       0    7662    7663    7663       0    7665    7666
    7666       0    7668    7669    7669       0    7671    7672    7672       0
    7674    7675    7675       0    7677    7678    7678       0    7680    7681
    7681       0    7683    7684    7684       0    7686    7687    7687       0
    7689    7690    7690       0    7692    7693    7693       0    7695    7696
    7696       0    7698    7699    7699       0    7701    7702    7702       0
    7704    7705    7705       0    7707    7708    7708       0    7710    7711
    7711       0    7713    7714    7714       0    7716    7717    7717       0
    7719    7720    7720       0    7722    7723    7723       0    7725    7726
    7726       0    7728    7729    7729       0    7731    7732    7732       0
    7734    7735    7735       0    7737    7738    7738       0    7740    7741
    7741       0    7743    7744    7744       0    7746    7747    7747       0
    7749    7750    7750       0    7752    7753    7753       0    7755    7756
    7756       0    7758    7759    7759       0    7761    7762    7762       0
    7764    7765    7765       0    7767    7768    7768       0    7770    7771
    7771       0    7773    7774    7774       0    7776    7777    7777       0
    7779    7780    7780       0    7782    7783    7783       0    7785    7786
    7786       0    7788    7789    7789       0    7791    7792    7792       0
    7794    7795    7795       0    7797    7798    7798       0    7800    7801
    7801       0    7803    7804    7804       0    7806    7807    7807       0
    7809    7810    7810       0    7812    7813    7813       0    7815    7816
    7816       0    7818    7819    7819       0    7821    7822    7822       0
    7824    7825    7825       0    7827    7828    7828       0    7830    7831
    7831       0    7833    7834    7834       0    7836    7837    7837       0
    7839    7840    7840       0    7842    7843    7843       0    7845    7846
    7846       0    7848    7849    7849       0    7851    7852    7852       0
    7854    7855    7855       0    7857    7858    7858       0    7860    7861
    7861       0    7863    7864    7864       0    7866    7867    7867       0
    7869    7870    7870       0    7872    7873    7873       0    7875    7876
    7876       0    7878    7879    7879       0    7881    7882    7882       0
    7884    7885    7885       0    7887    7888    7888       0    7890    7891
    7891       0    7893    7894    7894       0    7896    7897    7897       0
    7899    7900    7900       0    7902    7903    7903       0    7905    7906
    7906       0    7908    7909    7909       0    7911    7912    7912       0
    7914    7915    7915       0    7917    7918    7918       0    7920    7921
    7921       0    7923    7924    7924       0    7926    7927    7927       0
    7929    7930    7930       0    7932    7933    7933       0    7935    7936
    7936       0    7938    7939    7939       0    7941    7942    7942       0
    7944    7945    7945       0    7947    7948    7948       0    7950    7951
    7951       0    7953    7954    7954       0    7956    7957    7957       0
    7959    7960    7960       0    7962    7963    7963       0    7965    7966
    7966       0    7968    7969    7969       0    7971    7972    7972       0
    7974    7975    7975       0    7977    7978    7978       0    7980    7981
    7981       0    7983    7984    7984       0    7986    7987    7987       0
    7989    7990    7990       0    7992    7993    7993       0    7995    7996
    7996       0    7998    7999    7999       0    8001    8002    8002       0
    8004    8005    8005       0    8007    8008    8008       0    8010    8011
    8011       0    8013    8014    8014       0    8016    8017    8017       0
    8019    8020    8020       0    8022    8023    8023       0    8025    8026
    8026       0    8028    8029    8029       0    8031    8032    8032       0
    8034    8035    8035       0    8037    8038    8038       0    8040    8041
    8041       0    8043    8044    8044       0    8046    8047    8047       0
    8049    8050    8050       0    8052    8053    8053       0    8055    8056
    8056       0    8058    8059    8059       0    8061    8062    8062       0
    8064    8065    8065       0    8067    8068    8068       0    8070    8071
    8071       0    8073    8074    8074       0    8076    8077    8077       0
    8079    8080    8080       0    8082    8083    8083       0    8085    8086
    8086       0    8088    8089    8089       0    8091    8092    8092       0
    8094    8095    8095       0    8097    8098    8098       0    8100    8101
    8101       0    8103    8104    8104       0    8106    8107    8107       0
    8109    8110    8110       0    8112    8113    8113       0    8115    8116
    8116       0    8118    8119    8119       0    8121    8122    8122       0
    8124    8125    8125       0    8127    8128    8128       0    8130    8131
    8131       0    8133    8134    8134       0    8136    8137    8137       0
    8139    8140    8140       0    8142    8143    8143       0    8145    8146
    8146       0    8148    8149    8149       0    8151    8152    8152       0
    8154    8155    8155       0    8157    8158    8158       0    8160    8161
    8161       0    8163    8164    8164       0    8166    8167    8167       0
    8169    8170    8170       0    8172    8173    8173       0    8175    8176
    8176       0    8178    8179    8179       0    8181    8182    8182       0
    8184    8185    8185       0    8187    8188    8188       0    8190    8191
    8191       0    8193    8194    8194       0    8196    8197    8197       0
    8199    8200    8200       0    8202    8203    8203       0    8205    8206
    8206       0    8208    8209    8209       0    8211    8212    8212       0
    8214    8215    8215       0    8217    8218    8218       0    8220    8221
    8221       0    8223    8224    8224       0    8226    8227    8227       0
    8229    8230    8230       0    8232    8233    8233       0    8235    8236
    8236       0    8238    8239    8239       0    8241    8242    8242       0
    8244    8245    8245       0    8247    8248    8248       0    8250    8251
    8251       0    8253    8254    8254       0    8256    8257    8257       0
    8259    8260    8260       0    8262    8263    8263       0    8265    8266
    8266       0    8268    8269    8269       0    8271    8272    8272       0
    8274    8275    8275       0    8277    8278    8278       0    8280    8281
    8281       0    8283    8284    8284       0    8286    8287    8287       0
    8289    8290    8290       0    8292    8293    8293       0    8295    8296
    8296       0    8298    8299    8299       0    8301    8302    8302       0
    8304    8305    8305       0    8307    8308    8308       0    8310    8311
    8311       0    8313    8314    8314       0    8316    8317    8317       0
    8319    8320    8320       0    8322    8323    8323       0    8325    8326
    8326       0    8328    8329    8329       0    8331    8332    8332       0
    8334    8335    8335       0    8337    8338    8338       0    8340    8341
    8341       0    8343    8344    8344       0    8346    8347    8347       0
    8349    8350    8350       0    8352    8353    8353       0    8355    8356
    8356       0    8358    8359    8359       0    8361    8362    8362       0
    8364    8365    8365       0    8367    8368    8368       0    8370    8371
    8371       0    8373    8374    8374       0    8376    8377    8377       0
    8379    8380    8380       0    8382    8383    8383       0    8385    8386
    8386       0    8388    8389    8389       0    8391    8392    8392       0
    8394    8395    8395       0    8397    8398    8398       0    8400    8401
    8401       0    8403    8404    8404       0    8406    8407    8407       0
    8409    8410    8410       0    8412    8413    8413       0    8415    8416
    8416       0    8418    8419    8419       0    8421    8422    8422       0
    8424    8425    8425       0    8427    8428    8428       0    8430    8431
    8431       0    8433    8434    8434       0    8436    8437    8437       0
    8439    8440    8440       0    8442    8443    8443       0    8445    8446
    8446       0    8448    8449    8449       0    8451    8452    8452       0
    8454    8455    8455       0    8457    8458    8458       0    8460    8461
    8461       0    8463    8464    8464       0    8466    8467    8467       0
    8469    8470    8470       0    8472    8473    8473       0    8475    8476
    8476       0    8478    8479    8479       0    8481    8482    8482       0
    8484    8485    8485       0    8487    8488    8488       0    8490    8491
    8491       0    8493    8494    8494       0    8496    8497    8497       0
    8499    8500    8500       0    8502    8503    8503       0    8505    8506
    8506       0    8508    8509    8509       0    8511    8512    8512       0
    8514    8515    8515       0    8517    8518    8518       0    8520    8521
    8521       0    8523    8524    8524       0    8526    8527    8527       0
    8529    8530    8530       0    8532    8533    8533       0    8535    8536
    8536       0    8538    8539    8539       0    8541    8542    8542       0
    8544    8545    8545       0    8547    8548    8548       0    8550    8551
    8551       0    8553    8554    8554       0    8556    8557    8557       0
    8559    8560    8560       0    8562    8563    8563       0    8565    8566
    8566       0    8568    8569    8569       0    8571    8572    8572       0
    8574    8575    8575       0    8577    8578    8578       0    8580    8581
    8581       0    8583    8584    8584       0    8586    8587    8587       0
    8589    8590    8590       0    8592    8593    8593       0    8595    8596
    8596       0    8598    8599    8599       0    8601    8602    8602       0
    8604    8605    8605       0    8607    8608    8608       0    8610    8611
    8611       0    8613    8614    8614       0    8616    8617    8617       0
    8619    8620    8620       0    8622    8623    8623       0    8625    8626
    8626       0    8628    8629    8629       0    8631    8632    8632       0
    8634    8635    8635       0    8637    8638    8638       0    8640    8641
    8641       0    8643    8644    8644       0    8646    8647    8647       0
    8649    8650    8650       0    8652    8653    8653       0    8655    8656
    8656       0    8658    8659    8659       0    8661    8662    8662       0
    8664    8665    8665       0    8667    8668    8668       0    8670    8671
    8671       0    8673    8674    8674       0    8676    8677    8677       0
    8679    8680    8680       0    8682    8683    8683       0    8685    8686
    8686       0    8688    8689    8689       0    8691    8692    8692       0
    8694    8695    8695       0    8697    8698    8698       0    8700    8701
    8701       0    8703    8704    8704       0    8706    8707    8707       0
    8709    8710    8710       0    8712    8713    8713       0    8715    8716
    8716       0    8718    8719    8719       0    8721    8722    8722       0
    8724    8725    8725       0    8727    8728    8728       0    8730    8731
    8731       0    8733    8734    8734       0    8736    8737    8737       0
    8739    8740    8740       0    8742    8743    8743       0    8745    8746
    8746       0    8748    8749    8749       0    8751    8752    8752       0
    8754    8755    8755       0    8757    8758    8758       0    8760    8761
    8761       0    8763    8764    8764       0    8766    8767    8767       0
    8769    8770    8770       0    8772    8773    8773       0    8775    8776
    8776       0    8778    8779    8779       0    8781    8782    8782       0
    8784    8785    8785       0    8787    8788    8788       0    8790    8791
    8791       0    8793    8794    8794       0    8796    8797    8797       0
    8799    8800    8800       0    8802    8803    8803       0    8805    8806
    8806       0    8808    8809    8809       0    8811    8812    8812       0
    8814    8815    8815       0    8817    8818    8818       0    8820    8821
    8821       0    8823    8824    8824       0    8826    8827    8827       0
    8829    8830    8830       0    8832    8833    8833       0    8835    8836
    8836       0    8838    8839    8839       0    8841    8842    8842       0
    8844    8845    8845       0    8847    8848    8848       0    8850    8851
    8851       0    8853    8854    8854       0    8856    8857    8857       0
    8859    8860    8860       0    8862    8863    8863       0    8865    8866
    8866       0    8868    8869    8869       0    8871    8872    8872       0
    8874    8875    8875       0    8877    8878    8878       0    8880    8881
    8881       0    8883    8884    8884       0    8886    8887    8887       0
    8889    8890    8890       0    8892    8893    8893       0    8895    8896
    8896       0    8898    8899    8899       0    8901    8902    8902       0
    8904    8905    8905       0    8907    8908    8908       0    8910    8911
    8911       0    8913    8914    8914       0    8916    8917    8917       0
    8919    8920    8920       0    8922    8923    8923       0    8925    8926
    8926       0    8928    8929    8929       0    8931    8932    8932       0
    8934    8935    8935       0    8937    8938    8938       0    8940    8941
    8941       0    8943    8944    8944       0    8946    8947    8947       0
    8949    8950    8950       0    8952    8953    8953       0    8955    8956
    8956       0    8958    8959    8959       0    8961    8962    8962       0
    8964    8965    8965       0    8967    8968    8968       0    8970    8971
    8971       0    8973    8974    8974       0    8976    8977    8977       0
    8979    8980    8980       0    8982    8983    8983       0    8985    8986
    8986       0    8988    8989    8989       0    8991    8992    8992       0
    8994    8995    8995       0    8997    8998    8998       0    9000    9001
    9001       0    9003    9004    9004       0    9006    9007    9007       0
    9009    9010    9010       0    9012    9013    9013       0    9015    9016
    9016       0    9018    9019    9019       0    9021    9022    9022       0
    9024    9025    9025       0    9027    9028    9028       0    9030    9031
    9031       0    9033    9034    9034       0    9036    9037    9037       0
    9039    9040    9040       0    9042    9043    9043       0    9045    9046
    9046       0    9048    9049    9049       0    9051    9052    9052       0
    9054    9055    9055       0    9057    9058    9058       0    9060    9061
    9061       0    9063    9064    9064       0    9066    9067    9067       0
    9069    9070    9070       0    9072    9073    9073       0    9075    9076
    9076       0    9078    9079    9079       0    9081    9082    9082       0
    9084    9085    9085       0    9087    9088    9088       0    9090    9091
    9091       0    9093    9094    9094       0    9096    9097    9097       0
    9099    9100    9100       0    9102    9103    9103       0    9105    9106
    9106       0    9108    9109    9109       0    9111    9112    9112       0
    9114    9115    9115       0    9117    9118    9118       0    9120    9121
    9121       0    9123    9124    9124       0    9126    9127    9127       0
    9129    9130    9130       0    9132    9133    9133       0    9135    9136
    9136       0    9138    9139    9139       0    9141    9142    9142       0
    9144    9145    9145       0    9147    9148    9148       0    9150    9151
    9151       0    9153    9154    9154       0    9156    9157    9157       0
    9159    9160    9160       0    9162    9163    9163       0    9165    9166
    9166       0    9168    9169    9169       0    9171    9172    9172       0
    9174    9175    9175       0    9177    9178    9178       0    9180    9181
    9181       0    9183    9184    9184       0    9186    9187    9187       0
    9189    9190    9190       0    9192    9193    9193       0    9195    9196
    9196       0    9198    9199    9199       0    9201    9202    9202       0
    9204    9205    9205       0    9207    9208    9208       0    9210    9211
    9211       0    9213    9214    9214       0    9216    9217    9217       0
    9219    9220    9220       0    9222    9223    9223       0    9225    9226
    9226       0    9228    9229    9229       0    9231    9232    9232       0
    9234    9235    9235       0    9237    9238    9238       0    9240    9241
    9241       0    9243    9244    9244       0    9246    9247    9247       0
    9249    9250    9250       0    9252    9253    9253       0    9255    9256
    9256       0    9258    9259    9259       0    9261    9262    9262       0
    9264    9265    9265       0    9267    9268    9268       0    9270    9271
    9271       0    9273    9274    9274       0    9276    9277    9277       0
    9279    9280    9280       0    9282    9283    9283       0    9285    9286
    9286       0    9288    9289    9289       0    9291    9292    9292       0
    9294    9295    9295       0    9297    9298    9298       0    9300    9301
    9301       0    9303    9304    9304       0    9306    9307    9307       0
    9309    9310    9310       0    9312    9313    9313       0    9315    9316
    9316       0    9318    9319    9319       0    9321    9322    9322       0
    9324    9325    9325       0    9327    9328    9328       0    9330    9331
    9331       0    9333    9334    9334       0    9336    9337    9337       0
    9339    9340    9340       0    9342    9343    9343       0    9345    9346
    9346       0    9348    9349    9349       0    9351    9352    9352       0
    9354    9355    9355       0    9357    9358    9358       0    9360    9361
    9361       0    9363    9364    9364       0    9366    9367    9367       0
    9369    9370    9370       0    9372    9373    9373       0    9375    9376
    9376       0    9378    9379    9379       0    9381    9382    9382       0
    9384    9385    9385       0    9387    9388    9388       0    9390    9391
    9391       0    9393    9394    9394       0    9396    9397    9397       0
    9399    9400    9400       0    9402    9403    9403       0    9405    9406
    9406       0    9408    9409    9409       0    9411    9412    9412       0
    9414    9415    9415       0    9417    9418    9418       0    9420    9421
    9421       0    9423    9424    9424       0    9426    9427    9427       0
    9429    9430    9430       0    9432    9433    9433       0    9435    9436
    9436       0    9438    9439    9439       0    9441    9442    9442       0
    9444    9445    9445       0    9447    9448    9448       0    9450    9451
    9451       0    9453    9454    9454       0    9456    9457    9457       0
    9459    9460    9460       0    9462    9463    9463       0    9465    9466
    9466       0    9468    9469    9469       0    9471    9472    9472       0
    9474    9475    9475       0    9477    9478    9478       0    9480    9481
    9481       0    9483    9484    9484       0    9486    9487    9487       0
    9489    9490    9490       0    9492    9493    9493       0    9495    9496
    9496       0    9498    9499    9499       0    9501    9502    9502       0
    9504    9505    9505       0    9507    9508    9508       0    9510    9511
    9511       0    9513    9514    9514       0    9516    9517    9517       0
    9519    9520    9520       0    9522    9523    9523       0    9525    9526
    9526       0    9528    9529    9529       0    9531    9532    9532       0
    9534    9535    9535       0    9537    9538    9538       0    9540    9541
    9541       0    9543    9544    9544       0    9546    9547    9547       0
    9549    9550    9550       0    9552    9553    9553       0    9555    9556
    9556       0    9558    9559    9559       0    9561    9562    9562       0
    9564    9565    9565       0    9567    9568    9568       0    9570    9571
    9571       0    9573    9574    9574       0    9576    9577    9577       0
    9579    9580    9580       0    9582    9583    9583       0    9585    9586
    9586       0    9588    9589    9589       0    9591    9592    9592       0
    9594    9595    9595       0    9597    9598    9598       0    9600    9601
    9601       0    9603    9604    9604       0    9606    9607    9607       0
    9609    9610    9610       0    9612    9613    9613       0    9615    9616
    9616       0    9618    9619    9619       0    9621    9622    9622       0
    9624    9625    9625       0    9627    9628    9628       0    9630    9631
    9631       0    9633    9634    9634       0    9636    9637    9637       0
    9639    9640    9640       0    9642    9643    9643       0    9645    9646
    9646       0    9648    9649    9649       0    9651    9652    9652       0
    9654    9655    9655       0    9657    9658    9658       0    9660    9661
    9661       0    9663    9664    9664       0    9666    9667    9667       0
    9669    9670    9670       0    9672    9673    9673       0    9675    9676
    9676       0    9678    9679    9679       0    9681    9682    9682       0
    9684    9685    9685       0    9687    9688    9688       0    9690    9691
    9691       0    9693    9694    9694       0    9696    9697    9697       0
    9699    9700    9700       0    9702    9703    9703       0    9705    9706
    9706       0    9708    9709    9709       0    9711    9712    9712       0
    9714    9715    9715       0    9717    9718    9718       0    9720    9721
    9721       0    9723    9724    9724       0    9726    9727    9727       0
    9729    9730    9730       0    9732    9733    9733       0    9735    9736
    9736       0    9738    9739    9739       0    9741    9742    9742       0
    9744    9745    9745       0    9747    9748    9748       0    9750    9751
    9751       0    9753    9754    9754       0    9756    9757    9757       0
    9759    9760    9760       0    9762    9763    9763       0    9765    9766
    9766       0    9768    9769    9769       0    9771    9772    9772       0
    9774    9775    9775       0    9777    9778    9778       0    9780    9781
    9781       0    9783    9784    9784       0    9786    9787    9787       0
    9789    9790    9790       0    9792    9793    9793       0    9795    9796
    9796       0    9798    9799    9799       0    9801    9802    9802       0
    9804    9805    9805       0    9807    9808    9808       0    9810    9811
    9811       0    9813    9814    9814       0    9816    9817    9817       0
    9819    9820    9820       0    9822    9823    9823       0    9825    9826
    9826       0    9828    9829    9829       0    9831    9832    9832       0
    9834    9835    9835       0    9837    9838    9838       0    9840    9841
    9841       0    9843    9844    9844       0    9846    9847    9847       0
    9849    9850    9850       0    9852    9853    9853       0    9855    9856
    9856       0    9858    9859    9859       0    9861    9862    9862       0
    9864    9865    9865       0    9867    9868    9868       0    9870    9871
    9871       0    9873    9874    9874       0    9876    9877    9877       0
    9879    9880    9880       0    9882    9883    9883       0    9885    9886
    9886       0    9888    9889    9889       0    9891    9892    9892       0
    9894    9895    9895       0    9897    9898    9898       0    9900    9901
    9901       0    9903    9904    9904       0    9906    9907    9907       0
    9909    9910    9910       0    9912    9913    9913       0    9915    9916
    9916       0    9918    9919    9919       0    9921    9922    9922       0
    9924    9925    9925       0    9927    9928    9928       0    9930    9931
    9931       0    9933    9934    9934       0    9936    9937    9937       0
    9939    9940    9940       0    9942    9943    9943       0    9945    9946
    9946       0    9948    9949    9949       0    9951    9952    9952       0
    9954    9955    9955       0    9957    9958    9958       0    9960    9961
    9961       0    9963    9964    9964       0    9966    9967    9967       0
    9969    9970    9970       0    9972    9973    9973       0    9975    9976
    9976       0    9978    9979    9979       0    9981    9982    9982       0
    9984    9985    9985       0    9987    9988    9988       0    9990    9991
    9991       0    9993    9994    9994       0    9996    9997    9997       0
    9999   10000   10000       0   10002   10003   10003       0   10005   10006
   10006       0   10008   10009   10009       0   10011   10012   10012       0
   10014   10015   10015       0   10017   10018   10018       0   10020   10021
   10021       0   10023   10024   10024       0   10026   10027   10027       0
   10029   10030   10030       0   10032   10033   10033       0   10035   10036
   10036       0   10038   10039   10039       0   10041   10042   10042       0
   10044   10045   10045       0   10047   10048   10048       0   10050   10051
   10051       0   10053   10054   10054       0   10056   10057   10057       0
   10059   10060   10060       0   10062   10063   10063       0   10065   10066
   10066       0   10068   10069   10069       0   10071   10072   10072       0
   10074   10075   10075       0   10077   10078   10078       0   10080   10081
   10081       0   10083   10084   10084       0   10086   10087   10087       0
   10089   10090   10090       0   10092   10093   10093       0   10095   10096
   10096       0   10098   10099   10099       0   10101   10102   10102       0
   10104   10105   10105       0   10107   10108   10108       0   10110   10111
   10111       0   10113   10114   10114       0   10116   10117   10117       0
   10119   10120   10120       0   10122   10123   10123       0   10125   10126
   10126       0   10128   10129   10129       0   10131   10132   10132       0
   10134   10135   10135       0   10137   10138   10138       0   10140   10141
   10141       0   10143   10144   10144       0   10146   10147   10147       0
   10149   10150   10150       0   10152   10153   10153       0   10155   10156
   10156       0   10158   10159   10159       0   10161   10162   10162       0
   10164   10165   10165       0   10167   10168   10168       0   10170   10171
   10171       0   10173   10174   10174       0   10176   10177   10177       0
   10179   10180   10180       0   10182   10183   10183       0   10185   10186
   10186       0   10188   10189   10189       0   10191   10192   10192       0
   10194   10195   10195       0   10197   10198   10198       0   10200   10201
   10201       0   10203   10204   10204       0   10206   10207   10207       0
   10209   10210   10210       0   10212   10213   10213       0   10215   10216
   10216       0   10218   10219   10219       0   10221   10222   10222       0
   10224   10225   10225       0   10227   10228   10228       0   10230   10231
   10231       0   10233   10234   10234       0   10236   10237   10237       0
   10239   10240   10240       0   10242   10243   10243       0   10245   10246
   10246       0   10248   10249   10249       0   10251   10252   10252       0
   10254   10255   10255       0   10257   10258   10258       0   10260   10261
   10261       0   10263   10264   10264       0   10266   10267   10267       0
   10269   10270   10270       0   10272   10273   10273       0   10275   10276
   10276       0   10278   10279   10279       0   10281   10282   10282       0
   10284   10285   10285       0   10287   10288   10288       0   10290   10291
   10291       0   10293   10294   10294       0   10296   10297   10297       0
   10299   10300   10300       0   10302   10303   10303       0   10305   10306
   10306       0   10308   10309   10309       0   10311   10312   10312       0
   10314   10315   10315       0   10317   10318   10318       0   10320   10321
   10321       0   10323   10324   10324       0   10326   10327   10327       0
   10329   10330   10330       0   10332   10333   10333       0   10335   10336
   10336       0   10338   10339   10339       0   10341   10342   10342       0
   10344   10345   10345       0   10347   10348   10348       0   10350   10351
   10351       0   10353   10354   10354       0   10356   10357   10357       0
   10359   10360   10360       0   10362   10363   10363       0   10365   10366
   10366       0   10368   10369   10369       0   10371   10372   10372       0
   10374   10375   10375       0   10377   10378   10378       0   10380   10381
   10381       0   10383   10384   10384       0   10386   10387   10387       0
   10389   10390   10390       0   10392   10393   10393       0   10395   10396
   10396       0   10398   10399   10399       0   10401   10402   10402       0
   10404   10405   10405       0   10407   10408   10408       0   10410   10411
   10411       0   10413   10414   10414       0   10416   10417   10417       0
   10419   10420   10420       0   10422   10423   10423       0   10425   10426
   10426       0   10428   10429   10429       0   10431   10432   10432       0
   10434   10435   10435       0   10437   10438   10438       0   10440   10441
   10441       0   10443   10444   10444       0   10446   10447   10447       0
   10449   10450   10450       0   10452   10453   10453       0   10455   10456
   10456       0   10458   10459   10459       0   10461   10462   10462       0
   10464   10465   10465       0   10467   10468   10468       0   10470   10471
   10471       0   10473   10474   10474       0   10476   10477   10477       0
   10479   10480   10480       0   10482   10483   10483       0   10485   10486
   10486       0   10488   10489   10489       0   10491   10492   10492       0
   10494   10495   10495       0   10497   10498   10498       0   10500   10501
   10501       0   10503   10504   10504       0   10506   10507   10507       0
   10509   10510   10510       0   10512   10513   10513       0   10515   10516
   10516       0   10518   10519   10519       0   10521   10522   10522       0
   10524   10525   10525       0   10527   10528   10528       0   10530   10531
   10531       0   10533   10534   10534       0   10536   10537   10537       0
   10539   10540   10540       0   10542   10543   10543       0   10545   10546
   10546       0   10548   10549   10549       0   10551   10552   10552       0
   10554   10555   10555       0   10557   10558   10558       0   10560   10561
   10561       0   10563   10564   10564       0   10566   10567   10567       0
   10569   10570   10570       0   10572   10573   10573       0   10575   10576
   10576       0   10578   10579   10579       0   10581   10582   10582       0
   10584   10585   10585       0   10587   10588   10588       0   10590   10591
   10591       0   10593   10594   10594       0   10596   10597   10597       0
   10599   10600   10600       0   10602   10603   10603       0   10605   10606
   10606       0   10608   10609   10609       0   10611   10612   10612       0
   10614   10615   10615       0   10617   10618   10618       0   10620   10621
   10621       0   10623   10624   10624       0   10626   10627   10627       0
   10629   10630   10630       0   10632   10633   10633       0   10635   10636
   10636       0   10638   10639   10639       0   10641   10642   10642       0
   10644   10645   10645       0   10647   10648   10648       0   10650   10651
   10651       0   10653   10654   10654       0   10656   10657   10657       0
   10659   10660   10660       0   10662   10663   10663       0   10665   10666
   10666       0   10668   10669   10669       0   10671   10672   10672       0
   10674   10675   10675       0   10677   10678   10678       0   10680   10681
   10681       0   10683   10684   10684       0   10686   10687   10687       0
   10689   10690   10690       0   10692   10693   10693       0   10695   10696
   10696       0   10698   10699   10699       0   10701   10702   10702       0
   10704   10705   10705       0   10707   10708   10708       0   10710   10711
   10711       0   10713   10714   10714       0   10716   10717   10717       0
   10719   10720   10720       0   10722   10723   10723       0   10725   10726
   10726       0   10728   10729   10729       0   10731   10732   10732       0
   10734   10735   10735       0   10737   10738   10738       0   10740   10741
   10741       0   10743   10744   10744       0   10746   10747   10747       0
   10749   10750   10750       0   10752   10753   10753       0   10755   10756
   10756       0   10758   10759   10759       0   10761   10762   10762       0
   10764   10765   10765       0   10767   10768   10768       0   10770   10771
   10771       0   10773   10774   10774       0   10776   10777   10777       0
   10779   10780   10780       0   10782   10783   10783       0   10785   10786
   10786       0   10788   10789   10789       0   10791   10792   10792       0
   10794   10795   10795       0   10797   10798   10798       0   10800   10801
   10801       0   10803   10804   10804       0   10806   10807   10807       0
   10809   10810   10810       0   10812   10813   10813       0   10815   10816
   10816       0   10818   10819   10819       0   10821   10822   10822       0
   10824   10825   10825       0   10827   10828   10828       0   10830   10831
   10831       0   10833   10834   10834       0   10836   10837   10837       0
   10839   10840   10840       0   10842   10843   10843       0   10845   10846
   10846       0   10848   10849   10849       0   10851   10852   10852       0
   10854   10855   10855       0   10857   10858   10858       0   10860   10861
   10861       0   10863   10864   10864       0   10866   10867   10867       0
   10869   10870   10870       0   10872   10873   10873       0   10875   10876
   10876       0   10878   10879   10879       0   10881   10882   10882       0
   10884   10885   10885       0   10887   10888   10888       0   10890   10891
   10891       0   10893   10894   10894       0   10896   10897   10897       0
   10899   10900   10900       0   10902   10903   10903       0   10905   10906
   10906       0   10908   10909   10909       0   10911   10912   10912       0
   10914   10915   10915       0   10917   10918   10918       0   10920   10921
   10921       0   10923   10924   10924       0   10926   10927   10927       0
   10929   10930   10930       0   10932   10933   10933       0   10935   10936
   10936       0   10938   10939   10939       0   10941   10942   10942       0
   10944   10945   10945       0   10947   10948   10948       0   10950   10951
   10951       0   10953   10954   10954       0   10956   10957   10957       0
   10959   10960   10960       0   10962   10963   10963       0   10965   10966
   10966       0   10968   10969   10969       0   10971   10972   10972       0
   10974   10975   10975       0   10977   10978   10978       0   10980   10981
   10981       0   10983   10984   10984       0   10986   10987   10987       0
   10989   10990   10990       0   10992   10993   10993       0   10995   10996
   10996       0   10998   10999   10999       0   11001   11002   11002       0
   11004   11005   11005       0   11007   11008   11008       0   11010   11011
   11011       0   11013   11014   11014       0   11016   11017   11017       0
   11019   11020   11020       0   11022   11023   11023       0   11025   11026
   11026       0   11028   11029   11029       0   11031   11032   11032       0
   11034   11035   11035       0   11037   11038   11038       0   11040   11041
   11041       0   11043   11044   11044       0   11046   11047   11047       0
   11049   11050   11050       0   11052   11053   11053       0   11055   11056
   11056       0   11058   11059   11059       0   11061   11062   11062       0
   11064   11065   11065       0   11067   11068   11068       0   11070   11071
   11071       0   11073   11074   11074       0   11076   11077   11077       0
   11079   11080   11080       0   11082   11083   11083       0   11085   11086
   11086       0   11088   11089   11089       0   11091   11092   11092       0
   11094   11095   11095       0   11097   11098   11098       0   11100   11101
   11101       0   11103   11104   11104       0   11106   11107   11107       0
   11109   11110   11110       0   11112   11113   11113       0   11115   11116
   11116       0   11118   11119   11119       0   11121   11122   11122       0
   11124   11125   11125       0   11127   11128   11128       0   11130   11131
   11131       0   11133   11134   11134       0   11136   11137   11137       0
   11139   11140   11140       0   11142   11143   11143       0   11145   11146
   11146       0   11148   11149   11149       0   11151   11152   11152       0
   11154   11155   11155       0   11157   11158   11158       0   11160   11161
   11161       0   11163   11164   11164       0   11166   11167   11167       0
   11169   11170   11170       0   11172   11173   11173       0   11175   11176
   11176       0   11178   11179   11179       0   11181   11182   11182       0
   11184   11185   11185       0   11187   11188   11188       0   11190   11191
   11191       0   11193   11194   11194       0   11196   11197   11197       0
   11199   11200   11200       0   11202   11203   11203       0   11205   11206
   11206       0   11208   11209   11209       0   11211   11212   11212       0
   11214   11215   11215       0   11217   11218   11218       0   11220   11221
   11221       0   11223   11224   11224       0   11226   11227   11227       0
   11229   11230   11230       0   11232   11233   11233       0   11235   11236
   11236       0   11238   11239   11239       0   11241   11242   11242       0
   11244   11245   11245       0   11247   11248   11248       0   11250   11251
   11251       0   11253   11254   11254       0   11256   11257   11257       0
   11259   11260   11260       0   11262   11263   11263       0   11265   11266
   11266       0   11268   11269   11269       0   11271   11272   11272       0
   11274   11275   11275       0   11277   11278   11278       0   11280   11281
   11281       0   11283   11284   11284       0   11286   11287   11287       0
   11289   11290   11290       0   11292   11293   11293       0   11295   11296
   11296       0   11298   11299   11299       0   11301   11302   11302       0
   11304   11305   11305       0   11307   11308   11308       0   11310   11311
   11311       0   11313   11314   11314       0   11316   11317   11317       0
   11319   11320   11320       0   11322   11323   11323       0   11325   11326
   11326       0   11328   11329   11329       0   11331   11332   11332       0
   11334   11335   11335       0   11337   11338   11338       0   11340   11341
   11341       0   11343   11344   11344       0   11346   11347   11347       0
   11349   11350   11350       0   11352   11353   11353       0   11355   11356
   11356       0   11358   11359   11359       0   11361   11362   11362       0
   11364   11365   11365       0   11367   11368   11368       0   11370   11371
   11371       0   11373   11374   11374       0   11376   11377   11377       0
   11379   11380   11380       0   11382   11383   11383       0   11385   11386
   11386       0   11388   11389   11389       0   11391   11392   11392       0
   11394   11395   11395       0   11397   11398   11398       0   11400   11401
   11401       0   11403   11404   11404       0   11406   11407   11407       0
   11409   11410   11410       0   11412   11413   11413       0   11415   11416
   11416       0   11418   11419   11419       0   11421   11422   11422       0
   11424   11425   11425       0   11427   11428   11428       0   11430   11431
   11431       0   11433   11434   11434       0   11436   11437   11437       0
   11439   11440   11440       0   11442   11443   11443       0   11445   11446
   11446       0   11448   11449   11449       0   11451   11452   11452       0
   11454   11455   11455       0   11457   11458   11458       0   11460   11461
   11461       0   11463   11464   11464       0   11466   11467   11467       0
   11469   11470   11470       0   11472   11473   11473       0   11475   11476
   11476       0   11478   11479   11479       0   11481   11482   11482       0
   11484   11485   11485       0   11487   11488   11488       0   11490   11491
   11491       0   11493   11494   11494       0   11496   11497   11497       0
   11499   11500   11500       0   11502   11503   11503       0   11505   11506
   11506       0   11508   11509   11509       0   11511   11512   11512       0
   11514   11515   11515       0   11517   11518   11518       0   11520   11521
   11521       0   11523   11524   11524       0   11526   11527   11527       0
   11529   11530   11530       0   11532   11533   11533       0   11535   11536
   11536       0   11538   11539   11539       0   11541   11542   11542       0
   11544   11545   11545       0   11547   11548   11548       0   11550   11551
   11551       0   11553   11554   11554       0   11556   11557   11557       0
   11559   11560   11560       0   11562   11563   11563       0   11565   11566
   11566       0   11568   11569   11569       0   11571   11572   11572       0
   11574   11575   11575       0   11577   11578   11578       0   11580   11581
   11581       0   11583   11584   11584       0   11586   11587   11587       0
   11589   11590   11590       0   11592   11593   11593       0   11595   11596
   11596       0   11598   11599   11599       0   11601   11602   11602       0
   11604   11605   11605       0   11607   11608   11608       0   11610   11611
   11611       0   11613   11614   11614       0   11616   11617   11617       0
   11619   11620   11620       0   11622   11623   11623       0   11625   11626
   11626       0   11628   11629   11629       0   11631   11632   11632       0
   11634   11635   11635       0   11637   11638   11638       0   11640   11641
   11641       0   11643   11644   11644       0   11646   11647   11647       0
   11649   11650   11650       0   11652   11653   11653       0   11655   11656
   11656       0   11658   11659   11659       0   11661   11662   11662       0
   11664   11665   11665       0   11667   11668   11668       0   11670   11671
   11671       0   11673   11674   11674       0   11676   11677   11677       0
   11679   11680   11680       0   11682   11683   11683       0   11685   11686
   11686       0   11688   11689   11689       0   11691   11692   11692       0
   11694   11695   11695       0   11697   11698   11698       0   11700   11701
   11701       0   11703   11704   11704       0   11706   11707   11707       0
   11709   11710   11710       0   11712   11713   11713       0   11715   11716
   11716       0   11718   11719   11719       0   11721   11722   11722       0
   11724   11725   11725       0   11727   11728   11728       0   11730   11731
   11731       0   11733   11734   11734       0   11736   11737   11737       0
   11739   11740   11740       0   11742   11743   11743       0   11745   11746
   11746       0   11748   11749   11749       0   11751   11752   11752       0
   11754   11755   11755       0   11757   11758   11758       0   11760   11761
   11761       0   11763   11764   11764       0   11766   11767   11767       0
   11769   11770   11770       0   11772   11773   11773       0   11775   11776
   11776       0   11778   11779   11779       0   11781   11782   11782       0
   11784   11785   11785       0   11787   11788   11788       0   11790   11791
   11791       0   11793   11794   11794       0   11796   11797   11797       0
   11799   11800   11800       0   11802   11803   11803       0   11805   11806
   11806       0   11808   11809   11809       0   11811   11812   11812       0
   11814   11815   11815       0   11817   11818   11818       0   11820   11821
   11821       0   11823   11824   11824       0   11826   11827   11827       0
   11829   11830   11830       0   11832   11833   11833       0   11835   11836
   11836       0   11838   11839   11839       0   11841   11842   11842       0
   11844   11845   11845       0   11847   11848   11848       0   11850   11851
   11851       0   11853   11854   11854       0   11856   11857   11857       0
   11859   11860   11860       0   11862   11863   11863       0   11865   11866
   11866       0   11868   11869   11869       0   11871   11872   11872       0
   11874   11875   11875       0   11877   11878   11878       0   11880   11881
   11881       0   11883   11884   11884       0   11886   11887   11887       0
   11889   11890   11890       0   11892   11893   11893       0   11895   11896
   11896       0   11898   11899   11899       0   11901   11902   11902       0
   11904   11905   11905       0   11907   11908   11908       0   11910   11911
   11911       0   11913   11914   11914       0   11916   11917   11917       0
   11919   11920   11920       0   11922   11923   11923       0   11925   11926
   11926       0   11928   11929   11929       0   11931   11932   11932       0
   11934   11935   11935       0   11937   11938   11938       0   11940   11941
   11941       0   11943   11944   11944       0   11946   11947   11947       0
   11949   11950   11950       0   11952   11953   11953       0   11955   11956
   11956       0   11958   11959   11959       0   11961   11962   11962       0
   11964   11965   11965       0   11967   11968   11968       0   11970   11971
   11971       0   11973   11974   11974       0   11976   11977   11977       0
   11979   11980   11980       0   11982   11983   11983       0   11985   11986
   11986       0   11988   11989   11989       0   11991   11992   11992       0
   11994   11995   11995       0   11997   11998   11998       0   12000   12001
   12001       0   12003   12004   12004       0   12006   12007   12007       0
   12009   12010   12010       0   12012   12013   12013       0   12015   12016
   12016       0   12018   12019   12019       0   12021   12022   12022       0
   12024   12025   12025       0   12027   12028   12028       0   12030   12031
   12031       0   12033   12034   12034       0   12036   12037   12037       0
   12039   12040   12040       0   12042   12043   12043       0   12045   12046
   12046       0   12048   12049   12049       0   12051   12052   12052       0
   12054   12055   12055       0   12057   12058   12058       0   12060   12061
   12061       0   12063   12064   12064       0   12066   12067   12067       0
   12069   12070   12070       0   12072   12073   12073       0   12075   12076
   12076       0   12078   12079   12079       0   12081   12082   12082       0
   12084   12085   12085       0   12087   12088   12088       0   12090   12091
   12091       0   12093   12094   12094       0   12096   12097   12097       0
   12099   12100   12100       0   12102   12103   12103       0   12105   12106
   12106       0   12108   12109   12109       0   12111   12112   12112       0
   12114   12115   12115       0   12117   12118   12118       0   12120   12121
   12121       0   12123   12124   12124       0   12126   12127   12127       0
   12129   12130   12130       0   12132   12133   12133       0   12135   12136
   12136       0   12138   12139   12139       0   12141   12142   12142       0
   12144   12145   12145       0   12147   12148   12148       0   12150   12151
   12151       0   12153   12154   12154       0   12156   12157   12157       0
   12159   12160   12160       0   12162   12163   12163       0   12165   12166
   12166       0   12168   12169   12169       0   12171   12172   12172       0
   12174   12175   12175       0   12177   12178   12178       0   12180   12181
   12181       0   12183   12184   12184       0   12186   12187   12187       0
   12189   12190   12190       0   12192   12193   12193       0   12195   12196
   12196       0   12198   12199   12199       0   12201   12202   12202       0
   12204   12205   12205       0   12207   12208   12208       0   12210   12211
   12211       0   12213   12214   12214       0   12216   12217   12217       0
   12219   12220   12220       0   12222   12223   12223       0   12225   12226
   12226       0   12228   12229   12229       0   12231   12232   12232       0
   12234   12235   12235       0   12237   12238   12238       0   12240   12241
   12241       0   12243   12244   12244       0   12246   12247   12247       0
   12249   12250   12250       0   12252   12253   12253       0   12255   12256
   12256       0   12258   12259   12259       0   12261   12262   12262       0
   12264   12265   12265       0   12267   12268   12268       0   12270   12271
   12271       0   12273   12274   12274       0   12276   12277   12277       0
   12279   12280   12280       0   12282   12283   12283       0   12285   12286
   12286       0   12288   12289   12289       0   12291   12292   12292       0
   12294   12295   12295       0   12297   12298   12298       0   12300   12301
   12301       0   12303   12304   12304       0   12306   12307   12307       0
   12309   12310   12310       0   12312   12313   12313       0   12315   12316
   12316       0   12318   12319   12319       0   12321   12322   12322       0
   12324   12325   12325       0   12327   12328   12328       0   12330   12331
   12331       0   12333   12334   12334       0   12336   12337   12337       0
   12339   12340   12340       0   12342   12343   12343       0   12345   12346
   12346       0   12348   12349   12349       0   12351   12352   12352       0
   12354   12355   12355       0   12357   12358   12358       0   12360   12361
   12361       0   12363   12364   12364       0   12366   12367   12367       0
   12369   12370   12370       0   12372   12373   12373       0   12375   12376
   12376       0   12378   12379   12379       0   12381   12382   12382       0
   12384   12385   12385       0   12387   12388   12388       0   12390   12391
   12391       0   12393   12394   12394       0   12396   12397   12397       0
   12399   12400   12400       0   12402   12403   12403       0   12405   12406
   12406       0   12408   12409   12409       0   12411   12412   12412       0
   12414   12415   12415       0   12417   12418   12418       0   12420   12421
   12421       0   12423   12424   12424       0   12426   12427   12427       0
   12429   12430   12430       0   12432   12433   12433       0   12435   12436
   12436       0   12438   12439   12439       0   12441   12442   12442       0
   12444   12445   12445       0   12447   12448   12448       0   12450   12451
   12451       0   12453   12454   12454       0   12456   12457   12457       0
   12459   12460   12460       0   12462   12463   12463       0   12465   12466
   12466       0   12468   12469   12469       0   12471   12472   12472       0
   12474   12475   12475       0   12477   12478   12478       0   12480   12481
   12481       0   12483   12484   12484       0   12486   12487   12487       0
   12489   12490   12490       0   12492   12493   12493       0   12495   12496
   12496       0   12498   12499   12499       0   12501   12502   12502       0
   12504   12505   12505       0   12507   12508   12508       0   12510   12511
   12511       0   12513   12514   12514       0   12516   12517   12517       0
   12519   12520   12520       0   12522   12523   12523       0   12525   12526
   12526       0   12528   12529   12529       0   12531   12532   12532       0
   12534   12535   12535       0   12537   12538   12538       0   12540   12541
   12541       0   12543   12544   12544       0   12546   12547   12547       0
   12549   12550   12550       0   12552   12553   12553       0   12555   12556
   12556       0   12558   12559   12559       0   12561   12562   12562       0
   12564   12565   12565       0   12567   12568   12568       0   12570   12571
   12571       0   12573   12574   12574       0   12576   12577   12577       0
   12579   12580   12580       0   12582   12583   12583       0   12585   12586
   12586       0   12588   12589   12589       0   12591   12592   12592       0
   12594   12595   12595       0   12597   12598   12598       0   12600   12601
   12601       0   12603   12604   12604       0   12606   12607   12607       0
   12609   12610   12610       0   12612   12613   12613       0   12615   12616
   12616       0   12618   12619   12619       0   12621   12622   12622       0
   12624   12625   12625       0   12627   12628   12628       0   12630   12631
   12631       0   12633   12634   12634       0   12636   12637   12637       0
   12639   12640   12640       0   12642   12643   12643       0   12645   12646
   12646       0   12648   12649   12649       0   12651   12652   12652       0
   12654   12655   12655       0   12657   12658   12658       0   12660   12661
   12661       0   12663   12664   12664       0   12666   12667   12667       0
   12669   12670   12670       0   12672   12673   12673       0   12675   12676
   12676       0   12678   12679   12679       0   12681   12682   12682       0
   12684   12685   12685       0   12687   12688   12688       0   12690   12691
   12691       0   12693   12694   12694       0   12696   12697   12697       0
   12699   12700   12700       0   12702   12703   12703       0   12705   12706
   12706       0   12708   12709   12709       0   12711   12712   12712       0
   12714   12715   12715       0   12717   12718   12718       0   12720   12721
   12721       0   12723   12724   12724       0   12726   12727   12727       0
   12729   12730   12730       0   12732   12733   12733       0   12735   12736
   12736       0   12738   12739   12739       0   12741   12742   12742       0
   12744   12745   12745       0   12747   12748   12748       0   12750   12751
   12751       0   12753   12754   12754       0   12756   12757   12757       0
   12759   12760   12760       0   12762   12763   12763       0   12765   12766
   12766       0   12768   12769   12769       0   12771   12772   12772       0
   12774   12775   12775       0   12777   12778   12778       0   12780   12781
   12781       0   12783   12784   12784       0   12786   12787   12787       0
   12789   12790   12790       0   12792   12793   12793       0   12795   12796
   12796       0   12798   12799   12799       0   12801   12802   12802       0
   12804   12805   12805       0   12807   12808   12808       0   12810   12811
   12811       0   12813   12814   12814       0   12816   12817   12817       0
   12819   12820   12820       0   12822   12823   12823       0   12825   12826
   12826       0   12828   12829   12829       0   12831   12832   12832       0
   12834   12835   12835       0   12837   12838   12838       0   12840   12841
   12841       0   12843   12844   12844       0   12846   12847   12847       0
   12849   12850   12850       0   12852   12853   12853       0   12855   12856
   12856       0   12858   12859   12859       0   12861   12862   12862       0
   12864   12865   12865       0   12867   12868   12868       0   12870   12871
   12871       0   12873   12874   12874       0   12876   12877   12877       0
   12879   12880   12880       0   12882   12883   12883       0   12885   12886
   12886       0   12888   12889   12889       0   12891   12892   12892       0
   12894   12895   12895       0   12897   12898   12898       0   12900   12901
   12901       0   12903   12904   12904       0   12906   12907   12907       0
   12909   12910   12910       0   12912   12913   12913       0   12915   12916
   12916       0   12918   12919   12919       0   12921   12922   12922       0
   12924   12925   12925       0   12927   12928   12928       0   12930   12931
   12931       0   12933   12934   12934       0   12936   12937   12937       0
   12939   12940   12940       0   12942   12943   12943       0   12945   12946
   12946       0   12948   12949   12949       0   12951   12952   12952       0
   12954   12955   12955       0   12957   12958   12958       0   12960   12961
   12961       0   12963   12964   12964       0   12966   12967   12967       0
   12969   12970   12970       0   12972   12973   12973       0   12975   12976
   12976       0   12978   12979   12979       0   12981   12982   12982       0
   12984   12985   12985       0   12987   12988   12988       0   12990   12991
   12991       0   12993   12994   12994       0   12996   12997   12997       0
   12999   13000   13000       0   13002   13003   13003       0   13005   13006
   13006       0   13008   13009   13009       0   13011   13012   13012       0
   13014   13015   13015       0   13017   13018   13018       0   13020   13021
   13021       0   13023   13024   13024       0   13026   13027   13027       0
   13029   13030   13030       0   13032   13033   13033       0   13035   13036
   13036       0   13038   13039   13039       0   13041   13042   13042       0
   13044   13045   13045       0   13047   13048   13048       0   13050   13051
   13051       0   13053   13054   13054       0   13056   13057   13057       0
   13059   13060   13060       0   13062   13063   13063       0   13065   13066
   13066       0   13068   13069   13069       0   13071   13072   13072       0
   13074   13075   13075       0   13077   13078   13078       0   13080   13081
   13081       0   13083   13084   13084       0   13086   13087   13087       0
   13089   13090   13090       0   13092   13093   13093       0   13095   13096
   13096       0   13098   13099   13099       0   13101   13102   13102       0
   13104   13105   13105       0   13107   13108   13108       0   13110   13111
   13111       0   13113   13114   13114       0   13116   13117   13117       0
   13119   13120   13120       0   13122   13123   13123       0   13125   13126
   13126       0   13128   13129   13129       0   13131   13132   13132       0
   13134   13135   13135       0   13137   13138   13138       0   13140   13141
   13141       0   13143   13144   13144       0   13146   13147   13147       0
   13149   13150   13150       0   13152   13153   13153       0   13155   13156
   13156       0   13158   13159   13159       0   13161   13162   13162       0
   13164   13165   13165       0   13167   13168   13168       0   13170   13171
   13171       0   13173   13174   13174       0   13176   13177   13177       0
   13179   13180   13180       0   13182   13183   13183       0   13185   13186
   13186       0   13188   13189   13189       0   13191   13192   13192       0
   13194   13195   13195       0   13197   13198   13198       0   13200   13201
   13201       0   13203   13204   13204       0   13206   13207   13207       0
   13209   13210   13210       0   13212   13213   13213       0   13215   13216
   13216       0   13218   13219   13219       0   13221   13222   13222       0
   13224   13225   13225       0   13227   13228   13228       0   13230   13231
   13231       0   13233   13234   13234       0   13236   13237   13237       0
   13239   13240   13240       0   13242   13243   13243       0   13245   13246
   13246       0   13248   13249   13249       0   13251   13252   13252       0
   13254   13255   13255       0   13257   13258   13258       0   13260   13261
   13261       0   13263   13264   13264       0   13266   13267   13267       0
   13269   13270   13270       0   13272   13273   13273       0   13275   13276
   13276       0   13278   13279   13279       0   13281   13282   13282       0
   13284   13285   13285       0   13287   13288   13288       0   13290   13291
   13291       0   13293   13294   13294       0   13296   13297   13297       0
   13299   13300   13300       0   13302   13303   13303       0   13305   13306
   13306       0   13308   13309   13309       0   13311   13312   13312       0
   13314   13315   13315       0   13317   13318   13318       0   13320   13321
   13321       0   13323   13324   13324       0   13326   13327   13327       0
   13329   13330   13330       0   13332   13333   13333       0   13335   13336
   13336       0   13338   13339   13339       0   13341   13342   13342       0
   13344   13345   13345       0   13347   13348   13348       0   13350   13351
   13351       0   13353   13354   13354       0   13356   13357   13357       0
   13359   13360   13360       0   13362   13363   13363       0   13365   13366
   13366       0   13368   13369   13369       0   13371   13372   13372       0
   13374   13375   13375       0   13377   13378   13378       0   13380   13381
   13381       0   13383   13384   13384       0   13386   13387   13387       0
   13389   13390   13390       0   13392   13393   13393       0   13395   13396
   13396       0   13398   13399   13399       0   13401   13402   13402       0
   13404   13405   13405       0   13407   13408   13408       0   13410   13411
   13411       0   13413   13414   13414       0   13416   13417   13417       0
   13419   13420   13420       0   13422   13423   13423       0   13425   13426
   13426       0   13428   13429   13429       0   13431   13432   13432       0
   13434   13435   13435       0   13437   13438   13438       0   13440   13441
   13441       0   13443   13444   13444       0   13446   13447   13447       0
   13449   13450   13450       0   13452   13453   13453       0   13455   13456
   13456       0   13458   13459   13459       0   13461   13462   13462       0
   13464   13465   13465       0   13467   13468   13468       0   13470   13471
   13471       0   13473   13474   13474       0   13476   13477   13477       0
   13479   13480   13480       0   13482   13483   13483       0   13485   13486
   13486       0   13488   13489   13489       0   13491   13492   13492       0
   13494   13495   13495       0   13497   13498   13498       0   13500   13501
   13501       0   13503   13504   13504       0   13506   13507   13507       0
   13509   13510   13510       0   13512   13513   13513       0   13515   13516
   13516       0   13518   13519   13519       0   13521   13522   13522       0
   13524   13525   13525       0   13527   13528   13528       0   13530   13531
   13531       0   13533   13534   13534       0   13536   13537   13537       0
   13539   13540   13540       0   13542   13543   13543       0   13545   13546
   13546       0   13548   13549   13549       0   13551   13552   13552       0
   13554   13555   13555       0   13557   13558   13558       0   13560   13561
   13561       0   13563   13564   13564       0   13566   13567   13567       0
   13569   13570   13570       0   13572   13573   13573       0   13575   13576
   13576       0   13578   13579   13579       0   13581   13582   13582       0
   13584   13585   13585       0   13587   13588   13588       0   13590   13591
   13591       0   13593   13594   13594       0   13596   13597   13597       0
   13599   13600   13600       0   13602   13603   13603       0   13605   13606
   13606       0   13608   13609   13609       0   13611   13612   13612       0
   13614   13615   13615       0   13617   13618   13618       0   13620   13621
   13621       0   13623   13624   13624       0   13626   13627   13627       0
   13629   13630   13630       0   13632   13633   13633       0   13635   13636
   13636       0   13638   13639   13639       0   13641   13642   13642       0
   13644   13645   13645       0   13647   13648   13648       0   13650   13651
   13651       0   13653   13654   13654       0   13656   13657   13657       0
   13659   13660   13660       0   13662   13663   13663       0   13665   13666
   13666       0   13668   13669   13669       0   13671   13672   13672       0
   13674   13675   13675       0   13677   13678   13678       0   13680   13681
   13681       0   13683   13684   13684       0   13686   13687   13687       0
   13689   13690   13690       0   13692   13693   13693       0   13695   13696
   13696       0   13698   13699   13699       0   13701   13702   13702       0
   13704   13705   13705       0   13707   13708   13708       0   13710   13711
   13711       0   13713   13714   13714       0   13716   13717   13717       0
   13719   13720   13720       0   13722   13723   13723       0   13725   13726
   13726       0   13728   13729   13729       0   13731   13732   13732       0
   13734   13735   13735       0   13737   13738   13738       0   13740   13741
   13741       0   13743   13744   13744       0   13746   13747   13747       0
   13749   13750   13750       0   13752   13753   13753       0   13755   13756
   13756       0   13758   13759   13759       0   13761   13762   13762       0
   13764   13765   13765       0   13767   13768   13768       0   13770   13771
   13771       0   13773   13774   13774       0   13776   13777   13777       0
   13779   13780   13780       0   13782   13783   13783       0   13785   13786
   13786       0   13788   13789   13789       0   13791   13792   13792       0
   13794   13795   13795       0   13797   13798   13798       0   13800   13801
   13801       0   13803   13804   13804       0   13806   13807   13807       0
   13809   13810   13810       0   13812   13813   13813       0   13815   13816
   13816       0   13818   13819   13819       0   13821   13822   13822       0
   13824   13825   13825       0   13827   13828   13828       0   13830   13831
   13831       0   13833   13834   13834       0   13836   13837   13837       0
   13839   13840   13840       0   13842   13843   13843       0   13845   13846
   13846       0   13848   13849   13849       0   13851   13852   13852       0
   13854   13855   13855       0   13857   13858   13858       0   13860   13861
   13861       0   13863   13864   13864       0   13866   13867   13867       0
   13869   13870   13870       0   13872   13873   13873       0   13875   13876
   13876       0   13878   13879   13879       0   13881   13882   13882       0
   13884   13885   13885       0   13887   13888   13888       0   13890   13891
   13891       0   13893   13894   13894       0   13896   13897   13897       0
   13899   13900   13900       0   13902   13903   13903       0   13905   13906
   13906       0   13908   13909   13909       0   13911   13912   13912       0
   13914   13915   13915       0   13917   13918   13918       0   13920   13921
   13921       0   13923   13924   13924       0   13926   13927   13927       0
   13929   13930   13930       0   13932   13933   13933       0   13935   13936
   13936       0   13938   13939   13939       0   13941   13942   13942       0
   13944   13945   13945       0   13947   13948   13948       0   13950   13951
   13951       0   13953   13954   13954       0   13956   13957   13957       0
   13959   13960   13960       0   13962   13963   13963       0   13965   13966
   13966       0   13968   13969   13969       0   13971   13972   13972       0
   13974   13975   13975       0   13977   13978   13978       0   13980   13981
   13981       0   13983   13984   13984       0   13986   13987   13987       0
   13989   13990   13990       0   13992   13993   13993       0   13995   13996
   13996       0   13998   13999   13999       0   14001   14002   14002       0
   14004   14005   14005       0   14007   14008   14008       0   14010   14011
   14011       0   14013   14014   14014       0   14016   14017   14017       0
   14019   14020   14020       0   14022   14023   14023       0   14025   14026
   14026       0   14028   14029   14029       0   14031   14032   14032       0
   14034   14035   14035       0   14037   14038   14038       0   14040   14041
   14041       0   14043   14044   14044       0   14046   14047   14047       0
   14049   14050   14050       0   14052   14053   14053       0   14055   14056
   14056       0   14058   14059   14059       0   14061   14062   14062       0
   14064   14065   14065       0   14067   14068   14068       0   14070   14071
   14071       0   14073   14074   14074       0   14076   14077   14077       0
   14079   14080   14080       0   14082   14083   14083       0   14085   14086
   14086       0   14088   14089   14089       0   14091   14092   14092       0
   14094   14095   14095       0   14097   14098   14098       0   14100   14101
   14101       0   14103   14104   14104       0   14106   14107   14107       0
   14109   14110   14110       0   14112   14113   14113       0   14115   14116
   14116       0   14118   14119   14119       0   14121   14122   14122       0
   14124   14125   14125       0   14127   14128   14128       0   14130   14131
   14131       0   14133   14134   14134       0   14136   14137   14137       0
   14139   14140   14140       0   14142   14143   14143       0   14145   14146
   14146       0   14148   14149   14149       0   14151   14152   14152       0
   14154   14155   14155       0   14157   14158   14158       0   14160   14161
   14161       0   14163   14164   14164       0   14166   14167   14167       0
   14169   14170   14170       0   14172   14173   14173       0   14175   14176
   14176       0   14178   14179   14179       0   14181   14182   14182       0
   14184   14185   14185       0   14187   14188   14188       0   14190   14191
   14191       0   14193   14194   14194       0   14196   14197   14197       0
   14199   14200   14200       0   14202   14203   14203       0   14205   14206
   14206       0   14208   14209   14209       0   14211   14212   14212       0
   14214   14215   14215       0   14217   14218   14218       0   14220   14221
   14221       0   14223   14224   14224       0   14226   14227   14227       0
   14229   14230   14230       0   14232   14233   14233       0   14235   14236
   14236       0   14238   14239   14239       0   14241   14242   14242       0
   14244   14245   14245       0   14247   14248   14248       0   14250   14251
   14251       0   14253   14254   14254       0   14256   14257   14257       0
   14259   14260   14260       0   14262   14263   14263       0   14265   14266
   14266       0   14268   14269   14269       0   14271   14272   14272       0
   14274   14275   14275       0   14277   14278   14278       0   14280   14281
   14281       0   14283   14284   14284       0   14286   14287   14287       0
   14289   14290   14290       0   14292   14293   14293       0   14295   14296
   14296       0   14298   14299   14299       0   14301   14302   14302       0
   14304   14305   14305       0   14307   14308   14308       0   14310   14311
   14311       0   14313   14314   14314       0   14316   14317   14317       0
   14319   14320   14320       0   14322   14323   14323       0   14325   14326
   14326       0   14328   14329   14329       0   14331   14332   14332       0
   14334   14335   14335       0   14337   14338   14338       0   14340   14341
   14341       0   14343   14344   14344       0   14346   14347   14347       0
   14349   14350   14350       0   14352   14353   14353       0   14355   14356
   14356       0   14358   14359   14359       0   14361   14362   14362       0
   14364   14365   14365       0   14367   14368   14368       0   14370   14371
   14371       0   14373   14374   14374       0   14376   14377   14377       0
   14379   14380   14380       0   14382   14383   14383       0   14385   14386
   14386       0   14388   14389   14389       0   14391   14392   14392       0
   14394   14395   14395       0   14397   14398   14398       0   14400   14401
   14401       0   14403   14404   14404       0   14406   14407   14407       0
   14409   14410   14410       0   14412   14413   14413       0   14415   14416
   14416       0   14418   14419   14419       0   14421   14422   14422       0
   14424   14425   14425       0   14427   14428   14428       0   14430   14431
   14431       0   14433   14434   14434       0   14436   14437   14437       0
   14439   14440   14440       0   14442   14443   14443       0   14445   14446
   14446       0   14448   14449   14449       0   14451   14452   14452       0
   14454   14455   14455       0   14457   14458   14458       0   14460   14461
   14461       0   14463   14464   14464       0   14466   14467   14467       0
   14469   14470   14470       0   14472   14473   14473       0   14475   14476
   14476       0   14478   14479   14479       0   14481   14482   14482       0
   14484   14485   14485       0   14487   14488   14488       0   14490   14491
   14491       0   14493   14494   14494       0   14496   14497   14497       0
   14499   14500   14500       0   14502   14503   14503       0   14505   14506
   14506       0   14508   14509   14509       0   14511   14512   14512       0
   14514   14515   14515       0   14517   14518   14518       0   14520   14521
   14521       0   14523   14524   14524       0   14526   14527   14527       0
   14529   14530   14530       0   14532   14533   14533       0   14535   14536
   14536       0   14538   14539   14539       0   14541   14542   14542       0
   14544   14545   14545       0   14547   14548   14548       0   14550   14551
   14551       0   14553   14554   14554       0   14556   14557   14557       0
   14559   14560   14560       0   14562   14563   14563       0   14565   14566
   14566       0   14568   14569   14569       0   14571   14572   14572       0
   14574   14575   14575       0   14577   14578   14578       0   14580   14581
   14581       0   14583   14584   14584       0   14586   14587   14587       0
   14589   14590   14590       0   14592   14593   14593       0   14595   14596
   14596       0   14598   14599   14599       0   14601   14602   14602       0
   14604   14605   14605       0   14607   14608   14608       0   14610   14611
   14611       0   14613   14614   14614       0   14616   14617   14617       0
   14619   14620   14620       0   14622   14623   14623       0   14625   14626
   14626       0   14628   14629   14629       0   14631   14632   14632       0
   14634   14635   14635       0   14637   14638   14638       0   14640   14641
   14641       0   14643   14644   14644       0   14646   14647   14647       0
   14649   14650   14650       0   14652   14653   14653       0   14655   14656
   14656       0   14658   14659   14659       0   14661   14662   14662       0
   14664   14665   14665       0   14667   14668   14668       0   14670   14671
   14671       0   14673   14674   14674       0   14676   14677   14677       0
   14679   14680   14680       0   14682   14683   14683       0   14685   14686
   14686       0   14688   14689   14689       0   14691   14692   14692       0
   14694   14695   14695       0   14697   14698   14698       0   14700   14701
   14701       0   14703   14704   14704       0   14706   14707   14707       0
   14709   14710   14710       0   14712   14713   14713       0   14715   14716
   14716       0   14718   14719   14719       0   14721   14722   14722       0
   14724   14725   14725       0   14727   14728   14728       0   14730   14731
   14731       0   14733   14734   14734       0   14736   14737   14737       0
   14739   14740   14740       0   14742   14743   14743       0   14745   14746
   14746       0   14748   14749   14749       0   14751   14752   14752       0
   14754   14755   14755       0   14757   14758   14758       0   14760   14761
   14761       0   14763   14764   14764       0   14766   14767   14767       0
   14769   14770   14770       0   14772   14773   14773       0   14775   14776
   14776       0   14778   14779   14779       0   14781   14782   14782       0
   14784   14785   14785       0   14787   14788   14788       0   14790   14791
   14791       0   14793   14794   14794       0   14796   14797   14797       0
   14799   14800   14800       0   14802   14803   14803       0   14805   14806
   14806       0   14808   14809   14809       0   14811   14812   14812       0
   14814   14815   14815       0   14817   14818   14818       0   14820   14821
   14821       0   14823   14824   14824       0   14826   14827   14827       0
   14829   14830   14830       0   14832   14833   14833       0   14835   14836
   14836       0   14838   14839   14839       0   14841   14842   14842       0
   14844   14845   14845       0   14847   14848   14848       0   14850   14851
   14851       0   14853   14854   14854       0   14856   14857   14857       0
   14859   14860   14860       0   14862   14863   14863       0   14865   14866
   14866       0   14868   14869   14869       0   14871   14872   14872       0
   14874   14875   14875       0   14877   14878   14878       0   14880   14881
   14881       0   14883   14884   14884       0   14886   14887   14887       0
   14889   14890   14890       0   14892   14893   14893       0   14895   14896
   14896       0   14898   14899   14899       0   14901   14902   14902       0
   14904   14905   14905       0   14907   14908   14908       0   14910   14911
   14911       0   14913   14914   14914       0   14916   14917   14917       0
   14919   14920   14920       0   14922   14923   14923       0   14925   14926
   14926       0   14928   14929   14929       0   14931   14932   14932       0
   14934   14935   14935       0   14937   14938   14938       0   14940   14941
   14941       0   14943   14944   14944       0   14946   14947   14947       0
   14949   14950   14950       0   14952   14953   14953       0   14955   14956
   14956       0   14958   14959   14959       0   14961   14962   14962       0
   14964   14965   14965       0   14967   14968   14968       0   14970   14971
   14971       0   14973   14974   14974       0   14976   14977   14977       0
   14979   14980   14980       0   14982   14983   14983       0   14985   14986
   14986       0   14988   14989   14989       0   14991   14992   14992       0
   14994   14995   14995       0   14997   14998   14998       0   15000   15001
   15001       0   15003   15004   15004       0   15006   15007   15007       0
   15009   15010   15010       0   15012   15013   15013       0   15015   15016
   15016       0   15018   15019   15019       0   15021   15022   15022       0
   15024   15025   15025       0   15027   15028   15028       0   15030   15031
   15031       0   15033   15034   15034       0   15036   15037   15037       0
   15039   15040   15040       0   15042   15043   15043       0   15045   15046
   15046       0   15048   15049   15049       0   15051   15052   15052       0
   15054   15055   15055       0   15057   15058   15058       0   15060   15061
   15061       0   15063   15064   15064       0   15066   15067   15067       0
   15069   15070   15070       0   15072   15073   15073       0   15075   15076
   15076       0   15078   15079   15079       0   15081   15082   15082       0
   15084   15085   15085       0   15087   15088   15088       0   15090   15091
   15091       0   15093   15094   15094       0   15096   15097   15097       0
   15099   15100   15100       0   15102   15103   15103       0   15105   15106
   15106       0   15108   15109   15109       0   15111   15112   15112       0
   15114   15115   15115       0   15117   15118   15118       0   15120   15121
   15121       0   15123   15124   15124       0   15126   15127   15127       0
   15129   15130   15130       0   15132   15133   15133       0   15135   15136
   15136       0   15138   15139   15139       0   15141   15142   15142       0
   15144   15145   15145       0   15147   15148   15148       0   15150   15151
   15151       0   15153   15154   15154       0   15156   15157   15157       0
   15159   15160   15160       0   15162   15163   15163       0   15165   15166
   15166       0   15168   15169   15169       0   15171   15172   15172       0
   15174   15175   15175       0   15177   15178   15178       0   15180   15181
   15181       0   15183   15184   15184       0   15186   15187   15187       0
   15189   15190   15190       0   15192   15193   15193       0   15195   15196
   15196       0   15198   15199   15199       0   15201   15202   15202       0
   15204   15205   15205       0   15207   15208   15208       0   15210   15211
   15211       0   15213   15214   15214       0   15216   15217   15217       0
   15219   15220   15220       0   15222   15223   15223       0   15225   15226
   15226       0   15228   15229   15229       0   15231   15232   15232       0
   15234   15235   15235       0   15237   15238   15238       0   15240   15241
   15241       0   15243   15244   15244       0   15246   15247   15247       0
   15249   15250   15250       0   15252   15253   15253       0   15255   15256
   15256       0   15258   15259   15259       0   15261   15262   15262       0
   15264   15265   15265       0   15267   15268   15268       0   15270   15271
   15271       0   15273   15274   15274       0   15276   15277   15277       0
   15279   15280   15280       0   15282   15283   15283       0   15285   15286
   15286       0   15288   15289   15289       0   15291   15292   15292       0
   15294   15295   15295       0   15297   15298   15298       0   15300   15301
   15301       0   15303   15304   15304       0   15306   15307   15307       0
   15309   15310   15310       0   15312   15313   15313       0   15315   15316
   15316       0   15318   15319   15319       0   15321   15322   15322       0
   15324   15325   15325       0   15327   15328   15328       0   15330   15331
   15331       0   15333   15334   15334       0   15336   15337   15337       0
   15339   15340   15340       0   15342   15343   15343       0   15345   15346
   15346       0   15348   15349   15349       0   15351   15352   15352       0
   15354   15355   15355       0   15357   15358   15358       0   15360   15361
   15361       0   15363   15364   15364       0   15366   15367   15367       0
   15369   15370   15370       0   15372   15373   15373       0   15375   15376
   15376       0   15378   15379   15379       0   15381   15382   15382       0
   15384   15385   15385       0   15387   15388   15388       0   15390   15391
   15391       0   15393   15394   15394       0   15396   15397   15397       0
   15399   15400   15400       0   15402   15403   15403       0   15405   15406
   15406       0   15408   15409   15409       0   15411   15412   15412       0
   15414   15415   15415       0   15417   15418   15418       0   15420   15421
   15421       0   15423   15424   15424       0   15426   15427   15427       0
   15429   15430   15430       0   15432   15433   15433       0   15435   15436
   15436       0   15438   15439   15439       0   15441   15442   15442       0
   15444   15445   15445       0   15447   15448   15448       0   15450   15451
   15451       0   15453   15454   15454       0   15456   15457   15457       0
   15459   15460   15460       0   15462   15463   15463       0   15465   15466
   15466       0   15468   15469   15469       0   15471   15472   15472       0
   15474   15475   15475       0   15477   15478   15478       0   15480   15481
   15481       0   15483   15484   15484       0   15486   15487   15487       0
   15489   15490   15490       0   15492   15493   15493       0   15495   15496
   15496       0   15498   15499   15499       0   15501   15502   15502       0
   15504   15505   15505       0   15507   15508   15508       0   15510   15511
   15511       0   15513   15514   15514       0   15516   15517   15517       0
   15519   15520   15520       0   15522   15523   15523       0   15525   15526
   15526       0   15528   15529   15529       0   15531   15532   15532       0
   15534   15535   15535       0   15537   15538   15538       0   15540   15541
   15541       0   15543   15544   15544       0   15546   15547   15547       0
   15549   15550   15550       0   15552   15553   15553       0   15555   15556
   15556       0   15558   15559   15559       0   15561   15562   15562       0
   15564   15565   15565       0   15567   15568   15568       0   15570   15571
   15571       0   15573   15574   15574       0   15576   15577   15577       0
   15579   15580   15580       0   15582   15583   15583       0   15585   15586
   15586       0   15588   15589   15589       0   15591   15592   15592       0
   15594   15595   15595       0   15597   15598   15598       0   15600   15601
   15601       0   15603   15604   15604       0   15606   15607   15607       0
   15609   15610   15610       0   15612   15613   15613       0   15615   15616
   15616       0   15618   15619   15619       0   15621   15622   15622       0
   15624   15625   15625       0   15627   15628   15628       0   15630   15631
   15631       0   15633   15634   15634       0   15636   15637   15637       0
   15639   15640   15640       0   15642   15643   15643       0   15645   15646
   15646       0   15648   15649   15649       0   15651   15652   15652       0
   15654   15655   15655       0   15657   15658   15658       0   15660   15661
   15661       0   15663   15664   15664       0   15666   15667   15667       0
   15669   15670   15670       0   15672   15673   15673       0   15675   15676
   15676       0   15678   15679   15679       0   15681   15682   15682       0
   15684   15685   15685       0   15687   15688   15688       0   15690   15691
   15691       0   15693   15694   15694       0   15696   15697   15697       0
   15699   15700   15700       0   15702   15703   15703       0   15705   15706
   15706       0   15708   15709   15709       0   15711   15712   15712       0
   15714   15715   15715       0   15717   15718   15718       0   15720   15721
   15721       0   15723   15724   15724       0   15726   15727   15727       0
   15729   15730   15730       0   15732   15733   15733       0   15735   15736
   15736       0   15738   15739   15739       0   15741   15742   15742       0
   15744   15745   15745       0   15747   15748   15748       0   15750   15751
   15751       0   15753   15754   15754       0   15756   15757   15757       0
   15759   15760   15760       0   15762   15763   15763       0   15765   15766
   15766       0   15768   15769   15769       0   15771   15772   15772       0
   15774   15775   15775       0   15777   15778   15778       0   15780   15781
   15781       0   15783   15784   15784       0   15786   15787   15787       0
   15789   15790   15790       0   15792   15793   15793       0   15795   15796
   15796       0   15798   15799   15799       0   15801   15802   15802       0
   15804   15805   15805       0   15807   15808   15808       0   15810   15811
   15811       0   15813   15814   15814       0   15816   15817   15817       0
   15819   15820   15820       0   15822   15823   15823       0   15825   15826
   15826       0   15828   15829   15829       0   15831   15832   15832       0
   15834   15835   15835       0   15837   15838   15838       0   15840   15841
   15841       0   15843   15844   15844       0   15846   15847   15847       0
   15849   15850   15850       0   15852   15853   15853       0   15855   15856
   15856       0   15858   15859   15859       0   15861   15862   15862       0
   15864   15865   15865       0   15867   15868   15868       0   15870   15871
   15871       0   15873   15874   15874       0   15876   15877   15877       0
   15879   15880   15880       0   15882   15883   15883       0   15885   15886
   15886       0   15888   15889   15889       0   15891   15892   15892       0
   15894   15895   15895       0   15897   15898   15898       0   15900   15901
   15901       0   15903   15904   15904       0   15906   15907   15907       0
   15909   15910   15910       0   15912   15913   15913       0   15915   15916
   15916       0   15918   15919   15919       0   15921   15922   15922       0
   15924   15925   15925       0   15927   15928   15928       0   15930   15931
   15931       0   15933   15934   15934       0   15936   15937   15937       0
   15939   15940   15940       0   15942   15943   15943       0   15945   15946
   15946       0   15948   15949   15949       0   15951   15952   15952       0
   15954   15955   15955       0   15957   15958   15958       0   15960   15961
   15961       0   15963   15964   15964       0   15966   15967   15967       0
   15969   15970   15970       0   15972   15973   15973       0   15975   15976
   15976       0   15978   15979   15979       0   15981   15982   15982       0
   15984   15985   15985       0   15987   15988   15988       0   15990   15991
   15991       0   15993   15994   15994       0   15996   15997   15997       0
   15999   16000   16000       0   16002   16003   16003       0   16005   16006
   16006       0   16008   16009   16009       0   16011   16012   16012       0
   16014   16015   16015       0   16017   16018   16018       0   16020   16021
   16021       0   16023   16024   16024       0   16026   16027   16027       0
   16029   16030   16030       0   16032   16033   16033       0   16035   16036
   16036       0   16038   16039   16039       0   16041   16042   16042       0
   16044   16045   16045       0   16047   16048   16048       0   16050   16051
   16051       0   16053   16054   16054       0   16056   16057   16057       0
   16059   16060   16060       0   16062   16063   16063       0   16065   16066
   16066       0   16068   16069   16069       0   16071   16072   16072       0
   16074   16075   16075       0   16077   16078   16078       0   16080   16081
   16081       0   16083   16084   16084       0   16086   16087   16087       0
   16089   16090   16090       0   16092   16093   16093       0   16095   16096
   16096       0   16098   16099   16099       0   16101   16102   16102       0
   16104   16105   16105       0   16107   16108   16108       0   16110   16111
   16111       0   16113   16114   16114       0   16116   16117   16117       0
   16119   16120   16120       0   16122   16123   16123       0   16125   16126
   16126       0   16128   16129   16129       0   16131   16132   16132       0
   16134   16135   16135       0   16137   16138   16138       0   16140   16141
   16141       0   16143   16144   16144       0   16146   16147   16147       0
   16149   16150   16150       0   16152   16153   16153       0   16155   16156
   16156       0   16158   16159   16159       0   16161   16162   16162       0
   16164   16165   16165       0   16167   16168   16168       0   16170   16171
   16171       0   16173   16174   16174       0   16176   16177   16177       0
   16179   16180   16180       0   16182   16183   16183       0   16185   16186
   16186       0   16188   16189   16189       0   16191   16192   16192       0
   16194   16195   16195       0   16197   16198   16198       0   16200   16201
   16201       0   16203   16204   16204       0   16206   16207   16207       0
   16209   16210   16210       0   16212   16213   16213       0   16215   16216
   16216       0   16218   16219   16219       0   16221   16222   16222       0
   16224   16225   16225       0   16227   16228   16228       0   16230   16231
   16231       0   16233   16234   16234       0   16236   16237   16237       0
   16239   16240   16240       0   16242   16243   16243       0   16245   16246
   16246       0   16248   16249   16249       0   16251   16252   16252       0
   16254   16255   16255       0   16257   16258   16258       0   16260   16261
   16261       0   16263   16264   16264       0   16266   16267   16267       0
   16269   16270   16270       0   16272   16273   16273       0   16275   16276
   16276       0   16278   16279   16279       0   16281   16282   16282       0
   16284   16285   16285       0   16287   16288   16288       0   16290   16291
   16291       0   16293   16294   16294       0   16296   16297   16297       0
   16299   16300   16300       0   16302   16303   16303       0   16305   16306
   16306       0   16308   16309   16309       0   16311   16312   16312       0
   16314   16315   16315       0   16317   16318   16318       0   16320   16321
   16321       0   16323   16324   16324       0   16326   16327   16327       0
   16329   16330   16330       0   16332   16333   16333       0   16335   16336
   16336       0   16338   16339   16339       0   16341   16342   16342       0
   16344   16345   16345       0   16347   16348   16348       0   16350   16351
   16351       0   16353   16354   16354       0   16356   16357   16357       0
   16359   16360   16360       0   16362   16363   16363       0   16365   16366
   16366       0   16368   16369   16369       0   16371   16372   16372       0
   16374   16375   16375       0   16377   16378   16378       0   16380   16381
   16381       0   16383   16384   16384       0   16386   16387   16387       0
   16389   16390   16390       0   16392   16393   16393       0   16395   16396
   16396       0   16398   16399   16399       0   16401   16402   16402       0
   16404   16405   16405       0   16407   16408   16408       0   16410   16411
   16411       0   16413   16414   16414       0   16416   16417   16417       0
   16419   16420   16420       0   16422   16423   16423       0   16425   16426
   16426       0   16428   16429   16429       0   16431   16432   16432       0
   16434   16435   16435       0   16437   16438   16438       0   16440   16441
   16441       0   16443   16444   16444       0   16446   16447   16447       0
   16449   16450   16450       0   16452   16453   16453       0   16455   16456
   16456       0   16458   16459   16459       0   16461   16462   16462       0
   16464   16465   16465       0   16467   16468   16468       0   16470   16471
   16471       0   16473   16474   16474       0   16476   16477   16477       0
   16479   16480   16480       0   16482   16483   16483       0   16485   16486
   16486       0   16488   16489   16489       0   16491   16492   16492       0
   16494   16495   16495       0   16497   16498   16498       0   16500   16501
   16501       0   16503   16504   16504       0   16506   16507   16507       0
   16509   16510   16510       0   16512   16513   16513       0   16515   16516
   16516       0   16518   16519   16519       0   16521   16522   16522       0
   16524   16525   16525       0   16527   16528   16528       0   16530   16531
   16531       0   16533   16534   16534       0   16536   16537   16537       0
   16539   16540   16540       0   16542   16543   16543       0   16545   16546
   16546       0   16548   16549   16549       0   16551   16552   16552       0
   16554   16555   16555       0   16557   16558   16558       0   16560   16561
   16561       0   16563   16564   16564       0   16566   16567   16567       0
   16569   16570   16570       0   16572   16573   16573       0   16575   16576
   16576       0   16578   16579   16579       0   16581   16582   16582       0
   16584   16585   16585       0   16587   16588   16588       0   16590   16591
   16591       0   16593   16594   16594       0   16596   16597   16597       0
   16599   16600   16600       0   16602   16603   16603       0   16605   16606
   16606       0   16608   16609   16609       0   16611   16612   16612       0
   16614   16615   16615       0   16617   16618   16618       0   16620   16621
   16621       0   16623   16624   16624       0   16626   16627   16627       0
   16629   16630   16630       0   16632   16633   16633       0   16635   16636
   16636       0   16638   16639   16639       0   16641   16642   16642       0
   16644   16645   16645       0   16647   16648   16648       0   16650   16651
   16651       0   16653   16654   16654       0   16656   16657   16657       0
   16659   16660   16660       0   16662   16663   16663       0   16665   16666
   16666       0   16668   16669   16669       0   16671   16672   16672       0
   16674   16675   16675       0   16677   16678   16678       0   16680   16681
   16681       0   16683   16684   16684       0   16686   16687   16687       0
   16689   16690   16690       0   16692   16693   16693       0   16695   16696
   16696       0   16698   16699   16699       0   16701   16702   16702       0
   16704   16705   16705       0   16707   16708   16708       0   16710   16711
   16711       0   16713   16714   16714       0   16716   16717   16717       0
   16719   16720   16720       0   16722   16723   16723       0   16725   16726
   16726       0   16728   16729   16729       0   16731   16732   16732       0
   16734   16735   16735       0   16737   16738   16738       0   16740   16741
   16741       0   16743   16744   16744       0   16746   16747   16747       0
   16749   16750   16750       0   16752   16753   16753       0   16755   16756
   16756       0   16758   16759   16759       0   16761   16762   16762       0
   16764   16765   16765       0   16767   16768   16768       0   16770   16771
   16771       0   16773   16774   16774       0   16776   16777   16777       0
   16779   16780   16780       0   16782   16783   16783       0   16785   16786
   16786       0   16788   16789   16789       0   16791   16792   16792       0
   16794   16795   16795       0   16797   16798   16798       0   16800   16801
   16801       0   16803   16804   16804       0   16806   16807   16807       0
   16809   16810   16810       0   16812   16813   16813       0   16815   16816
   16816       0   16818   16819   16819       0   16821   16822   16822       0
   16824   16825   16825       0   16827   16828   16828       0   16830   16831
   16831       0   16833   16834   16834       0   16836   16837   16837       0
   16839   16840   16840       0   16842   16843   16843       0   16845   16846
   16846       0   16848   16849   16849       0   16851   16852   16852       0
   16854   16855   16855       0   16857   16858   16858       0   16860   16861
   16861       0   16863   16864   16864       0   16866   16867   16867       0
   16869   16870   16870       0   16872   16873   16873       0   16875   16876
   16876       0   16878   16879   16879       0   16881   16882   16882       0
   16884   16885   16885       0   16887   16888   16888       0   16890   16891
   16891       0   16893   16894   16894       0   16896   16897   16897       0
   16899   16900   16900       0   16902   16903   16903       0   16905   16906
   16906       0   16908   16909   16909       0   16911   16912   16912       0
   16914   16915   16915       0   16917   16918   16918       0   16920   16921
   16921       0   16923   16924   16924       0   16926   16927   16927       0
   16929   16930   16930       0   16932   16933   16933       0   16935   16936
   16936       0   16938   16939   16939       0   16941   16942   16942       0
   16944   16945   16945       0   16947   16948   16948       0   16950   16951
   16951       0   16953   16954   16954       0   16956   16957   16957       0
   16959   16960   16960       0   16962   16963   16963       0   16965   16966
   16966       0   16968   16969   16969       0   16971   16972   16972       0
   16974   16975   16975       0   16977   16978   16978       0   16980   16981
   16981       0   16983   16984   16984       0   16986   16987   16987       0
   16989   16990   16990       0   16992   16993   16993       0   16995   16996
   16996       0   16998   16999   16999       0   17001   17002   17002       0
   17004   17005   17005       0   17007   17008   17008       0   17010   17011
   17011       0   17013   17014   17014       0   17016   17017   17017       0
   17019   17020   17020       0   17022   17023   17023       0   17025   17026
   17026       0   17028   17029   17029       0   17031   17032   17032       0
   17034   17035   17035       0   17037   17038   17038       0   17040   17041
   17041       0   17043   17044   17044       0   17046   17047   17047       0
   17049   17050   17050       0   17052   17053   17053       0   17055   17056
   17056       0   17058   17059   17059       0   17061   17062   17062       0
   17064   17065   17065       0   17067   17068   17068       0   17070   17071
   17071       0   17073   17074   17074       0   17076   17077   17077       0
   17079   17080   17080       0   17082   17083   17083       0   17085   17086
   17086       0   17088   17089   17089       0   17091   17092   17092       0
   17094   17095   17095       0   17097   17098   17098       0   17100   17101
   17101       0   17103   17104   17104       0   17106   17107   17107       0
   17109   17110   17110       0   17112   17113   17113       0   17115   17116
   17116       0   17118   17119   17119       0   17121   17122   17122       0
   17124   17125   17125       0   17127   17128   17128       0   17130   17131
   17131       0   17133   17134   17134       0   17136   17137   17137       0
   17139   17140   17140       0   17142   17143   17143       0   17145   17146
   17146       0   17148   17149   17149       0   17151   17152   17152       0
   17154   17155   17155       0   17157   17158   17158       0   17160   17161
   17161       0   17163   17164   17164       0   17166   17167   17167       0
   17169   17170   17170       0   17172   17173   17173       0   17175   17176
   17176       0   17178   17179   17179       0   17181   17182   17182       0
   17184   17185   17185       0   17187   17188   17188       0   17190   17191
   17191       0   17193   17194   17194       0   17196   17197   17197       0
   17199   17200   17200       0   17202   17203   17203       0   17205   17206
   17206       0   17208   17209   17209       0   17211   17212   17212       0
   17214   17215   17215       0   17217   17218   17218       0   17220   17221
   17221       0   17223   17224   17224       0   17226   17227   17227       0
   17229   17230   17230       0   17232   17233   17233       0   17235   17236
   17236       0   17238   17239   17239       0   17241   17242   17242       0
   17244   17245   17245       0   17247   17248   17248       0   17250   17251
   17251       0   17253   17254   17254       0   17256   17257   17257       0
   17259   17260   17260       0   17262   17263   17263       0   17265   17266
   17266       0   17268   17269   17269       0   17271   17272   17272       0
   17274   17275   17275       0   17277   17278   17278       0   17280   17281
   17281       0   17283   17284   17284       0   17286   17287   17287       0
   17289   17290   17290       0   17292   17293   17293       0   17295   17296
   17296       0   17298   17299   17299       0   17301   17302   17302       0
   17304   17305   17305       0   17307   17308   17308       0   17310   17311
   17311       0   17313   17314   17314       0   17316   17317   17317       0
   17319   17320   17320       0   17322   17323   17323       0   17325   17326
   17326       0   17328   17329   17329       0   17331   17332   17332       0
   17334   17335   17335       0   17337   17338   17338       0   17340   17341
   17341       0   17343   17344   17344       0   17346   17347   17347       0
   17349   17350   17350       0   17352   17353   17353       0   17355   17356
   17356       0   17358   17359   17359       0   17361   17362   17362       0
   17364   17365   17365       0   17367   17368   17368       0   17370   17371
   17371       0   17373   17374   17374       0   17376   17377   17377       0
   17379   17380   17380       0   17382   17383   17383       0   17385   17386
   17386       0   17388   17389   17389       0   17391   17392   17392       0
   17394   17395   17395       0   17397   17398   17398       0   17400   17401
   17401       0   17403   17404   17404       0   17406   17407   17407       0
   17409   17410   17410       0   17412   17413   17413       0   17415   17416
   17416       0   17418   17419   17419       0   17421   17422   17422       0
   17424   17425   17425       0   17427   17428   17428       0   17430   17431
   17431       0   17433   17434   17434       0   17436   17437   17437       0
   17439   17440   17440       0   17442   17443   17443       0   17445   17446
   17446       0   17448   17449   17449       0   17451   17452   17452       0
   17454   17455   17455       0   17457   17458   17458       0   17460   17461
   17461       0   17463   17464   17464       0   17466   17467   17467       0
   17469   17470   17470       0   17472   17473   17473       0   17475   17476
   17476       0   17478   17479   17479       0   17481   17482   17482       0
   17484   17485   17485       0   17487   17488   17488       0   17490   17491
   17491       0   17493   17494   17494       0   17496   17497   17497       0
   17499   17500   17500       0   17502   17503   17503       0   17505   17506
   17506       0   17508   17509   17509       0   17511   17512   17512       0
   17514   17515   17515       0   17517   17518   17518       0   17520   17521
   17521       0   17523   17524   17524       0   17526   17527   17527       0
   17529   17530   17530       0   17532   17533   17533       0   17535   17536
   17536       0   17538   17539   17539       0   17541   17542   17542       0
   17544   17545   17545       0   17547   17548   17548       0   17550   17551
   17551       0   17553   17554   17554       0   17556   17557   17557       0
   17559   17560   17560       0   17562   17563   17563       0   17565   17566
   17566       0   17568   17569   17569       0   17571   17572   17572       0
   17574   17575   17575       0   17577   17578   17578       0   17580   17581
   17581       0   17583   17584   17584       0   17586   17587   17587       0
   17589   17590   17590       0   17592   17593   17593       0   17595   17596
   17596       0   17598   17599   17599       0   17601   17602   17602       0
   17604   17605   17605       0   17607   17608   17608       0   17610   17611
   17611       0   17613   17614   17614       0   17616   17617   17617       0
   17619   17620   17620       0   17622   17623   17623       0   17625   17626
   17626       0   17628   17629   17629       0   17631   17632   17632       0
   17634   17635   17635       0   17637   17638   17638       0   17640   17641
   17641       0   17643   17644   17644       0   17646   17647   17647       0
   17649   17650   17650       0   17652   17653   17653       0   17655   17656
   17656       0   17658   17659   17659       0   17661   17662   17662       0
   17664   17665   17665       0   17667   17668   17668       0   17670   17671
   17671       0   17673   17674   17674       0   17676   17677   17677       0
   17679   17680   17680       0   17682   17683   17683       0   17685   17686
   17686       0   17688   17689   17689       0   17691   17692   17692       0
   17694   17695   17695       0   17697   17698   17698       0   17700   17701
   17701       0   17703   17704   17704       0   17706   17707   17707       0
   17709   17710   17710       0   17712   17713   17713       0   17715   17716
   17716       0   17718   17719   17719       0   17721   17722   17722       0
   17724   17725   17725       0   17727   17728   17728       0   17730   17731
   17731       0   17733   17734   17734       0   17736   17737   17737       0
   17739   17740   17740       0   17742   17743   17743       0   17745   17746
   17746       0   17748   17749   17749       0   17751   17752   17752       0
   17754   17755   17755       0   17757   17758   17758       0   17760   17761
   17761       0   17763   17764   17764       0   17766   17767   17767       0
   17769   17770   17770       0   17772   17773   17773       0   17775   17776
   17776       0   17778   17779   17779       0   17781   17782   17782       0
   17784   17785   17785       0   17787   17788   17788       0   17790   17791
   17791       0   17793   17794   17794       0   17796   17797   17797       0
   17799   17800   17800       0   17802   17803   17803       0   17805   17806
   17806       0   17808   17809   17809       0   17811   17812   17812       0
   17814   17815   17815       0   17817   17818   17818       0   17820   17821
   17821       0   17823   17824   17824       0   17826   17827   17827       0
   17829   17830   17830       0   17832   17833   17833       0   17835   17836
   17836       0   17838   17839   17839       0   17841   17842   17842       0
   17844   17845   17845       0   17847   17848   17848       0   17850   17851
   17851       0   17853   17854   17854       0   17856   17857   17857       0
   17859   17860   17860       0   17862   17863   17863       0   17865   17866
   17866       0   17868   17869   17869       0   17871   17872   17872       0
   17874   17875   17875       0   17877   17878   17878       0   17880   17881
   17881       0   17883   17884   17884       0   17886   17887   17887       0
   17889   17890   17890       0   17892   17893   17893       0   17895   17896
   17896       0   17898   17899   17899       0   17901   17902   17902       0
   17904   17905   17905       0   17907   17908   17908       0   17910   17911
   17911       0   17913   17914   17914       0   17916   17917   17917       0
   17919   17920   17920       0   17922   17923   17923       0   17925   17926
   17926       0   17928   17929   17929       0   17931   17932   17932       0
   17934   17935   17935       0   17937   17938   17938       0   17940   17941
   17941       0   17943   17944   17944       0   17946   17947   17947       0
   17949   17950   17950       0   17952   17953   17953       0   17955   17956
   17956       0   17958   17959   17959       0   17961   17962   17962       0
   17964   17965   17965       0   17967   17968   17968       0   17970   17971
   17971       0   17973   17974   17974       0   17976   17977   17977       0
   17979   17980   17980       0   17982   17983   17983       0   17985   17986
   17986       0   17988   17989   17989       0   17991   17992   17992       0
   17994   17995   17995       0   17997   17998   17998       0   18000   18001
   18001       0   18003   18004   18004       0   18006   18007   18007       0
   18009   18010   18010       0   18012   18013   18013       0   18015   18016
   18016       0   18018   18019   18019       0   18021   18022   18022       0
   18024   18025   18025       0   18027   18028   18028       0   18030   18031
   18031       0   18033   18034   18034       0   18036   18037   18037       0
   18039   18040   18040       0   18042   18043   18043       0   18045   18046
   18046       0   18048   18049   18049       0   18051   18052   18052       0
   18054   18055   18055       0   18057   18058   18058       0   18060   18061
   18061       0   18063   18064   18064       0   18066   18067   18067       0
   18069   18070   18070       0   18072   18073   18073       0   18075   18076
   18076       0   18078   18079   18079       0   18081   18082   18082       0
   18084   18085   18085       0   18087   18088   18088       0   18090   18091
   18091       0   18093   18094   18094       0   18096   18097   18097       0
   18099   18100   18100       0   18102   18103   18103       0   18105   18106
   18106       0   18108   18109   18109       0   18111   18112   18112       0
   18114   18115   18115       0   18117   18118   18118       0   18120   18121
   18121       0   18123   18124   18124       0   18126   18127   18127       0
   18129   18130   18130       0   18132   18133   18133       0   18135   18136
   18136       0   18138   18139   18139       0   18141   18142   18142       0
   18144   18145   18145       0   18147   18148   18148       0   18150   18151
   18151       0   18153   18154   18154       0   18156   18157   18157       0
   18159   18160   18160       0   18162   18163   18163       0   18165   18166
   18166       0   18168   18169   18169       0   18171   18172   18172       0
   18174   18175   18175       0   18177   18178   18178       0   18180   18181
   18181       0   18183   18184   18184       0   18186   18187   18187       0
   18189   18190   18190       0   18192   18193   18193       0   18195   18196
   18196       0   18198   18199   18199       0   18201   18202   18202       0
   18204   18205   18205       0   18207   18208   18208       0   18210   18211
   18211       0   18213   18214   18214       0   18216   18217   18217       0
   18219   18220   18220       0   18222   18223   18223       0   18225   18226
   18226       0   18228   18229   18229       0   18231   18232   18232       0
   18234   18235   18235       0   18237   18238   18238       0   18240   18241
   18241       0   18243   18244   18244       0   18246   18247   18247       0
   18249   18250   18250       0   18252   18253   18253       0   18255   18256
   18256       0   18258   18259   18259       0   18261   18262   18262       0
   18264   18265   18265       0   18267   18268   18268       0   18270   18271
   18271       0   18273   18274   18274       0   18276   18277   18277       0
   18279   18280   18280       0   18282   18283   18283       0   18285   18286
   18286       0   18288   18289   18289       0   18291   18292   18292       0
   18294   18295   18295       0   18297   18298   18298       0   18300   18301
   18301       0   18303   18304   18304       0   18306   18307   18307       0
   18309   18310   18310       0   18312   18313   18313       0   18315   18316
   18316       0   18318   18319   18319       0   18321   18322   18322       0
   18324   18325   18325       0   18327   18328   18328       0   18330   18331
   18331       0   18333   18334   18334       0   18336   18337   18337       0
   18339   18340   18340       0   18342   18343   18343       0   18345   18346
   18346       0   18348   18349   18349       0   18351   18352   18352       0
   18354   18355   18355       0   18357   18358   18358       0   18360   18361
   18361       0   18363   18364   18364       0   18366   18367   18367       0
   18369   18370   18370       0   18372   18373   18373       0   18375   18376
   18376       0   18378   18379   18379       0   18381   18382   18382       0
   18384   18385   18385       0   18387   18388   18388       0   18390   18391
   18391       0   18393   18394   18394       0   18396   18397   18397       0
   18399   18400   18400       0   18402   18403   18403       0   18405   18406
   18406       0   18408   18409   18409       0   18411   18412   18412       0
   18414   18415   18415       0   18417   18418   18418       0   18420   18421
   18421       0   18423   18424   18424       0   18426   18427   18427       0
   18429   18430   18430       0   18432   18433   18433       0   18435   18436
   18436       0   18438   18439   18439       0   18441   18442   18442       0
   18444   18445   18445       0   18447   18448   18448       0   18450   18451
   18451       0   18453   18454   18454       0   18456   18457   18457       0
   18459   18460   18460       0   18462   18463   18463       0   18465   18466
   18466       0   18468   18469   18469       0   18471   18472   18472       0
   18474   18475   18475       0   18477   18478   18478       0   18480   18481
   18481       0   18483   18484   18484       0   18486   18487   18487       0
   18489   18490   18490       0   18492   18493   18493       0   18495   18496
   18496       0   18498   18499   18499       0   18501   18502   18502       0
   18504   18505   18505       0   18507   18508   18508       0   18510   18511
   18511       0   18513   18514   18514       0   18516   18517   18517       0
   18519   18520   18520       0   18522   18523   18523       0   18525   18526
   18526       0   18528   18529   18529       0   18531   18532   18532       0
   18534   18535   18535       0   18537   18538   18538       0   18540   18541
   18541       0   18543   18544   18544       0   18546   18547   18547       0
   18549   18550   18550       0   18552   18553   18553       0   18555   18556
   18556       0   18558   18559   18559       0   18561   18562   18562       0
   18564   18565   18565       0   18567   18568   18568       0   18570   18571
   18571       0   18573   18574   18574       0   18576   18577   18577       0
   18579   18580   18580       0   18582   18583   18583       0   18585   18586
   18586       0   18588   18589   18589       0   18591   18592   18592       0
   18594   18595   18595       0   18597   18598   18598       0   18600   18601
   18601       0   18603   18604   18604       0   18606   18607   18607       0
   18609   18610   18610       0   18612   18613   18613       0   18615   18616
   18616       0   18618   18619   18619       0   18621   18622   18622       0
   18624   18625   18625       0   18627   18628   18628       0   18630   18631
   18631       0   18633   18634   18634       0   18636   18637   18637       0
   18639   18640   18640       0   18642   18643   18643       0   18645   18646
   18646       0   18648   18649   18649       0   18651   18652   18652       0
   18654   18655   18655       0   18657   18658   18658       0   18660   18661
   18661       0   18663   18664   18664       0   18666   18667   18667       0
   18669   18670   18670       0   18672   18673   18673       0   18675   18676
   18676       0   18678   18679   18679       0   18681   18682   18682       0
   18684   18685   18685       0   18687   18688   18688       0   18690   18691
   18691       0   18693   18694   18694       0   18696   18697   18697       0
   18699   18700   18700       0   18702   18703   18703       0   18705   18706
   18706       0   18708   18709   18709       0   18711   18712   18712       0
   18714   18715   18715       0   18717   18718   18718       0   18720   18721
   18721       0   18723   18724   18724       0   18726   18727   18727       0
   18729   18730   18730       0   18732   18733   18733       0   18735   18736
   18736       0   18738   18739   18739       0   18741   18742   18742       0
   18744   18745   18745       0   18747   18748   18748       0   18750   18751
   18751       0   18753   18754   18754       0   18756   18757   18757       0
   18759   18760   18760       0   18762   18763   18763       0   18765   18766
   18766       0   18768   18769   18769       0   18771   18772   18772       0
   18774   18775   18775       0   18777   18778   18778       0   18780   18781
   18781       0   18783   18784   18784       0   18786   18787   18787       0
   18789   18790   18790       0   18792   18793   18793       0   18795   18796
   18796       0   18798   18799   18799       0   18801   18802   18802       0
   18804   18805   18805       0   18807   18808   18808       0   18810   18811
   18811       0   18813   18814   18814       0   18816   18817   18817       0
   18819   18820   18820       0   18822   18823   18823       0   18825   18826
   18826       0   18828   18829   18829       0   18831   18832   18832       0
   18834   18835   18835       0   18837   18838   18838       0   18840   18841
   18841       0   18843   18844   18844       0   18846   18847   18847       0
   18849   18850   18850       0   18852   18853   18853       0   18855   18856
   18856       0   18858   18859   18859       0   18861   18862   18862       0
   18864   18865   18865       0   18867   18868   18868       0   18870   18871
   18871       0   18873   18874   18874       0   18876   18877   18877       0
   18879   18880   18880       0   18882   18883   18883       0   18885   18886
   18886       0   18888   18889   18889       0   18891   18892   18892       0
   18894   18895   18895       0   18897   18898   18898       0   18900   18901
   18901       0   18903   18904   18904       0   18906   18907   18907       0
   18909   18910   18910       0   18912   18913   18913       0   18915   18916
   18916       0   18918   18919   18919       0   18921   18922   18922       0
   18924   18925   18925       0   18927   18928   18928       0   18930   18931
   18931       0   18933   18934   18934       0   18936   18937   18937       0
   18939   18940   18940       0   18942   18943   18943       0   18945   18946
   18946       0   18948   18949   18949       0   18951   18952   18952       0
   18954   18955   18955       0   18957   18958   18958       0   18960   18961
   18961       0   18963   18964   18964       0   18966   18967   18967       0
   18969   18970   18970       0   18972   18973   18973       0   18975   18976
   18976       0   18978   18979   18979       0   18981   18982   18982       0
   18984   18985   18985       0   18987   18988   18988       0   18990   18991
   18991       0   18993   18994   18994       0   18996   18997   18997       0
   18999   19000   19000       0   19002   19003   19003       0   19005   19006
   19006       0   19008   19009   19009       0   19011   19012   19012       0
   19014   19015   19015       0   19017   19018   19018       0   19020   19021
   19021       0   19023   19024   19024       0   19026   19027   19027       0
   19029   19030   19030       0   19032   19033   19033       0   19035   19036
   19036       0   19038   19039   19039       0   19041   19042   19042       0
   19044   19045   19045       0   19047   19048   19048       0   19050   19051
   19051       0   19053   19054   19054       0   19056   19057   19057       0
   19059   19060   19060       0   19062   19063   19063       0   19065   19066
   19066       0   19068   19069   19069       0   19071   19072   19072       0
   19074   19075   19075       0   19077   19078   19078       0   19080   19081
   19081       0   19083   19084   19084       0   19086   19087   19087       0
   19089   19090   19090       0   19092   19093   19093       0   19095   19096
   19096       0   19098   19099   19099       0   19101   19102   19102       0
   19104   19105   19105       0   19107   19108   19108       0   19110   19111
   19111       0   19113   19114   19114       0   19116   19117   19117       0
   19119   19120   19120       0   19122   19123   19123       0   19125   19126
   19126       0   19128   19129   19129       0   19131   19132   19132       0
   19134   19135   19135       0   19137   19138   19138       0   19140   19141
   19141       0   19143   19144   19144       0   19146   19147   19147       0
   19149   19150   19150       0   19152   19153   19153       0   19155   19156
   19156       0   19158   19159   19159       0   19161   19162   19162       0
   19164   19165   19165       0   19167   19168   19168       0   19170   19171
   19171       0   19173   19174   19174       0   19176   19177   19177       0
   19179   19180   19180       0   19182   19183   19183       0   19185   19186
   19186       0   19188   19189   19189       0   19191   19192   19192       0
   19194   19195   19195       0   19197   19198   19198       0   19200   19201
   19201       0   19203   19204   19204       0   19206   19207   19207       0
   19209   19210   19210       0   19212   19213   19213       0   19215   19216
   19216       0   19218   19219   19219       0   19221   19222   19222       0
   19224   19225   19225       0   19227   19228   19228       0   19230   19231
   19231       0   19233   19234   19234       0   19236   19237   19237       0
   19239   19240   19240       0   19242   19243   19243       0   19245   19246
   19246       0   19248   19249   19249       0   19251   19252   19252       0
   19254   19255   19255       0   19257   19258   19258       0   19260   19261
   19261       0   19263   19264   19264       0   19266   19267   19267       0
   19269   19270   19270       0   19272   19273   19273       0   19275   19276
   19276       0   19278   19279   19279       0   19281   19282   19282       0
   19284   19285   19285       0   19287   19288   19288       0   19290   19291
   19291       0   19293   19294   19294       0   19296   19297   19297       0
   19299   19300   19300       0   19302   19303   19303       0   19305   19306
   19306       0   19308   19309   19309       0   19311   19312   19312       0
   19314   19315   19315       0   19317   19318   19318       0   19320   19321
   19321       0   19323   19324   19324       0   19326   19327   19327       0
   19329   19330   19330       0   19332   19333   19333       0   19335   19336
   19336       0   19338   19339   19339       0   19341   19342   19342       0
   19344   19345   19345       0   19347   19348   19348       0   19350   19351
   19351       0   19353   19354   19354       0   19356   19357   19357       0
   19359   19360   19360       0   19362   19363   19363       0   19365   19366
   19366       0   19368   19369   19369       0   19371   19372   19372       0
   19374   19375   19375       0   19377   19378   19378       0   19380   19381
   19381       0   19383   19384   19384       0   19386   19387   19387       0
   19389   19390   19390       0   19392   19393   19393       0   19395   19396
   19396       0   19398   19399   19399       0   19401   19402   19402       0
   19404   19405   19405       0   19407   19408   19408       0   19410   19411
   19411       0   19413   19414   19414       0   19416   19417   19417       0
   19419   19420   19420       0   19422   19423   19423       0   19425   19426
   19426       0   19428   19429   19429       0   19431   19432   19432       0
   19434   19435   19435       0   19437   19438   19438       0   19440   19441
   19441       0   19443   19444   19444       0   19446   19447   19447       0
   19449   19450   19450       0   19452   19453   19453       0   19455   19456
   19456       0   19458   19459   19459       0   19461   19462   19462       0
   19464   19465   19465       0   19467   19468   19468       0   19470   19471
   19471       0   19473   19474   19474       0   19476   19477   19477       0
   19479   19480   19480       0   19482   19483   19483       0   19485   19486
   19486       0   19488   19489   19489       0   19491   19492   19492       0
   19494   19495   19495       0   19497   19498   19498       0   19500   19501
   19501       0   19503   19504   19504       0   19506   19507   19507       0
   19509   19510   19510       0   19512   19513   19513       0   19515   19516
   19516       0   19518   19519   19519       0   19521   19522   19522       0
   19524   19525   19525       0   19527   19528   19528       0   19530   19531
   19531       0   19533   19534   19534       0   19536   19537   19537       0
   19539   19540   19540       0   19542   19543   19543       0   19545   19546
   19546       0   19548   19549   19549       0   19551   19552   19552       0
   19554   19555   19555       0   19557   19558   19558       0   19560   19561
   19561       0   19563   19564   19564       0   19566   19567   19567       0
   19569   19570   19570       0   19572   19573   19573       0   19575   19576
   19576       0   19578   19579   19579       0   19581   19582   19582       0
   19584   19585   19585       0   19587   19588   19588       0   19590   19591
   19591       0   19593   19594   19594       0   19596   19597   19597       0
   19599   19600   19600       0   19602   19603   19603       0   19605   19606
   19606       0   19608   19609   19609       0   19611   19612   19612       0
   19614   19615   19615       0   19617   19618   19618       0   19620   19621
   19621       0   19623   19624   19624       0   19626   19627   19627       0
   19629   19630   19630       0   19632   19633   19633       0   19635   19636
   19636       0   19638   19639   19639       0   19641   19642   19642       0
   19644   19645   19645       0   19647   19648   19648       0   19650   19651
   19651       0   19653   19654   19654       0   19656   19657   19657       0
   19659   19660   19660       0   19662   19663   19663       0   19665   19666
   19666       0   19668   19669   19669       0   19671   19672   19672       0
   19674   19675   19675       0   19677   19678   19678       0   19680   19681
   19681       0   19683   19684   19684       0   19686   19687   19687       0
   19689   19690   19690       0   19692   19693   19693       0   19695   19696
   19696       0   19698   19699   19699       0   19701   19702   19702       0
   19704   19705   19705       0   19707   19708   19708       0   19710   19711
   19711       0   19713   19714   19714       0   19716   19717   19717       0
   19719   19720   19720       0   19722   19723   19723       0   19725   19726
   19726       0   19728   19729   19729       0   19731   19732   19732       0
   19734   19735   19735       0   19737   19738   19738       0   19740   19741
   19741       0   19743   19744   19744       0   19746   19747   19747       0
   19749   19750   19750       0   19752   19753   19753       0   19755   19756
   19756       0   19758   19759   19759       0   19761   19762   19762       0
   19764   19765   19765       0   19767   19768   19768       0   19770   19771
   19771       0   19773   19774   19774       0   19776   19777   19777       0
   19779   19780   19780       0   19782   19783   19783       0   19785   19786
   19786       0   19788   19789   19789       0   19791   19792   19792       0
   19794   19795   19795       0   19797   19798   19798       0   19800   19801
   19801       0   19803   19804   19804       0   19806   19807   19807       0
   19809   19810   19810       0   19812   19813   19813       0   19815   19816
   19816       0   19818   19819   19819       0   19821   19822   19822       0
   19824   19825   19825       0   19827   19828   19828       0   19830   19831
   19831       0   19833   19834   19834       0   19836   19837   19837       0
   19839   19840   19840       0   19842   19843   19843       0   19845   19846
   19846       0   19848   19849   19849       0   19851   19852   19852       0
   19854   19855   19855       0   19857   19858   19858       0   19860   19861
   19861       0   19863   19864   19864       0   19866   19867   19867       0
   19869   19870   19870       0   19872   19873   19873       0   19875   19876
   19876       0   19878   19879   19879       0   19881   19882   19882       0
   19884   19885   19885       0   19887   19888   19888       0   19890   19891
   19891       0   19893   19894   19894       0   19896   19897   19897       0
   19899   19900   19900       0   19902   19903   19903       0   19905   19906
   19906       0   19908   19909   19909       0   19911   19912   19912       0
   19914   19915   19915       0   19917   19918   19918       0   19920   19921
   19921       0   19923   19924   19924       0   19926   19927   19927       0
   19929   19930   19930       0   19932   19933   19933       0   19935   19936
   19936       0   19938   19939   19939       0   19941   19942   19942       0
   19944   19945   19945       0   19947   19948   19948       0   19950   19951
   19951       0   19953   19954   19954       0   19956   19957   19957       0
   19959   19960   19960       0   19962   19963   19963       0   19965   19966
   19966       0   19968   19969   19969       0   19971   19972   19972       0
   19974   19975   19975       0   19977   19978   19978       0   19980   19981
   19981       0   19983   19984   19984       0   19986   19987   19987       0
   19989   19990   19990       0   19992   19993   19993       0   19995   19996
   19996       0   19998   19999   19999       0   20001   20002   20002       0
   20004   20005   20005       0   20007   20008   20008       0   20010   20011
   20011       0   20013   20014   20014       0   20016   20017   20017       0
   20019   20020   20020       0   20022   20023   20023       0   20025   20026
   20026       0   20028   20029   20029       0   20031   20032   20032       0
   20034   20035   20035       0   20037   20038   20038       0   20040   20041
   20041       0   20043   20044   20044       0   20046   20047   20047       0
   20049   20050   20050       0   20052   20053   20053       0   20055   20056
   20056       0   20058   20059   20059       0   20061   20062   20062       0
   20064   20065   20065       0   20067   20068   20068       0   20070   20071
   20071       0   20073   20074   20074       0   20076   20077   20077       0
   20079   20080   20080       0   20082   20083   20083       0   20085   20086
   20086       0   20088   20089   20089       0   20091   20092   20092       0
   20094   20095   20095       0   20097   20098   20098       0   20100   20101
   20101       0   20103   20104   20104       0   20106   20107   20107       0
   20109   20110   20110       0   20112   20113   20113       0   20115   20116
   20116       0   20118   20119   20119       0   20121   20122   20122       0
   20124   20125   20125       0   20127   20128   20128       0   20130   20131
   20131       0   20133   20134   20134       0   20136   20137   20137       0
   20139   20140   20140       0   20142   20143   20143       0   20145   20146
   20146       0   20148   20149   20149       0   20151   20152   20152       0
   20154   20155   20155       0   20157   20158   20158       0   20160   20161
   20161       0   20163   20164   20164       0   20166   20167   20167       0
   20169   20170   20170       0   20172   20173   20173       0   20175   20176
   20176       0   20178   20179   20179       0   20181   20182   20182       0
   20184   20185   20185       0   20187   20188   20188       0   20190   20191
   20191       0   20193   20194   20194       0   20196   20197   20197       0
   20199   20200   20200       0   20202   20203   20203       0   20205   20206
   20206       0   20208   20209   20209       0   20211   20212   20212       0
   20214   20215   20215       0   20217   20218   20218       0   20220   20221
   20221       0   20223   20224   20224       0   20226   20227   20227       0
   20229   20230   20230       0   20232   20233   20233       0   20235   20236
   20236       0   20238   20239   20239       0   20241   20242   20242       0
   20244   20245   20245       0   20247   20248   20248       0   20250   20251
   20251       0   20253   20254   20254       0   20256   20257   20257       0
   20259   20260   20260       0   20262   20263   20263       0   20265   20266
   20266       0   20268   20269   20269       0   20271   20272   20272       0
   20274   20275   20275       0   20277   20278   20278       0   20280   20281
   20281       0   20283   20284   20284       0   20286   20287   20287       0
   20289   20290   20290       0   20292   20293   20293       0   20295   20296
   20296       0   20298   20299   20299       0   20301   20302   20302       0
   20304   20305   20305       0   20307   20308   20308       0   20310   20311
   20311       0   20313   20314   20314       0   20316   20317   20317       0
   20319   20320   20320       0   20322   20323   20323       0   20325   20326
   20326       0   20328   20329   20329       0   20331   20332   20332       0
   20334   20335   20335       0   20337   20338   20338       0   20340   20341
   20341       0   20343   20344   20344       0   20346   20347   20347       0
   20349   20350   20350       0   20352   20353   20353       0   20355   20356
   20356       0   20358   20359   20359       0   20361   20362   20362       0
   20364   20365   20365       0   20367   20368   20368       0   20370   20371
   20371       0   20373   20374   20374       0   20376   20377   20377       0
   20379   20380   20380       0   20382   20383   20383       0   20385   20386
   20386       0   20388   20389   20389       0   20391   20392   20392       0
   20394   20395   20395       0   20397   20398   20398       0   20400   20401
   20401       0   20403   20404   20404       0   20406   20407   20407       0
   20409   20410   20410       0   20412   20413   20413       0   20415   20416
   20416       0   20418   20419   20419       0   20421   20422   20422       0
   20424   20425   20425       0   20427   20428   20428       0   20430   20431
   20431       0   20433   20434   20434       0   20436   20437   20437       0
   20439   20440   20440       0   20442   20443   20443       0   20445   20446
   20446       0   20448   20449   20449       0   20451   20452   20452       0
   20454   20455   20455       0   20457   20458   20458       0   20460   20461
   20461       0   20463   20464   20464       0   20466   20467   20467       0
   20469   20470   20470       0   20472   20473   20473       0   20475   20476
   20476       0   20478   20479   20479       0   20481   20482   20482       0
   20484   20485   20485       0   20487   20488   20488       0   20490   20491
   20491       0   20493   20494   20494       0   20496   20497   20497       0
   20499   20500   20500       0   20502   20503   20503       0   20505   20506
   20506       0   20508   20509   20509       0   20511   20512   20512       0
   20514   20515   20515       0   20517   20518   20518       0   20520   20521
   20521       0   20523   20524   20524       0   20526   20527   20527       0
   20529   20530   20530       0   20532   20533   20533       0   20535   20536
   20536       0   20538   20539   20539       0   20541   20542   20542       0
   20544   20545   20545       0   20547   20548   20548       0   20550   20551
   20551       0   20553   20554   20554       0   20556   20557   20557       0
   20559   20560   20560       0   20562   20563   20563       0   20565   20566
   20566       0   20568   20569   20569       0   20571   20572   20572       0
   20574   20575   20575       0   20577   20578   20578       0   20580   20581
   20581       0   20583   20584   20584       0   20586   20587   20587       0
   20589   20590   20590       0   20592   20593   20593       0   20595   20596
   20596       0   20598   20599   20599       0   20601   20602   20602       0
   20604   20605   20605       0   20607   20608   20608       0   20610   20611
   20611       0   20613   20614   20614       0   20616   20617   20617       0
   20619   20620   20620       0   20622   20623   20623       0   20625   20626
   20626       0   20628   20629   20629       0   20631   20632   20632       0
   20634   20635   20635       0   20637   20638   20638       0   20640   20641
   20641       0   20643   20644   20644       0   20646   20647   20647       0
   20649   20650   20650       0   20652   20653   20653       0   20655   20656
   20656       0   20658   20659   20659       0   20661   20662   20662       0
   20664   20665   20665       0   20667   20668   20668       0   20670   20671
   20671       0   20673   20674   20674       0   20676   20677   20677       0
   20679   20680   20680       0   20682   20683   20683       0   20685   20686
   20686       0   20688   20689   20689       0   20691   20692   20692       0
   20694   20695   20695       0   20697   20698   20698       0   20700   20701
   20701       0   20703   20704   20704       0   20706   20707   20707       0
   20709   20710   20710       0   20712   20713   20713       0   20715   20716
   20716       0   20718   20719   20719       0   20721   20722   20722       0
   20724   20725   20725       0   20727   20728   20728       0   20730   20731
   20731       0   20733   20734   20734       0   20736   20737   20737       0
   20739   20740   20740       0   20742   20743   20743       0   20745   20746
   20746       0   20748   20749   20749       0   20751   20752   20752       0
   20754   20755   20755       0   20757   20758   20758       0   20760   20761
   20761       0   20763   20764   20764       0   20766   20767   20767       0
   20769   20770   20770       0   20772   20773   20773       0   20775   20776
   20776       0   20778   20779   20779       0   20781   20782   20782       0
   20784   20785   20785       0   20787   20788   20788       0   20790   20791
   20791       0   20793   20794   20794       0   20796   20797   20797       0
   20799   20800   20800       0   20802   20803   20803       0   20805   20806
   20806       0   20808   20809   20809       0   20811   20812   20812       0
   20814   20815   20815       0   20817   20818   20818       0   20820   20821
   20821       0   20823   20824   20824       0   20826   20827   20827       0
   20829   20830   20830       0   20832   20833   20833       0   20835   20836
   20836       0   20838   20839   20839       0   20841   20842   20842       0
   20844   20845   20845       0   20847   20848   20848       0   20850   20851
   20851       0   20853   20854   20854       0   20856   20857   20857       0
   20859   20860   20860       0   20862   20863   20863       0   20865   20866
   20866       0   20868   20869   20869       0   20871   20872   20872       0
   20874   20875   20875       0   20877   20878   20878       0   20880   20881
   20881       0   20883   20884   20884       0   20886   20887   20887       0
   20889   20890   20890       0   20892   20893   20893       0   20895   20896
   20896       0   20898   20899   20899       0   20901   20902   20902       0
   20904   20905   20905       0   20907   20908   20908       0   20910   20911
   20911       0   20913   20914   20914       0   20916   20917   20917       0
   20919   20920   20920       0   20922   20923   20923       0   20925   20926
   20926       0   20928   20929   20929       0   20931   20932   20932       0
   20934   20935   20935       0   20937   20938   20938       0   20940   20941
   20941       0   20943   20944   20944       0   20946   20947   20947       0
   20949   20950   20950       0   20952   20953   20953       0   20955   20956
   20956       0   20958   20959   20959       0   20961   20962   20962       0
   20964   20965   20965       0   20967   20968   20968       0   20970   20971
   20971       0   20973   20974   20974       0   20976   20977   20977       0
   20979   20980   20980       0   20982   20983   20983       0   20985   20986
   20986       0   20988   20989   20989       0   20991   20992   20992       0
   20994   20995   20995       0   20997   20998   20998       0   21000   21001
   21001       0   21003   21004   21004       0   21006   21007   21007       0
   21009   21010   21010       0   21012   21013   21013       0   21015   21016
   21016       0   21018   21019   21019       0   21021   21022   21022       0
   21024   21025   21025       0   21027   21028   21028       0   21030   21031
   21031       0   21033   21034   21034       0   21036   21037   21037       0
   21039   21040   21040       0   21042   21043   21043       0   21045   21046
   21046       0   21048   21049   21049       0   21051   21052   21052       0
   21054   21055   21055       0   21057   21058   21058       0   21060   21061
   21061       0   21063   21064   21064       0   21066   21067   21067       0
   21069   21070   21070       0   21072   21073   21073       0   21075   21076
   21076       0   21078   21079   21079       0   21081   21082   21082       0
   21084   21085   21085       0   21087   21088   21088       0   21090   21091
   21091       0   21093   21094   21094       0   21096   21097   21097       0
   21099   21100   21100       0   21102   21103   21103       0   21105   21106
   21106       0   21108   21109   21109       0   21111   21112   21112       0
   21114   21115   21115       0   21117   21118   21118       0   21120   21121
   21121       0   21123   21124   21124       0   21126   21127   21127       0
   21129   21130   21130       0   21132   21133   21133       0   21135   21136
   21136       0   21138   21139   21139       0   21141   21142   21142       0
   21144   21145   21145       0   21147   21148   21148       0   21150   21151
   21151       0   21153   21154   21154       0   21156   21157   21157       0
   21159   21160   21160       0   21162   21163   21163       0   21165   21166
   21166       0   21168   21169   21169       0   21171   21172   21172       0
   21174   21175   21175       0   21177   21178   21178       0   21180   21181
   21181       0   21183   21184   21184       0   21186   21187   21187       0
   21189   21190   21190       0   21192   21193   21193       0   21195   21196
   21196       0   21198   21199   21199       0   21201   21202   21202       0
   21204   21205   21205       0   21207   21208   21208       0   21210   21211
   21211       0   21213   21214   21214       0   21216   21217   21217       0
   21219   21220   21220       0   21222   21223   21223       0   21225   21226
   21226       0   21228   21229   21229       0   21231   21232   21232       0
   21234   21235   21235       0   21237   21238   21238       0   21240   21241
   21241       0   21243   21244   21244       0   21246   21247   21247       0
   21249   21250   21250       0   21252   21253   21253       0   21255   21256
   21256       0   21258   21259   21259       0   21261   21262   21262       0
   21264   21265   21265       0   21267   21268   21268       0   21270   21271
   21271       0   21273   21274   21274       0   21276   21277   21277       0
   21279   21280   21280       0   21282   21283   21283       0   21285   21286
   21286       0   21288   21289   21289       0   21291   21292   21292       0
   21294   21295   21295       0   21297   21298   21298       0   21300   21301
   21301       0   21303   21304   21304       0   21306   21307   21307       0
   21309   21310   21310       0   21312   21313   21313       0   21315   21316
   21316       0   21318   21319   21319       0   21321   21322   21322       0
   21324   21325   21325       0   21327   21328   21328       0   21330   21331
   21331       0   21333   21334   21334       0   21336   21337   21337       0
   21339   21340   21340       0   21342   21343   21343       0   21345   21346
   21346       0   21348   21349   21349       0   21351   21352   21352       0
   21354   21355   21355       0   21357   21358   21358       0   21360   21361
   21361       0   21363   21364   21364       0   21366   21367   21367       0
   21369   21370   21370       0   21372   21373   21373       0   21375   21376
   21376       0   21378   21379   21379       0   21381   21382   21382       0
   21384   21385   21385       0   21387   21388   21388       0   21390   21391
   21391       0   21393   21394   21394       0   21396   21397   21397       0
   21399   21400   21400       0   21402   21403   21403       0   21405   21406
   21406       0   21408   21409   21409       0   21411   21412   21412       0
   21414   21415   21415       0   21417   21418   21418       0   21420   21421
   21421       0   21423   21424   21424       0   21426   21427   21427       0
   21429   21430   21430       0   21432   21433   21433       0   21435   21436
   21436       0   21438   21439   21439       0   21441   21442   21442       0
   21444   21445   21445       0   21447   21448   21448       0   21450   21451
   21451       0   21453   21454   21454       0   21456   21457   21457       0
   21459   21460   21460       0   21462   21463   21463       0   21465   21466
   21466       0   21468   21469   21469       0   21471   21472   21472       0
   21474   21475   21475       0   21477   21478   21478       0   21480   21481
   21481       0   21483   21484   21484       0   21486   21487   21487       0
   21489   21490   21490       0   21492   21493   21493       0   21495   21496
   21496       0   21498   21499   21499       0   21501   21502   21502       0
   21504   21505   21505       0   21507   21508   21508       0   21510   21511
   21511       0   21513   21514   21514       0   21516   21517   21517       0
   21519   21520   21520       0   21522   21523   21523       0   21525   21526
   21526       0   21528   21529   21529       0   21531   21532   21532       0
   21534   21535   21535       0   21537   21538   21538       0   21540   21541
   21541       0   21543   21544   21544       0   21546   21547   21547       0
   21549   21550   21550       0   21552   21553   21553       0   21555   21556
   21556       0   21558   21559   21559       0   21561   21562   21562       0
   21564   21565   21565       0   21567   21568   21568       0   21570   21571
   21571       0   21573   21574   21574       0   21576   21577   21577       0
   21579   21580   21580       0   21582   21583   21583       0   21585   21586
   21586       0   21588   21589   21589       0   21591   21592   21592       0
   21594   21595   21595       0   21597   21598   21598       0   21600   21601
   21601       0   21603   21604   21604       0   21606   21607   21607       0
   21609   21610   21610       0   21612   21613   21613       0   21615   21616
   21616       0   21618   21619   21619       0   21621   21622   21622       0
   21624   21625   21625       0   21627   21628   21628       0   21630   21631
   21631       0   21633   21634   21634       0   21636   21637   21637       0
   21639   21640   21640       0   21642   21643   21643       0   21645   21646
   21646       0   21648   21649   21649       0   21651   21652   21652       0
   21654   21655   21655       0   21657   21658   21658       0   21660   21661
   21661       0   21663   21664   21664       0   21666   21667   21667       0
   21669   21670   21670       0   21672   21673   21673       0   21675   21676
   21676       0   21678   21679   21679       0   21681   21682   21682       0
   21684   21685   21685       0   21687   21688   21688       0   21690   21691
   21691       0   21693   21694   21694       0   21696   21697   21697       0
   21699   21700   21700       0   21702   21703   21703       0   21705   21706
   21706       0   21708   21709   21709       0   21711   21712   21712       0
   21714   21715   21715       0   21717   21718   21718       0   21720   21721
   21721       0   21723   21724   21724       0   21726   21727   21727       0
   21729   21730   21730       0   21732   21733   21733       0   21735   21736
   21736       0   21738   21739   21739       0   21741   21742   21742       0
   21744   21745   21745       0   21747   21748   21748       0   21750   21751
   21751       0   21753   21754   21754       0   21756   21757   21757       0
   21759   21760   21760       0   21762   21763   21763       0   21765   21766
   21766       0   21768   21769   21769       0   21771   21772   21772       0
   21774   21775   21775       0   21777   21778   21778       0   21780   21781
   21781       0   21783   21784   21784       0   21786   21787   21787       0
   21789   21790   21790       0   21792   21793   21793       0   21795   21796
   21796       0   21798   21799   21799       0   21801   21802   21802       0
   21804   21805   21805       0   21807   21808   21808       0   21810   21811
   21811       0   21813   21814   21814       0   21816   21817   21817       0
   21819   21820   21820       0   21822   21823   21823       0   21825   21826
   21826       0   21828   21829   21829       0   21831   21832   21832       0
   21834   21835   21835       0   21837   21838   21838       0   21840   21841
   21841       0   21843   21844   21844       0   21846   21847   21847       0
   21849   21850   21850       0   21852   21853   21853       0   21855   21856
   21856       0   21858   21859   21859       0   21861   21862   21862       0
   21864   21865   21865       0   21867   21868   21868       0   21870   21871
   21871       0   21873   21874   21874       0   21876   21877   21877       0
   21879   21880   21880       0   21882   21883   21883       0   21885   21886
   21886       0   21888   21889   21889       0   21891   21892   21892       0
   21894   21895   21895       0   21897   21898   21898       0   21900   21901
   21901       0   21903   21904   21904       0   21906   21907   21907       0
   21909   21910   21910       0   21912   21913   21913       0   21915   21916
   21916       0   21918   21919   21919       0   21921   21922   21922       0
   21924   21925   21925       0   21927   21928   21928       0   21930   21931
   21931       0   21933   21934   21934       0   21936   21937   21937       0
   21939   21940   21940       0   21942   21943   21943       0   21945   21946
   21946       0   21948   21949   21949       0   21951   21952   21952       0
   21954   21955   21955       0   21957   21958   21958       0   21960   21961
   21961       0   21963   21964   21964       0   21966   21967   21967       0
   21969   21970   21970       0   21972   21973   21973       0   21975   21976
   21976       0   21978   21979   21979       0   21981   21982   21982       0
   21984   21985   21985       0   21987   21988   21988       0   21990   21991
   21991       0   21993   21994   21994       0   21996   21997   21997       0
   21999   22000   22000       0   22002   22003   22003       0   22005   22006
   22006       0   22008   22009   22009       0   22011   22012   22012       0
   22014   22015   22015       0   22017   22018   22018       0   22020   22021
   22021       0   22023   22024   22024       0   22026   22027   22027       0
   22029   22030   22030       0   22032   22033   22033       0   22035   22036
   22036       0   22038   22039   22039       0   22041   22042   22042       0
   22044   22045   22045       0   22047   22048   22048       0   22050   22051
   22051       0   22053   22054   22054       0   22056   22057   22057       0
   22059   22060   22060       0   22062   22063   22063       0   22065   22066
   22066       0   22068   22069   22069       0   22071   22072   22072       0
   22074   22075   22075       0   22077   22078   22078       0   22080   22081
   22081       0   22083   22084   22084       0   22086   22087   22087       0
   22089   22090   22090       0   22092   22093   22093       0   22095   22096
   22096       0   22098   22099   22099       0   22101   22102   22102       0
   22104   22105   22105       0   22107   22108   22108       0   22110   22111
   22111       0   22113   22114   22114       0   22116   22117   22117       0
   22119   22120   22120       0   22122   22123   22123       0   22125   22126
   22126       0   22128   22129   22129       0   22131   22132   22132       0
   22134   22135   22135       0   22137   22138   22138       0   22140   22141
   22141       0   22143   22144   22144       0   22146   22147   22147       0
   22149   22150   22150       0   22152   22153   22153       0   22155   22156
   22156       0   22158   22159   22159       0   22161   22162   22162       0
   22164   22165   22165       0   22167   22168   22168       0   22170   22171
   22171       0   22173   22174   22174       0   22176   22177   22177       0
   22179   22180   22180       0   22182   22183   22183       0   22185   22186
   22186       0   22188   22189   22189       0   22191   22192   22192       0
   22194   22195   22195       0   22197   22198   22198       0   22200   22201
   22201       0   22203   22204   22204       0   22206   22207   22207       0
   22209   22210   22210       0   22212   22213   22213       0   22215   22216
   22216       0   22218   22219   22219       0   22221   22222   22222       0
   22224   22225   22225       0   22227   22228   22228       0   22230   22231
   22231       0   22233   22234   22234       0   22236   22237   22237       0
   22239   22240   22240       0   22242   22243   22243       0   22245   22246
   22246       0   22248   22249   22249       0   22251   22252   22252       0
   22254   22255   22255       0   22257   22258   22258       0   22260   22261
   22261       0   22263   22264   22264       0   22266   22267   22267       0
   22269   22270   22270       0   22272   22273   22273       0   22275   22276
   22276       0   22278   22279   22279       0   22281   22282   22282       0
   22284   22285   22285       0   22287   22288   22288       0   22290   22291
   22291       0   22293   22294   22294       0   22296   22297   22297       0
   22299   22300   22300       0   22302   22303   22303       0   22305   22306
   22306       0   22308   22309   22309       0   22311   22312   22312       0
   22314   22315   22315       0   22317   22318   22318       0   22320   22321
   22321       0   22323   22324   22324       0   22326   22327   22327       0
   22329   22330   22330       0   22332   22333   22333       0   22335   22336
   22336       0   22338   22339   22339       0   22341   22342   22342       0
   22344   22345   22345       0   22347   22348   22348       0   22350   22351
   22351       0   22353   22354   22354       0   22356   22357   22357       0
   22359   22360   22360       0   22362   22363   22363       0   22365   22366
   22366       0   22368   22369   22369       0   22371   22372   22372       0
   22374   22375   22375       0   22377   22378   22378       0   22380   22381
   22381       0   22383   22384   22384       0   22386   22387   22387       0
   22389   22390   22390       0   22392   22393   22393       0   22395   22396
   22396       0   22398   22399   22399       0   22401   22402   22402       0
   22404   22405   22405       0   22407   22408   22408       0   22410   22411
   22411       0   22413   22414   22414       0   22416   22417   22417       0
   22419   22420   22420       0   22422   22423   22423       0   22425   22426
   22426       0   22428   22429   22429       0   22431   22432   22432       0
   22434   22435   22435       0   22437   22438   22438       0   22440   22441
   22441       0   22443   22444   22444       0   22446   22447   22447       0
   22449   22450   22450       0   22452   22453   22453       0   22455   22456
   22456       0   22458   22459   22459       0   22461   22462   22462       0
   22464   22465   22465       0   22467   22468   22468       0   22470   22471
   22471       0   22473   22474   22474       0   22476   22477   22477       0
   22479   22480   22480       0   22482   22483   22483       0   22485   22486
   22486       0   22488   22489   22489       0   22491   22492   22492       0
   22494   22495   22495       0   22497   22498   22498       0   22500   22501
   22501       0   22503   22504   22504       0   22506   22507   22507       0
   22509   22510   22510       0   22512   22513   22513       0   22515   22516
   22516       0   22518   22519   22519       0   22521   22522   22522       0
   22524   22525   22525       0   22527   22528   22528       0   22530   22531
   22531       0   22533   22534   22534       0   22536   22537   22537       0
   22539   22540   22540       0   22542   22543   22543       0   22545   22546
   22546       0   22548   22549   22549       0   22551   22552   22552       0
   22554   22555   22555       0   22557   22558   22558       0   22560   22561
   22561       0   22563   22564   22564       0   22566   22567   22567       0
   22569   22570   22570       0   22572   22573   22573       0   22575   22576
   22576       0   22578   22579   22579       0   22581   22582   22582       0
   22584   22585   22585       0   22587   22588   22588       0   22590   22591
   22591       0   22593   22594   22594       0   22596   22597   22597       0
   22599   22600   22600       0   22602   22603   22603       0   22605   22606
   22606       0   22608   22609   22609       0   22611   22612   22612       0
   22614   22615   22615       0   22617   22618   22618       0   22620   22621
   22621       0   22623   22624   22624       0   22626   22627   22627       0
   22629   22630   22630       0   22632   22633   22633       0   22635   22636
   22636       0   22638   22639   22639       0   22641   22642   22642       0
   22644   22645   22645       0   22647   22648   22648       0   22650   22651
   22651       0   22653   22654   22654       0   22656   22657   22657       0
   22659   22660   22660       0   22662   22663   22663       0   22665   22666
   22666       0   22668   22669   22669       0   22671   22672   22672       0
   22674   22675   22675       0   22677   22678   22678       0   22680   22681
   22681       0   22683   22684   22684       0   22686   22687   22687       0
   22689   22690   22690       0   22692   22693   22693       0   22695   22696
   22696       0   22698   22699   22699       0   22701   22702   22702       0
   22704   22705   22705       0   22707   22708   22708       0   22710   22711
   22711       0   22713   22714   22714       0   22716   22717   22717       0
   22719   22720   22720       0   22722   22723   22723       0   22725   22726
   22726       0   22728   22729   22729       0   22731   22732   22732       0
   22734   22735   22735       0   22737   22738   22738       0   22740   22741
   22741       0   22743   22744   22744       0   22746   22747   22747       0
   22749   22750   22750       0   22752   22753   22753       0   22755   22756
   22756       0   22758   22759   22759       0   22761   22762   22762       0
   22764   22765   22765       0   22767   22768   22768       0   22770   22771
   22771       0   22773   22774   22774       0   22776   22777   22777       0
   22779   22780   22780       0   22782   22783   22783       0   22785   22786
   22786       0   22788   22789   22789       0   22791   22792   22792       0
   22794   22795   22795       0   22797   22798   22798       0   22800   22801
   22801       0   22803   22804   22804       0   22806   22807   22807       0
   22809   22810   22810       0   22812   22813   22813       0   22815   22816
   22816       0   22818   22819   22819       0   22821   22822   22822       0
   22824   22825   22825       0   22827   22828   22828       0   22830   22831
   22831       0   22833   22834   22834       0   22836   22837   22837       0
   22839   22840   22840       0   22842   22843   22843       0   22845   22846
   22846       0   22848   22849   22849       0   22851   22852   22852       0
   22854   22855   22855       0   22857   22858   22858       0   22860   22861
   22861       0   22863   22864   22864       0   22866   22867   22867       0
   22869   22870   22870       0   22872   22873   22873       0   22875   22876
   22876       0   22878   22879   22879       0   22881   22882   22882       0
   22884   22885   22885       0   22887   22888   22888       0   22890   22891
   22891       0   22893   22894   22894       0   22896   22897   22897       0
   22899   22900   22900       0   22902   22903   22903       0   22905   22906
   22906       0   22908   22909   22909       0   22911   22912   22912       0
   22914   22915   22915       0   22917   22918   22918       0   22920   22921
   22921       0   22923   22924   22924       0   22926   22927   22927       0
   22929   22930   22930       0   22932   22933   22933       0   22935   22936
   22936       0   22938   22939   22939       0   22941   22942   22942       0
   22944   22945   22945       0   22947   22948   22948       0   22950   22951
   22951       0   22953   22954   22954       0   22956   22957   22957       0
   22959   22960   22960       0   22962   22963   22963       0   22965   22966
   22966       0   22968   22969   22969       0   22971   22972   22972       0
   22974   22975   22975       0   22977   22978   22978       0   22980   22981
   22981       0   22983   22984   22984       0   22986   22987   22987       0
   22989   22990   22990       0   22992   22993   22993       0   22995   22996
   22996       0   22998   22999   22999       0   23001   23002   23002       0
   23004   23005   23005       0   23007   23008   23008       0   23010   23011
   23011       0   23013   23014   23014       0   23016   23017   23017       0
   23019   23020   23020       0   23022   23023   23023       0   23025   23026
   23026       0   23028   23029   23029       0   23031   23032   23032       0
   23034   23035   23035       0   23037   23038   23038       0   23040   23041
   23041       0   23043   23044   23044       0   23046   23047   23047       0
   23049   23050   23050       0   23052   23053   23053       0   23055   23056
   23056       0   23058   23059   23059       0   23061   23062   23062       0
   23064   23065   23065       0   23067   23068   23068       0   23070   23071
   23071       0   23073   23074   23074       0   23076   23077   23077       0
   23079   23080   23080       0   23082   23083   23083       0   23085   23086
   23086       0   23088   23089   23089       0   23091   23092   23092       0
   23094   23095   23095       0   23097   23098   23098       0   23100   23101
   23101       0   23103   23104   23104       0   23106   23107   23107       0
   23109   23110   23110       0   23112   23113   23113       0   23115   23116
   23116       0   23118   23119   23119       0   23121   23122   23122       0
   23124   23125   23125       0   23127   23128   23128       0   23130   23131
   23131       0   23133   23134   23134       0   23136   23137   23137       0
   23139   23140   23140       0   23142   23143   23143       0   23145   23146
   23146       0   23148   23149   23149       0   23151   23152   23152       0
   23154   23155   23155       0   23157   23158   23158       0   23160   23161
   23161       0   23163   23164   23164       0   23166   23167   23167       0
   23169   23170   23170       0   23172   23173   23173       0   23175   23176
   23176       0   23178   23179   23179       0   23181   23182   23182       0
   23184   23185   23185       0   23187   23188   23188       0   23190   23191
   23191       0   23193   23194   23194       0   23196   23197   23197       0
   23199   23200   23200       0   23202   23203   23203       0   23205   23206
   23206       0   23208   23209   23209       0   23211   23212   23212       0
   23214   23215   23215       0   23217   23218   23218       0   23220   23221
   23221       0   23223   23224   23224       0   23226   23227   23227       0
   23229   23230   23230       0   23232   23233   23233       0   23235   23236
   23236       0   23238   23239   23239       0   23241   23242   23242       0
   23244   23245   23245       0   23247   23248   23248       0   23250   23251
   23251       0   23253   23254   23254       0   23256   23257   23257       0
   23259   23260   23260       0   23262   23263   23263       0   23265   23266
   23266       0   23268   23269   23269       0   23271   23272   23272       0
   23274   23275   23275       0   23277   23278   23278       0   23280   23281
   23281       0   23283   23284   23284       0   23286   23287   23287       0
   23289   23290   23290       0   23292   23293   23293       0   23295   23296
   23296       0   23298   23299   23299       0   23301   23302   23302       0
   23304   23305   23305       0   23307   23308   23308       0   23310   23311
   23311       0   23313   23314   23314       0   23316   23317   23317       0
   23319   23320   23320       0   23322   23323   23323       0   23325   23326
   23326       0   23328   23329   23329       0   23331   23332   23332       0
   23334   23335   23335       0   23337   23338   23338       0   23340   23341
   23341       0   23343   23344   23344       0   23346   23347   23347       0
   23349   23350   23350       0   23352   23353   23353       0   23355   23356
   23356       0   23358   23359   23359       0   23361   23362   23362       0
   23364   23365   23365       0   23367   23368   23368       0   23370   23371
   23371       0   23373   23374   23374       0   23376   23377   23377       0
   23379   23380   23380       0   23382   23383   23383       0   23385   23386
   23386       0   23388   23389   23389       0   23391   23392   23392       0
   23394   23395   23395       0   23397   23398   23398       0   23400   23401
   23401       0   23403   23404   23404       0   23406   23407   23407       0
   23409   23410   23410       0   23412   23413   23413       0   23415   23416
   23416       0   23418   23419   23419       0   23421   23422   23422       0
   23424   23425   23425       0   23427   23428   23428       0   23430   23431
   23431       0   23433   23434   23434       0   23436   23437   23437       0
   23439   23440   23440       0   23442   23443   23443       0   23445   23446
   23446       0   23448   23449   23449       0   23451   23452   23452       0
   23454   23455   23455       0   23457   23458   23458       0   23460   23461
   23461       0   23463   23464   23464       0   23466   23467   23467       0
   23469   23470   23470       0   23472   23473   23473       0   23475   23476
   23476       0   23478   23479   23479       0   23481   23482   23482       0
   23484   23485   23485       0   23487   23488   23488       0   23490   23491
   23491       0   23493   23494   23494       0   23496   23497   23497       0
   23499   23500   23500       0   23502   23503   23503       0   23505   23506
   23506       0   23508   23509   23509       0   23511   23512   23512       0
   23514   23515   23515       0   23517   23518   23518       0   23520   23521
   23521       0   23523   23524   23524       0   23526   23527   23527       0
   23529   23530   23530       0   23532   23533   23533       0   23535   23536
   23536       0   23538   23539   23539       0   23541   23542   23542       0
   23544   23545   23545       0   23547   23548   23548       0   23550   23551
   23551       0   23553   23554   23554       0   23556   23557   23557       0
   23559   23560   23560       0   23562   23563   23563       0   23565   23566
   23566       0   23568   23569   23569       0   23571   23572   23572       0
   23574   23575   23575       0   23577   23578   23578       0   23580   23581
   23581       0   23583   23584   23584       0   23586   23587   23587       0
   23589   23590   23590       0   23592   23593   23593       0   23595   23596
   23596       0   23598   23599   23599       0   23601   23602   23602       0
   23604   23605   23605       0   23607   23608   23608       0   23610   23611
   23611       0   23613   23614   23614       0   23616   23617   23617       0
   23619   23620   23620       0   23622   23623   23623       0   23625   23626
   23626       0   23628   23629   23629       0   23631   23632   23632       0
   23634   23635   23635       0   23637   23638   23638       0   23640   23641
   23641       0   23643   23644   23644       0   23646   23647   23647       0
   23649   23650   23650       0   23652   23653   23653       0   23655   23656
   23656       0   23658   23659   23659       0   23661   23662   23662       0
   23664   23665   23665       0   23667   23668   23668       0   23670   23671
   23671       0   23673   23674   23674       0   23676   23677   23677       0
   23679   23680   23680       0   23682   23683   23683       0   23685   23686
   23686       0   23688   23689   23689       0   23691   23692   23692       0
   23694   23695   23695       0   23697   23698   23698       0   23700   23701
   23701       0   23703   23704   23704       0   23706   23707   23707       0
   23709   23710   23710       0   23712   23713   23713       0   23715   23716
   23716       0   23718   23719   23719       0   23721   23722   23722       0
   23724   23725   23725       0   23727   23728   23728       0   23730   23731
   23731       0   23733   23734   23734       0   23736   23737   23737       0
   23739   23740   23740       0   23742   23743   23743       0   23745   23746
   23746       0   23748   23749   23749       0   23751   23752   23752       0
   23754   23755   23755       0   23757   23758   23758       0   23760   23761
   23761       0   23763   23764   23764       0   23766   23767   23767       0
   23769   23770   23770       0   23772   23773   23773       0   23775   23776
   23776       0   23778   23779   23779       0   23781   23782   23782       0
   23784   23785   23785       0   23787   23788   23788       0   23790   23791
   23791       0   23793   23794   23794       0   23796   23797   23797       0
   23799   23800   23800       0   23802   23803   23803       0   23805   23806
   23806       0   23808   23809   23809       0   23811   23812   23812       0
   23814   23815   23815       0   23817   23818   23818       0   23820   23821
   23821       0   23823   23824   23824       0   23826   23827   23827       0
   23829   23830   23830       0   23832   23833   23833       0   23835   23836
   23836       0   23838   23839   23839       0   23841   23842   23842       0
   23844   23845   23845       0   23847   23848   23848       0   23850   23851
   23851       0   23853   23854   23854       0   23856   23857   23857       0
   23859   23860   23860       0   23862   23863   23863       0   23865   23866
   23866       0   23868   23869   23869       0   23871   23872   23872       0
   23874   23875   23875       0   23877   23878   23878       0   23880   23881
   23881       0   23883   23884   23884       0   23886   23887   23887       0
   23889   23890   23890       0   23892   23893   23893       0   23895   23896
   23896       0   23898   23899   23899       0   23901   23902   23902       0
   23904   23905   23905       0   23907   23908   23908       0   23910   23911
   23911       0   23913   23914   23914       0   23916   23917   23917       0
   23919   23920   23920       0   23922   23923   23923       0   23925   23926
   23926       0   23928   23929   23929       0   23931   23932   23932       0
   23934   23935   23935       0   23937   23938   23938       0   23940   23941
   23941       0   23943   23944   23944       0   23946   23947   23947       0
   23949   23950   23950       0   23952   23953   23953       0   23955   23956
   23956       0   23958   23959   23959       0   23961   23962   23962       0
   23964   23965   23965       0   23967   23968   23968       0   23970   23971
   23971       0   23973   23974   23974       0   23976   23977   23977       0
   23979   23980   23980       0   23982   23983   23983       0   23985   23986
   23986       0   23988   23989   23989       0   23991   23992   23992       0
   23994   23995   23995       0   23997   23998   23998       0   24000   24001
   24001       0   24003   24004   24004       0   24006   24007   24007       0
   24009   24010   24010       0   24012   24013   24013       0   24015   24016
   24016       0   24018   24019   24019       0   24021   24022   24022       0
   24024   24025   24025       0   24027   24028   24028       0   24030   24031
   24031       0   24033   24034   24034       0   24036   24037   24037       0
   24039   24040   24040       0   24042   24043   24043       0   24045   24046
   24046       0   24048   24049   24049       0   24051   24052   24052       0
   24054   24055   24055       0   24057   24058   24058       0   24060   24061
   24061       0   24063   24064   24064       0   24066   24067   24067       0
   24069   24070   24070       0   24072   24073   24073       0   24075   24076
   24076       0   24078   24079   24079       0   24081   24082   24082       0
   24084   24085   24085       0   24087   24088   24088       0   24090   24091
   24091       0   24093   24094   24094       0   24096   24097   24097       0
   24099   24100   24100       0   24102   24103   24103       0   24105   24106
   24106       0   24108   24109   24109       0   24111   24112   24112       0
   24114   24115   24115       0   24117   24118   24118       0   24120   24121
   24121       0   24123   24124   24124       0   24126   24127   24127       0
   24129   24130   24130       0   24132   24133   24133       0   24135   24136
   24136       0   24138   24139   24139       0   24141   24142   24142       0
   24144   24145   24145       0   24147   24148   24148       0   24150   24151
   24151       0   24153   24154   24154       0   24156   24157   24157       0
   24159   24160   24160       0   24162   24163   24163       0   24165   24166
   24166       0   24168   24169   24169       0   24171   24172   24172       0
   24174   24175   24175       0   24177   24178   24178       0   24180   24181
   24181       0   24183   24184   24184       0   24186   24187   24187       0
   24189   24190   24190       0   24192   24193   24193       0   24195   24196
   24196       0   24198   24199   24199       0   24201   24202   24202       0
   24204   24205   24205       0   24207   24208   24208       0   24210   24211
   24211       0   24213   24214   24214       0   24216   24217   24217       0
   24219   24220   24220       0   24222   24223   24223       0   24225   24226
   24226       0   24228   24229   24229       0   24231   24232   24232       0
   24234   24235   24235       0   24237   24238   24238       0   24240   24241
   24241       0   24243   24244   24244       0   24246   24247   24247       0
   24249   24250   24250       0   24252   24253   24253       0   24255   24256
   24256       0   24258   24259   24259       0   24261   24262   24262       0
   24264   24265   24265       0   24267   24268   24268       0   24270   24271
   24271       0   24273   24274   24274       0   24276   24277   24277       0
   24279   24280   24280       0   24282   24283   24283       0   24285   24286
   24286       0   24288   24289   24289       0   24291   24292   24292       0
   24294   24295   24295       0   24297   24298   24298       0   24300   24301
   24301       0   24303   24304   24304       0   24306   24307   24307       0
   24309   24310   24310       0   24312   24313   24313       0   24315   24316
   24316       0   24318   24319   24319       0   24321   24322   24322       0
   24324   24325   24325       0   24327   24328   24328       0   24330   24331
   24331       0   24333   24334   24334       0   24336   24337   24337       0
   24339   24340   24340       0   24342   24343   24343       0   24345   24346
   24346       0   24348   24349   24349       0   24351   24352   24352       0
   24354   24355   24355       0   24357   24358   24358       0   24360   24361
   24361       0   24363   24364   24364       0   24366   24367   24367       0
   24369   24370   24370       0   24372   24373   24373       0   24375   24376
   24376       0   24378   24379   24379       0   24381   24382   24382       0
   24384   24385   24385       0   24387   24388   24388       0   24390   24391
   24391       0   24393   24394   24394       0   24396   24397   24397       0
   24399   24400   24400       0   24402   24403   24403       0   24405   24406
   24406       0   24408   24409   24409       0   24411   24412   24412       0
   24414   24415   24415       0   24417   24418   24418       0   24420   24421
   24421       0   24423   24424   24424       0   24426   24427   24427       0
   24429   24430   24430       0   24432   24433   24433       0   24435   24436
   24436       0   24438   24439   24439       0   24441   24442   24442       0
   24444   24445   24445       0   24447   24448   24448       0   24450   24451
   24451       0   24453   24454   24454       0   24456   24457   24457       0
   24459   24460   24460       0   24462   24463   24463       0   24465   24466
   24466       0   24468   24469   24469       0   24471   24472   24472       0
   24474   24475   24475       0   24477   24478   24478       0   24480   24481
   24481       0   24483   24484   24484       0   24486   24487   24487       0
   24489   24490   24490       0   24492   24493   24493       0   24495   24496
   24496       0   24498   24499   24499       0   24501   24502   24502       0
   24504   24505   24505       0   24507   24508   24508       0   24510   24511
   24511       0   24513   24514   24514       0   24516   24517   24517       0
   24519   24520   24520       0   24522   24523   24523       0   24525   24526
   24526       0   24528   24529   24529       0   24531   24532   24532       0
   24534   24535   24535       0   24537   24538   24538       0   24540   24541
   24541       0   24543   24544   24544       0   24546   24547   24547       0
   24549   24550   24550       0   24552   24553   24553       0   24555   24556
   24556       0   24558   24559   24559       0   24561   24562   24562       0
   24564   24565   24565       0   24567   24568   24568       0   24570   24571
   24571       0   24573   24574   24574       0   24576   24577   24577       0
   24579   24580   24580       0   24582   24583   24583       0   24585   24586
   24586       0   24588   24589   24589       0   24591   24592   24592       0
   24594   24595   24595       0   24597   24598   24598       0   24600   24601
   24601       0   24603   24604   24604       0   24606   24607   24607       0
   24609   24610   24610       0   24612   24613   24613       0   24615   24616
   24616       0   24618   24619   24619       0   24621   24622   24622       0
   24624   24625   24625       0   24627   24628   24628       0   24630   24631
   24631       0   24633   24634   24634       0   24636   24637   24637       0
   24639   24640   24640       0   24642   24643   24643       0   24645   24646
   24646       0   24648   24649   24649       0   24651   24652   24652       0
   24654   24655   24655       0   24657   24658   24658       0   24660   24661
   24661       0   24663   24664   24664       0   24666   24667   24667       0
   24669   24670   24670       0   24672   24673   24673       0   24675   24676
   24676       0   24678   24679   24679       0   24681   24682   24682       0
   24684   24685   24685       0   24687   24688   24688       0   24690   24691
   24691       0   24693   24694   24694       0   24696   24697   24697       0
   24699   24700   24700       0   24702   24703   24703       0   24705   24706
   24706       0   24708   24709   24709       0   24711   24712   24712       0
   24714   24715   24715       0   24717   24718   24718       0   24720   24721
   24721       0   24723   24724   24724       0   24726   24727   24727       0
   24729   24730   24730       0   24732   24733   24733       0   24735   24736
   24736       0   24738   24739   24739       0   24741   24742   24742       0
   24744   24745   24745       0   24747   24748   24748       0   24750   24751
   24751       0   24753   24754   24754       0   24756   24757   24757       0
   24759   24760   24760       0   24762   24763   24763       0   24765   24766
   24766       0   24768   24769   24769       0   24771   24772   24772       0
   24774   24775   24775       0   24777   24778   24778       0   24780   24781
   24781       0   24783   24784   24784       0   24786   24787   24787       0
   24789   24790   24790       0   24792   24793   24793       0   24795   24796
   24796       0   24798   24799   24799       0   24801   24802   24802       0
   24804   24805   24805       0   24807   24808   24808       0   24810   24811
   24811       0   24813   24814   24814       0   24816   24817   24817       0
   24819   24820   24820       0   24822   24823   24823       0   24825   24826
   24826       0   24828   24829   24829       0   24831   24832   24832       0
   24834   24835   24835       0   24837   24838   24838       0   24840   24841
   24841       0   24843   24844   24844       0   24846   24847   24847       0
   24849   24850   24850       0   24852   24853   24853       0   24855   24856
   24856       0   24858   24859   24859       0   24861   24862   24862       0
   24864   24865   24865       0   24867   24868   24868       0   24870   24871
   24871       0   24873   24874   24874       0   24876   24877   24877       0
   24879   24880   24880       0   24882   24883   24883       0   24885   24886
   24886       0   24888   24889   24889       0   24891   24892   24892       0
   24894   24895   24895       0   24897   24898   24898       0   24900   24901
   24901       0   24903   24904   24904       0   24906   24907   24907       0
   24909   24910   24910       0   24912   24913   24913       0   24915   24916
   24916       0   24918   24919   24919       0   24921   24922   24922       0
   24924   24925   24925       0   24927   24928   24928       0   24930   24931
   24931       0   24933   24934   24934       0   24936   24937   24937       0
   24939   24940   24940       0   24942   24943   24943       0   24945   24946
   24946       0   24948   24949   24949       0   24951   24952   24952       0
   24954   24955   24955       0   24957   24958   24958       0   24960   24961
   24961       0   24963   24964   24964       0   24966   24967   24967       0
   24969   24970   24970       0   24972   24973   24973       0   24975   24976
   24976       0   24978   24979   24979       0   24981   24982   24982       0
   24984   24985   24985       0   24987   24988   24988       0   24990   24991
   24991       0   24993   24994   24994       0   24996   24997   24997       0
   24999   25000   25000       0   25002   25003   25003       0   25005   25006
   25006       0   25008   25009   25009       0   25011   25012   25012       0
   25014   25015   25015       0   25017   25018   25018       0   25020   25021
   25021       0   25023   25024   25024       0   25026   25027   25027       0
   25029   25030   25030       0   25032   25033   25033       0   25035   25036
   25036       0   25038   25039   25039       0   25041   25042   25042       0
   25044   25045   25045       0   25047   25048   25048       0   25050   25051
   25051       0   25053   25054   25054       0   25056   25057   25057       0
   25059   25060   25060       0   25062   25063   25063       0   25065   25066
   25066       0   25068   25069   25069       0   25071   25072   25072       0
   25074   25075   25075       0   25077   25078   25078       0   25080   25081
   25081       0   25083   25084   25084       0   25086   25087   25087       0
   25089   25090   25090       0   25092   25093   25093       0   25095   25096
   25096       0   25098   25099   25099       0   25101   25102   25102       0
   25104   25105   25105       0   25107   25108   25108       0   25110   25111
   25111       0   25113   25114   25114       0   25116   25117   25117       0
   25119   25120   25120       0   25122   25123   25123       0   25125   25126
   25126       0   25128   25129   25129       0   25131   25132   25132       0
   25134   25135   25135       0   25137   25138   25138       0   25140   25141
   25141       0   25143   25144   25144       0   25146   25147   25147       0
   25149   25150   25150       0   25152   25153   25153       0   25155   25156
   25156       0   25158   25159   25159       0   25161   25162   25162       0
   25164   25165   25165       0   25167   25168   25168       0   25170   25171
   25171       0   25173   25174   25174       0   25176   25177   25177       0
   25179   25180   25180       0   25182   25183   25183       0   25185   25186
   25186       0   25188   25189   25189       0   25191   25192   25192       0
   25194   25195   25195       0   25197   25198   25198       0   25200   25201
   25201       0   25203   25204   25204       0   25206   25207   25207       0
   25209   25210   25210       0   25212   25213   25213       0   25215   25216
   25216       0   25218   25219   25219       0   25221   25222   25222       0
   25224   25225   25225       0   25227   25228   25228       0   25230   25231
   25231       0   25233   25234   25234       0   25236   25237   25237       0
   25239   25240   25240       0   25242   25243   25243       0   25245   25246
   25246       0   25248   25249   25249       0   25251   25252   25252       0
   25254   25255   25255       0   25257   25258   25258       0   25260   25261
   25261       0   25263   25264   25264       0   25266   25267   25267       0
   25269   25270   25270       0   25272   25273   25273       0   25275   25276
   25276       0   25278   25279   25279       0   25281   25282   25282       0
   25284   25285   25285       0   25287   25288   25288       0   25290   25291
   25291       0   25293   25294   25294       0   25296   25297   25297       0
   25299   25300   25300       0   25302   25303   25303       0   25305   25306
   25306       0   25308   25309   25309       0   25311   25312   25312       0
   25314   25315   25315       0   25317   25318   25318       0   25320   25321
   25321       0   25323   25324   25324       0   25326   25327   25327       0
   25329   25330   25330       0   25332   25333   25333       0   25335   25336
   25336       0   25338   25339   25339       0   25341   25342   25342       0
   25344   25345   25345       0   25347   25348   25348       0   25350   25351
   25351       0   25353   25354   25354       0   25356   25357   25357       0
   25359   25360   25360       0   25362   25363   25363       0   25365   25366
   25366       0   25368   25369   25369       0   25371   25372   25372       0
   25374   25375   25375       0   25377   25378   25378       0   25380   25381
   25381       0   25383   25384   25384       0   25386   25387   25387       0
   25389   25390   25390       0   25392   25393   25393       0   25395   25396
   25396       0   25398   25399   25399       0   25401   25402   25402       0
   25404   25405   25405       0   25407   25408   25408       0   25410   25411
   25411       0   25413   25414   25414       0   25416   25417   25417       0
   25419   25420   25420       0   25422   25423   25423       0   25425   25426
   25426       0   25428   25429   25429       0   25431   25432   25432       0
   25434   25435   25435       0   25437   25438   25438       0   25440   25441
   25441       0   25443   25444   25444       0   25446   25447   25447       0
   25449   25450   25450       0   25452   25453   25453       0   25455   25456
   25456       0   25458   25459   25459       0   25461   25462   25462       0
   25464   25465   25465       0   25467   25468   25468       0   25470   25471
   25471       0   25473   25474   25474       0   25476   25477   25477       0
   25479   25480   25480       0   25482   25483   25483       0   25485   25486
   25486       0   25488   25489   25489       0   25491   25492   25492       0
   25494   25495   25495       0   25497   25498   25498       0   25500   25501
   25501       0   25503   25504   25504       0   25506   25507   25507       0
   25509   25510   25510       0   25512   25513   25513       0   25515   25516
   25516       0   25518   25519   25519       0   25521   25522   25522       0
   25524   25525   25525       0   25527   25528   25528       0   25530   25531
   25531       0   25533   25534   25534       0   25536   25537   25537       0
   25539   25540   25540       0   25542   25543   25543       0   25545   25546
   25546       0   25548   25549   25549       0   25551   25552   25552       0
   25554   25555   25555       0   25557   25558   25558       0   25560   25561
   25561       0   25563   25564   25564       0   25566   25567   25567       0
   25569   25570   25570       0   25572   25573   25573       0   25575   25576
   25576       0   25578   25579   25579       0   25581   25582   25582       0
   25584   25585   25585       0   25587   25588   25588       0   25590   25591
   25591       0   25593   25594   25594       0   25596   25597   25597       0
   25599   25600   25600       0   25602   25603   25603       0   25605   25606
   25606       0   25608   25609   25609       0   25611   25612   25612       0
   25614   25615   25615       0   25617   25618   25618       0   25620   25621
   25621       0   25623   25624   25624       0   25626   25627   25627       0
   25629   25630   25630       0   25632   25633   25633       0   25635   25636
   25636       0   25638   25639   25639       0   25641   25642   25642       0
   25644   25645   25645       0   25647   25648   25648       0   25650   25651
   25651       0   25653   25654   25654       0   25656   25657   25657       0
   25659   25660   25660       0   25662   25663   25663       0   25665   25666
   25666       0   25668   25669   25669       0   25671   25672   25672       0
   25674   25675   25675       0   25677   25678   25678       0   25680   25681
   25681       0   25683   25684   25684       0   25686   25687   25687       0
   25689   25690   25690       0   25692   25693   25693       0   25695   25696
   25696       0   25698   25699   25699       0   25701   25702   25702       0
   25704   25705   25705       0   25707   25708   25708       0   25710   25711
   25711       0   25713   25714   25714       0   25716   25717   25717       0
   25719   25720   25720       0   25722   25723   25723       0   25725   25726
   25726       0   25728   25729   25729       0   25731   25732   25732       0
   25734   25735   25735       0   25737   25738   25738       0   25740   25741
   25741       0   25743   25744   25744       0   25746   25747   25747       0
   25749   25750   25750       0   25752   25753   25753       0   25755   25756
   25756       0   25758   25759   25759       0   25761   25762   25762       0
   25764   25765   25765       0   25767   25768   25768       0   25770   25771
   25771       0   25773   25774   25774       0   25776   25777   25777       0
   25779   25780   25780       0   25782   25783   25783       0   25785   25786
   25786       0   25788   25789   25789       0   25791   25792   25792       0
   25794   25795   25795       0   25797   25798   25798       0   25800   25801
   25801       0   25803   25804   25804       0   25806   25807   25807       0
   25809   25810   25810       0   25812   25813   25813       0   25815   25816
   25816       0   25818   25819   25819       0   25821   25822   25822       0
   25824   25825   25825       0   25827   25828   25828       0   25830   25831
   25831       0   25833   25834   25834       0   25836   25837   25837       0
   25839   25840   25840       0   25842   25843   25843       0   25845   25846
   25846       0   25848   25849   25849       0   25851   25852   25852       0
   25854   25855   25855       0   25857   25858   25858       0   25860   25861
   25861       0   25863   25864   25864       0   25866   25867   25867       0
   25869   25870   25870       0   25872   25873   25873       0   25875   25876
   25876       0   25878   25879   25879       0   25881   25882   25882       0
   25884   25885   25885       0   25887   25888   25888       0   25890   25891
   25891       0   25893   25894   25894       0   25896   25897   25897       0
   25899   25900   25900       0   25902   25903   25903       0   25905   25906
   25906       0   25908   25909   25909       0   25911   25912   25912       0
   25914   25915   25915       0   25917   25918   25918       0   25920   25921
   25921       0   25923   25924   25924       0   25926   25927   25927       0
   25929   25930   25930       0   25932   25933   25933       0   25935   25936
   25936       0   25938   25939   25939       0   25941   25942   25942       0
   25944   25945   25945       0   25947   25948   25948       0   25950   25951
   25951       0   25953   25954   25954       0   25956   25957   25957       0
   25959   25960   25960       0   25962   25963   25963       0   25965   25966
   25966       0   25968   25969   25969       0   25971   25972   25972       0
   25974   25975   25975       0   25977   25978   25978       0   25980   25981
   25981       0   25983   25984   25984       0   25986   25987   25987       0
   25989   25990   25990       0   25992   25993   25993       0   25995   25996
   25996       0   25998   25999   25999       0   26001   26002   26002       0
   26004   26005   26005       0   26007   26008   26008       0   26010   26011
   26011       0   26013   26014   26014       0   26016   26017   26017       0
   26019   26020   26020       0   26022   26023   26023       0   26025   26026
   26026       0   26028   26029   26029       0   26031   26032   26032       0
   26034   26035   26035       0   26037   26038   26038       0   26040   26041
   26041       0   26043   26044   26044       0   26046   26047   26047       0
   26049   26050   26050       0   26052   26053   26053       0   26055   26056
   26056       0   26058   26059   26059       0   26061   26062   26062       0
   26064   26065   26065       0   26067   26068   26068       0   26070   26071
   26071       0   26073   26074   26074       0   26076   26077   26077       0
   26079   26080   26080       0   26082   26083   26083       0   26085   26086
   26086       0   26088   26089   26089       0   26091   26092   26092       0
   26094   26095   26095       0   26097   26098   26098       0   26100   26101
   26101       0   26103   26104   26104       0   26106   26107   26107       0
   26109   26110   26110       0   26112   26113   26113       0   26115   26116
   26116       0   26118   26119   26119       0   26121   26122   26122       0
   26124   26125   26125       0   26127   26128   26128       0   26130   26131
   26131       0   26133   26134   26134       0   26136   26137   26137       0
   26139   26140   26140       0   26142   26143   26143       0   26145   26146
   26146       0   26148   26149   26149       0   26151   26152   26152       0
   26154   26155   26155       0   26157   26158   26158       0   26160   26161
   26161       0   26163   26164   26164       0   26166   26167   26167       0
   26169   26170   26170       0   26172   26173   26173       0   26175   26176
   26176       0   26178   26179   26179       0   26181   26182   26182       0
   26184   26185   26185       0   26187   26188   26188       0   26190   26191
   26191       0   26193   26194   26194       0   26196   26197   26197       0
   26199   26200   26200       0   26202   26203   26203       0   26205   26206
   26206       0   26208   26209   26209       0   26211   26212   26212       0
   26214   26215   26215       0   26217   26218   26218       0   26220   26221
   26221       0   26223   26224   26224       0   26226   26227   26227       0
   26229   26230   26230       0   26232   26233   26233       0   26235   26236
   26236       0   26238   26239   26239       0   26241   26242   26242       0
   26244   26245   26245       0   26247   26248   26248       0   26250   26251
   26251       0   26253   26254   26254       0   26256   26257   26257       0
   26259   26260   26260       0   26262   26263   26263       0   26265   26266
   26266       0   26268   26269   26269       0   26271   26272   26272       0
   26274   26275   26275       0   26277   26278   26278       0   26280   26281
   26281       0   26283   26284   26284       0   26286   26287   26287       0
   26289   26290   26290       0   26292   26293   26293       0   26295   26296
   26296       0   26298   26299   26299       0   26301   26302   26302       0
   26304   26305   26305       0   26307   26308   26308       0   26310   26311
   26311       0   26313   26314   26314       0   26316   26317   26317       0
   26319   26320   26320       0   26322   26323   26323       0   26325   26326
   26326       0   26328   26329   26329       0   26331   26332   26332       0
   26334   26335   26335       0   26337   26338   26338       0   26340   26341
   26341       0   26343   26344   26344       0   26346   26347   26347       0
   26349   26350   26350       0   26352   26353   26353       0   26355   26356
   26356       0   26358   26359   26359       0   26361   26362   26362       0
   26364   26365   26365       0   26367   26368   26368       0   26370   26371
   26371       0   26373   26374   26374       0   26376   26377   26377       0
   26379   26380   26380       0   26382   26383   26383       0   26385   26386
   26386       0   26388   26389   26389       0   26391   26392   26392       0
   26394   26395   26395       0   26397   26398   26398       0   26400   26401
   26401       0   26403   26404   26404       0   26406   26407   26407       0
   26409   26410   26410       0   26412   26413   26413       0   26415   26416
   26416       0   26418   26419   26419       0   26421   26422   26422       0
   26424   26425   26425       0   26427   26428   26428       0   26430   26431
   26431       0   26433   26434   26434       0   26436   26437   26437       0
   26439   26440   26440       0   26442   26443   26443       0   26445   26446
   26446       0   26448   26449   26449       0   26451   26452   26452       0
   26454   26455   26455       0   26457   26458   26458       0   26460   26461
   26461       0   26463   26464   26464       0   26466   26467   26467       0
   26469   26470   26470       0   26472   26473   26473       0   26475   26476
   26476       0   26478   26479   26479       0   26481   26482   26482       0
   26484   26485   26485       0   26487   26488   26488       0   26490   26491
   26491       0   26493   26494   26494       0   26496   26497   26497       0
   26499   26500   26500       0   26502   26503   26503       0   26505   26506
   26506       0   26508   26509   26509       0   26511   26512   26512       0
   26514   26515   26515       0   26517   26518   26518       0   26520   26521
   26521       0   26523   26524   26524       0   26526   26527   26527       0
   26529   26530   26530       0   26532   26533   26533       0   26535   26536
   26536       0   26538   26539   26539       0   26541   26542   26542       0
   26544   26545   26545       0   26547   26548   26548       0   26550   26551
   26551       0   26553   26554   26554       0   26556   26557   26557       0
   26559   26560   26560       0   26562   26563   26563       0   26565   26566
   26566       0   26568   26569   26569       0   26571   26572   26572       0
   26574   26575   26575       0   26577   26578   26578       0   26580   26581
   26581       0   26583   26584   26584       0   26586   26587   26587       0
   26589   26590   26590       0   26592   26593   26593       0   26595   26596
   26596       0   26598   26599   26599       0   26601   26602   26602       0
   26604   26605   26605       0   26607   26608   26608       0   26610   26611
   26611       0   26613   26614   26614       0   26616   26617   26617       0
   26619   26620   26620       0   26622   26623   26623       0   26625   26626
   26626       0   26628   26629   26629       0   26631   26632   26632       0
   26634   26635   26635       0   26637   26638   26638       0   26640   26641
   26641       0   26643   26644   26644       0   26646   26647   26647       0
   26649   26650   26650       0   26652   26653   26653       0   26655   26656
   26656       0   26658   26659   26659       0   26661   26662   26662       0
   26664   26665   26665       0   26667   26668   26668       0   26670   26671
   26671       0   26673   26674   26674       0   26676   26677   26677       0
   26679   26680   26680       0   26682   26683   26683       0   26685   26686
   26686       0   26688   26689   26689       0   26691   26692   26692       0
   26694   26695   26695       0   26697   26698   26698       0   26700   26701
   26701       0   26703   26704   26704       0   26706   26707   26707       0
   26709   26710   26710       0   26712   26713   26713       0   26715   26716
   26716       0   26718   26719   26719       0   26721   26722   26722       0
   26724   26725   26725       0   26727   26728   26728       0   26730   26731
   26731       0   26733   26734   26734       0   26736   26737   26737       0
   26739   26740   26740       0   26742   26743   26743       0   26745   26746
   26746       0   26748   26749   26749       0   26751   26752   26752       0
   26754   26755   26755       0   26757   26758   26758       0   26760   26761
   26761       0   26763   26764   26764       0   26766   26767   26767       0
   26769   26770   26770       0   26772   26773   26773       0   26775   26776
   26776       0   26778   26779   26779       0   26781   26782   26782       0
   26784   26785   26785       0   26787   26788   26788       0   26790   26791
   26791       0   26793   26794   26794       0   26796   26797   26797       0
   26799   26800   26800       0   26802   26803   26803       0   26805   26806
   26806       0   26808   26809   26809       0   26811   26812   26812       0
   26814   26815   26815       0   26817   26818   26818       0   26820   26821
   26821       0   26823   26824   26824       0   26826   26827   26827       0
   26829   26830   26830       0   26832   26833   26833       0   26835   26836
   26836       0   26838   26839   26839       0   26841   26842   26842       0
   26844   26845   26845       0   26847   26848   26848       0   26850   26851
   26851       0   26853   26854   26854       0   26856   26857   26857       0
   26859   26860   26860       0   26862   26863   26863       0   26865   26866
   26866       0   26868   26869   26869       0   26871   26872   26872       0
   26874   26875   26875       0   26877   26878   26878       0   26880   26881
   26881       0   26883   26884   26884       0   26886   26887   26887       0
   26889   26890   26890       0   26892   26893   26893       0   26895   26896
   26896       0   26898   26899   26899       0   26901   26902   26902       0
   26904   26905   26905       0   26907   26908   26908       0   26910   26911
   26911       0   26913   26914   26914       0   26916   26917   26917       0
   26919   26920   26920       0   26922   26923   26923       0   26925   26926
   26926       0   26928   26929   26929       0   26931   26932   26932       0
   26934   26935   26935       0   26937   26938   26938       0   26940   26941
   26941       0   26943   26944   26944       0   26946   26947   26947       0
   26949   26950   26950       0   26952   26953   26953       0   26955   26956
   26956       0   26958   26959   26959       0   26961   26962   26962       0
   26964   26965   26965       0   26967   26968   26968       0   26970   26971
   26971       0   26973   26974   26974       0   26976   26977   26977       0
   26979   26980   26980       0   26982   26983   26983       0   26985   26986
   26986       0   26988   26989   26989       0   26991   26992   26992       0
   26994   26995   26995       0   26997   26998   26998       0   27000   27001
   27001       0   27003   27004   27004       0   27006   27007   27007       0
   27009   27010   27010       0   27012   27013   27013       0   27015   27016
   27016       0   27018   27019   27019       0   27021   27022   27022       0
   27024   27025   27025       0   27027   27028   27028       0   27030   27031
   27031       0   27033   27034   27034       0   27036   27037   27037       0
   27039   27040   27040       0   27042   27043   27043       0   27045   27046
   27046       0   27048   27049   27049       0   27051   27052   27052       0
   27054   27055   27055       0   27057   27058   27058       0   27060   27061
   27061       0   27063   27064   27064       0   27066   27067   27067       0
   27069   27070   27070       0   27072   27073   27073       0   27075   27076
   27076       0   27078   27079   27079       0   27081   27082   27082       0
   27084   27085   27085       0   27087   27088   27088       0   27090   27091
   27091       0   27093   27094   27094       0   27096   27097   27097       0
   27099   27100   27100       0   27102   27103   27103       0   27105   27106
   27106       0   27108   27109   27109       0   27111   27112   27112       0
   27114   27115   27115       0   27117   27118   27118       0   27120   27121
   27121       0   27123   27124   27124       0   27126   27127   27127       0
   27129   27130   27130       0   27132   27133   27133       0   27135   27136
   27136       0   27138   27139   27139       0   27141   27142   27142       0
   27144   27145   27145       0   27147   27148   27148       0   27150   27151
   27151       0   27153   27154   27154       0   27156   27157   27157       0
   27159   27160   27160       0   27162   27163   27163       0   27165   27166
   27166       0   27168   27169   27169       0   27171   27172   27172       0
   27174   27175   27175       0   27177   27178   27178       0   27180   27181
   27181       0   27183   27184   27184       0   27186   27187   27187       0
   27189   27190   27190       0   27192   27193   27193       0   27195   27196
   27196       0   27198   27199   27199       0   27201   27202   27202       0
   27204   27205   27205       0   27207   27208   27208       0   27210   27211
   27211       0   27213   27214   27214       0   27216   27217   27217       0
   27219   27220   27220       0   27222   27223   27223       0   27225   27226
   27226       0   27228   27229   27229       0   27231   27232   27232       0
   27234   27235   27235       0   27237   27238   27238       0   27240   27241
   27241       0   27243   27244   27244       0   27246   27247   27247       0
   27249   27250   27250       0   27252   27253   27253       0   27255   27256
   27256       0   27258   27259   27259       0   27261   27262   27262       0
   27264   27265   27265       0   27267   27268   27268       0   27270   27271
   27271       0   27273   27274   27274       0   27276   27277   27277       0
   27279   27280   27280       0   27282   27283   27283       0   27285   27286
   27286       0   27288   27289   27289       0   27291   27292   27292       0
   27294   27295   27295       0   27297   27298   27298       0   27300   27301
   27301       0   27303   27304   27304       0   27306   27307   27307       0
   27309   27310   27310       0   27312   27313   27313       0   27315   27316
   27316       0   27318   27319   27319       0   27321   27322   27322       0
   27324   27325   27325       0   27327   27328   27328       0   27330   27331
   27331       0   27333   27334   27334       0   27336   27337   27337       0
   27339   27340   27340       0   27342   27343   27343       0   27345   27346
   27346       0   27348   27349   27349       0   27351   27352   27352       0
   27354   27355   27355       0   27357   27358   27358       0   27360   27361
   27361       0   27363   27364   27364       0   27366   27367   27367       0
   27369   27370   27370       0   27372   27373   27373       0   27375   27376
   27376       0   27378   27379   27379       0   27381   27382   27382       0
   27384   27385   27385       0   27387   27388   27388       0   27390   27391
   27391       0   27393   27394   27394       0   27396   27397   27397       0
   27399   27400   27400       0   27402   27403   27403       0   27405   27406
   27406       0   27408   27409   27409       0   27411   27412   27412       0
   27414   27415   27415       0   27417   27418   27418       0   27420   27421
   27421       0   27423   27424   27424       0   27426   27427   27427       0
   27429   27430   27430       0   27432   27433   27433       0   27435   27436
   27436       0   27438   27439   27439       0   27441   27442   27442       0
   27444   27445   27445       0   27447   27448   27448       0   27450   27451
   27451       0   27453   27454   27454       0   27456   27457   27457       0
   27459   27460   27460       0   27462   27463   27463       0   27465   27466
   27466       0   27468   27469   27469       0   27471   27472   27472       0
   27474   27475   27475       0   27477   27478   27478       0   27480   27481
   27481       0   27483   27484   27484       0   27486   27487   27487       0
   27489   27490   27490       0   27492   27493   27493       0   27495   27496
   27496       0   27498   27499   27499       0   27501   27502   27502       0
   27504   27505   27505       0   27507   27508   27508       0   27510   27511
   27511       0   27513   27514   27514       0   27516   27517   27517       0
   27519   27520   27520       0   27522   27523   27523       0   27525   27526
   27526       0   27528   27529   27529       0   27531   27532   27532       0
   27534   27535   27535       0   27537   27538   27538       0   27540   27541
   27541       0   27543   27544   27544       0   27546   27547   27547       0
   27549   27550   27550       0   27552   27553   27553       0   27555   27556
   27556       0   27558   27559   27559       0   27561   27562   27562       0
   27564   27565   27565       0   27567   27568   27568       0   27570   27571
   27571       0   27573   27574   27574       0   27576   27577   27577       0
   27579   27580   27580       0   27582   27583   27583       0   27585   27586
   27586       0   27588   27589   27589       0   27591   27592   27592       0
   27594   27595   27595       0   27597   27598   27598       0   27600   27601
   27601       0   27603   27604   27604       0   27606   27607   27607       0
   27609   27610   27610       0   27612   27613   27613       0   27615   27616
   27616       0   27618   27619   27619       0   27621   27622   27622       0
   27624   27625   27625       0   27627   27628   27628       0   27630   27631
   27631       0   27633   27634   27634       0   27636   27637   27637       0
   27639   27640   27640       0   27642   27643   27643       0   27645   27646
   27646       0   27648   27649   27649       0   27651   27652   27652       0
   27654   27655   27655       0   27657   27658   27658       0   27660   27661
   27661       0   27663   27664   27664       0   27666   27667   27667       0
   27669   27670   27670       0   27672   27673   27673       0   27675   27676
   27676       0   27678   27679   27679       0   27681   27682   27682       0
   27684   27685   27685       0   27687   27688   27688       0   27690   27691
   27691       0   27693   27694   27694       0   27696   27697   27697       0
   27699   27700   27700       0   27702   27703   27703       0   27705   27706
   27706       0   27708   27709   27709       0   27711   27712   27712       0
   27714   27715   27715       0   27717   27718   27718       0   27720   27721
   27721       0   27723   27724   27724       0   27726   27727   27727       0
   27729   27730   27730       0   27732   27733   27733       0   27735   27736
   27736       0   27738   27739   27739       0   27741   27742   27742       0
   27744   27745   27745       0   27747   27748   27748       0   27750   27751
   27751       0   27753   27754   27754       0   27756   27757   27757       0
   27759   27760   27760       0   27762   27763   27763       0   27765   27766
   27766       0   27768   27769   27769       0   27771   27772   27772       0
   27774   27775   27775       0   27777   27778   27778       0   27780   27781
   27781       0   27783   27784   27784       0   27786   27787   27787       0
   27789   27790   27790       0   27792   27793   27793       0   27795   27796
   27796       0   27798   27799   27799       0   27801   27802   27802       0
   27804   27805   27805       0   27807   27808   27808       0   27810   27811
   27811       0   27813   27814   27814       0   27816   27817   27817       0
   27819   27820   27820       0   27822   27823   27823       0   27825   27826
   27826       0   27828   27829   27829       0   27831   27832   27832       0
   27834   27835   27835       0   27837   27838   27838       0   27840   27841
   27841       0   27843   27844   27844       0   27846   27847   27847       0
   27849   27850   27850       0   27852   27853   27853       0   27855   27856
   27856       0   27858   27859   27859       0   27861   27862   27862       0
   27864   27865   27865       0   27867   27868   27868       0   27870   27871
   27871       0   27873   27874   27874       0   27876   27877   27877       0
   27879   27880   27880       0   27882   27883   27883       0   27885   27886
   27886       0   27888   27889   27889       0   27891   27892   27892       0
   27894   27895   27895       0   27897   27898   27898       0   27900   27901
   27901       0   27903   27904   27904       0   27906   27907   27907       0
   27909   27910   27910       0   27912   27913   27913       0   27915   27916
   27916       0   27918   27919   27919       0   27921   27922   27922       0
   27924   27925   27925       0   27927   27928   27928       0   27930   27931
   27931       0   27933   27934   27934       0   27936   27937   27937       0
   27939   27940   27940       0   27942   27943   27943       0   27945   27946
   27946       0   27948   27949   27949       0   27951   27952   27952       0
   27954   27955   27955       0   27957   27958   27958       0   27960   27961
   27961       0   27963   27964   27964       0   27966   27967   27967       0
   27969   27970   27970       0   27972   27973   27973       0   27975   27976
   27976       0   27978   27979   27979       0   27981   27982   27982       0
   27984   27985   27985       0   27987   27988   27988       0   27990   27991
   27991       0   27993   27994   27994       0   27996   27997   27997       0
   27999   28000   28000       0   28002   28003   28003       0   28005   28006
   28006       0   28008   28009   28009       0   28011   28012   28012       0
   28014   28015   28015       0   28017   28018   28018       0   28020   28021
   28021       0   28023   28024   28024       0   28026   28027   28027       0
   28029   28030   28030       0   28032   28033   28033       0   28035   28036
   28036       0   28038   28039   28039       0   28041   28042   28042       0
   28044   28045   28045       0   28047   28048   28048       0   28050   28051
   28051       0   28053   28054   28054       0   28056   28057   28057       0
   28059   28060   28060       0   28062   28063   28063       0   28065   28066
   28066       0   28068   28069   28069       0   28071   28072   28072       0
   28074   28075   28075       0   28077   28078   28078       0   28080   28081
   28081       0   28083   28084   28084       0   28086   28087   28087       0
   28089   28090   28090       0   28092   28093   28093       0   28095   28096
   28096       0   28098   28099   28099       0   28101   28102   28102       0
   28104   28105   28105       0   28107   28108   28108       0   28110   28111
   28111       0   28113   28114   28114       0   28116   28117   28117       0
   28119   28120   28120       0   28122   28123   28123       0   28125   28126
   28126       0   28128   28129   28129       0   28131   28132   28132       0
   28134   28135   28135       0   28137   28138   28138       0   28140   28141
   28141       0   28143   28144   28144       0   28146   28147   28147       0
   28149   28150   28150       0   28152   28153   28153       0   28155   28156
   28156       0   28158   28159   28159       0   28161   28162   28162       0
   28164   28165   28165       0   28167   28168   28168       0   28170   28171
   28171       0   28173   28174   28174       0   28176   28177   28177       0
   28179   28180   28180       0   28182   28183   28183       0   28185   28186
   28186       0   28188   28189   28189       0   28191   28192   28192       0
   28194   28195   28195       0   28197   28198   28198       0   28200   28201
   28201       0   28203   28204   28204       0   28206   28207   28207       0
   28209   28210   28210       0   28212   28213   28213       0   28215   28216
   28216       0   28218   28219   28219       0   28221   28222   28222       0
   28224   28225   28225       0   28227   28228   28228       0   28230   28231
   28231       0   28233   28234   28234       0   28236   28237   28237       0
   28239   28240   28240       0   28242   28243   28243       0   28245   28246
   28246       0   28248   28249   28249       0   28251   28252   28252       0
   28254   28255   28255       0   28257   28258   28258       0   28260   28261
   28261       0   28263   28264   28264       0   28266   28267   28267       0
   28269   28270   28270       0   28272   28273   28273       0   28275   28276
   28276       0   28278   28279   28279       0   28281   28282   28282       0
   28284   28285   28285       0   28287   28288   28288       0   28290   28291
   28291       0   28293   28294   28294       0   28296   28297   28297       0
   28299   28300   28300       0   28302   28303   28303       0   28305   28306
   28306       0   28308   28309   28309       0   28311   28312   28312       0
   28314   28315   28315       0   28317   28318   28318       0   28320   28321
   28321       0   28323   28324   28324       0   28326   28327   28327       0
   28329   28330   28330       0   28332   28333   28333       0   28335   28336
   28336       0   28338   28339   28339       0   28341   28342   28342       0
   28344   28345   28345       0   28347   28348   28348       0   28350   28351
   28351       0   28353   28354   28354       0   28356   28357   28357       0
   28359   28360   28360       0   28362   28363   28363       0   28365   28366
   28366       0   28368   28369   28369       0   28371   28372   28372       0
   28374   28375   28375       0   28377   28378   28378       0   28380   28381
   28381       0   28383   28384   28384       0   28386   28387   28387       0
   28389   28390   28390       0   28392   28393   28393       0   28395   28396
   28396       0   28398   28399   28399       0   28401   28402   28402       0
   28404   28405   28405       0   28407   28408   28408       0   28410   28411
   28411       0   28413   28414   28414       0   28416   28417   28417       0
   28419   28420   28420       0   28422   28423   28423       0   28425   28426
   28426       0   28428   28429   28429       0   28431   28432   28432       0
   28434   28435   28435       0   28437   28438   28438       0   28440   28441
   28441       0   28443   28444   28444       0   28446   28447   28447       0
   28449   28450   28450       0   28452   28453   28453       0   28455   28456
   28456       0   28458   28459   28459       0   28461   28462   28462       0
   28464   28465   28465       0   28467   28468   28468       0   28470   28471
   28471       0   28473   28474   28474       0   28476   28477   28477       0
   28479   28480   28480       0   28482   28483   28483       0   28485   28486
   28486       0   28488   28489   28489       0   28491   28492   28492       0
   28494   28495   28495       0   28497   28498   28498       0   28500   28501
   28501       0   28503   28504   28504       0   28506   28507   28507       0
   28509   28510   28510       0   28512   28513   28513       0   28515   28516
   28516       0   28518   28519   28519       0   28521   28522   28522       0
   28524   28525   28525       0   28527   28528   28528       0   28530   28531
   28531       0   28533   28534   28534       0   28536   28537   28537       0
   28539   28540   28540       0   28542   28543   28543       0   28545   28546
   28546       0   28548   28549   28549       0   28551   28552   28552       0
   28554   28555   28555       0   28557   28558   28558       0   28560   28561
   28561       0   28563   28564   28564       0   28566   28567   28567       0
   28569   28570   28570       0   28572   28573   28573       0   28575   28576
   28576       0   28578   28579   28579       0   28581   28582   28582       0
   28584   28585   28585       0   28587   28588   28588       0   28590   28591
   28591       0   28593   28594   28594       0   28596   28597   28597       0
   28599   28600   28600       0   28602   28603   28603       0   28605   28606
   28606       0   28608   28609   28609       0   28611   28612   28612       0
   28614   28615   28615       0   28617   28618   28618       0   28620   28621
   28621       0   28623   28624   28624       0   28626   28627   28627       0
   28629   28630   28630       0   28632   28633   28633       0   28635   28636
   28636       0   28638   28639   28639       0   28641   28642   28642       0
   28644   28645   28645       0   28647   28648   28648       0   28650   28651
   28651       0   28653   28654   28654       0   28656   28657   28657       0
   28659   28660   28660       0   28662   28663   28663       0   28665   28666
   28666       0   28668   28669   28669       0   28671   28672   28672       0
   28674   28675   28675       0   28677   28678   28678       0   28680   28681
   28681       0   28683   28684   28684       0   28686   28687   28687       0
   28689   28690   28690       0   28692   28693   28693       0   28695   28696
   28696       0   28698   28699   28699       0   28701   28702   28702       0
   28704   28705   28705       0   28707   28708   28708       0   28710   28711
   28711       0   28713   28714   28714       0   28716   28717   28717       0
   28719   28720   28720       0   28722   28723   28723       0   28725   28726
   28726       0   28728   28729   28729       0   28731   28732   28732       0
   28734   28735   28735       0   28737   28738   28738       0   28740   28741
   28741       0   28743   28744   28744       0   28746   28747   28747       0
   28749   28750   28750       0   28752   28753   28753       0   28755   28756
   28756       0   28758   28759   28759       0   28761   28762   28762       0
   28764   28765   28765       0   28767   28768   28768       0   28770   28771
   28771       0   28773   28774   28774       0   28776   28777   28777       0
   28779   28780   28780       0   28782   28783   28783       0   28785   28786
   28786       0   28788   28789   28789       0   28791   28792   28792       0
   28794   28795   28795       0   28797   28798   28798       0   28800   28801
   28801       0   28803   28804   28804       0   28806   28807   28807       0
   28809   28810   28810       0   28812   28813   28813       0   28815   28816
   28816       0   28818   28819   28819       0   28821   28822   28822       0
   28824   28825   28825       0   28827   28828   28828       0   28830   28831
   28831       0   28833   28834   28834       0   28836   28837   28837       0
   28839   28840   28840       0   28842   28843   28843       0   28845   28846
   28846       0   28848   28849   28849       0   28851   28852   28852       0
   28854   28855   28855       0   28857   28858   28858       0   28860   28861
   28861       0   28863   28864   28864       0   28866   28867   28867       0
   28869   28870   28870       0   28872   28873   28873       0   28875   28876
   28876       0   28878   28879   28879       0   28881   28882   28882       0
   28884   28885   28885       0   28887   28888   28888       0   28890   28891
   28891       0   28893   28894   28894       0   28896   28897   28897       0
   28899   28900   28900       0   28902   28903   28903       0   28905   28906
   28906       0   28908   28909   28909       0   28911   28912   28912       0
   28914   28915   28915       0   28917   28918   28918       0   28920   28921
   28921       0   28923   28924   28924       0   28926   28927   28927       0
   28929   28930   28930       0   28932   28933   28933       0   28935   28936
   28936       0   28938   28939   28939       0   28941   28942   28942       0
   28944   28945   28945       0   28947   28948   28948       0   28950   28951
   28951       0   28953   28954   28954       0   28956   28957   28957       0
   28959   28960   28960       0   28962   28963   28963       0   28965   28966
   28966       0   28968   28969   28969       0   28971   28972   28972       0
   28974   28975   28975       0   28977   28978   28978       0   28980   28981
   28981       0   28983   28984   28984       0   28986   28987   28987       0
   28989   28990   28990       0   28992   28993   28993       0   28995   28996
   28996       0   28998   28999   28999       0   29001   29002   29002       0
   29004   29005   29005       0   29007   29008   29008       0   29010   29011
   29011       0   29013   29014   29014       0   29016   29017   29017       0
   29019   29020   29020       0   29022   29023   29023       0   29025   29026
   29026       0   29028   29029   29029       0   29031   29032   29032       0
   29034   29035   29035       0   29037   29038   29038       0   29040   29041
   29041       0   29043   29044   29044       0   29046   29047   29047       0
   29049   29050   29050       0   29052   29053   29053       0   29055   29056
   29056       0   29058   29059   29059       0   29061   29062   29062       0
   29064   29065   29065       0   29067   29068   29068       0   29070   29071
   29071       0   29073   29074   29074       0   29076   29077   29077       0
   29079   29080   29080       0   29082   29083   29083       0   29085   29086
   29086       0   29088   29089   29089       0   29091   29092   29092       0
   29094   29095   29095       0   29097   29098   29098       0   29100   29101
   29101       0   29103   29104   29104       0   29106   29107   29107       0
   29109   29110   29110       0   29112   29113   29113       0   29115   29116
   29116       0   29118   29119   29119       0   29121   29122   29122       0
   29124   29125   29125       0   29127   29128   29128       0   29130   29131
   29131       0   29133   29134   29134       0   29136   29137   29137       0
   29139   29140   29140       0   29142   29143   29143       0   29145   29146
   29146       0   29148   29149   29149       0   29151   29152   29152       0
   29154   29155   29155       0   29157   29158   29158       0   29160   29161
   29161       0   29163   29164   29164       0   29166   29167   29167       0
   29169   29170   29170       0   29172   29173   29173       0   29175   29176
   29176       0   29178   29179   29179       0   29181   29182   29182       0
   29184   29185   29185       0   29187   29188   29188       0   29190   29191
   29191       0   29193   29194   29194       0   29196   29197   29197       0
   29199   29200   29200       0   29202   29203   29203       0   29205   29206
   29206       0   29208   29209   29209       0   29211   29212   29212       0
   29214   29215   29215       0   29217   29218   29218       0   29220   29221
   29221       0   29223   29224   29224       0   29226   29227   29227       0
   29229   29230   29230       0   29232   29233   29233       0   29235   29236
   29236       0   29238   29239   29239       0   29241   29242   29242       0
   29244   29245   29245       0   29247   29248   29248       0   29250   29251
   29251       0   29253   29254   29254       0   29256   29257   29257       0
   29259   29260   29260       0   29262   29263   29263       0   29265   29266
   29266       0   29268   29269   29269       0   29271   29272   29272       0
   29274   29275   29275       0   29277   29278   29278       0   29280   29281
   29281       0   29283   29284   29284       0   29286   29287   29287       0
   29289   29290   29290       0   29292   29293   29293       0   29295   29296
   29296       0   29298   29299   29299       0   29301   29302   29302       0
   29304   29305   29305       0   29307   29308   29308       0   29310   29311
   29311       0   29313   29314   29314       0   29316   29317   29317       0
   29319   29320   29320       0   29322   29323   29323       0   29325   29326
   29326       0   29328   29329   29329       0   29331   29332   29332       0
   29334   29335   29335       0   29337   29338   29338       0   29340   29341
   29341       0   29343   29344   29344       0   29346   29347   29347       0
   29349   29350   29350       0   29352   29353   29353       0   29355   29356
   29356       0   29358   29359   29359       0   29361   29362   29362       0
   29364   29365   29365       0   29367   29368   29368       0   29370   29371
   29371       0   29373   29374   29374       0   29376   29377   29377       0
   29379   29380   29380       0   29382   29383   29383       0   29385   29386
   29386       0   29388   29389   29389       0   29391   29392   29392       0
   29394   29395   29395       0   29397   29398   29398       0   29400   29401
   29401       0   29403   29404   29404       0   29406   29407   29407       0
   29409   29410   29410       0   29412   29413   29413       0   29415   29416
   29416       0   29418   29419   29419       0   29421   29422   29422       0
   29424   29425   29425       0   29427   29428   29428       0   29430   29431
   29431       0   29433   29434   29434       0   29436   29437   29437       0
   29439   29440   29440       0   29442   29443   29443       0   29445   29446
   29446       0   29448   29449   29449       0   29451   29452   29452       0
   29454   29455   29455       0   29457   29458   29458       0   29460   29461
   29461       0   29463   29464   29464       0   29466   29467   29467       0
   29469   29470   29470       0   29472   29473   29473       0   29475   29476
   29476       0   29478   29479   29479       0   29481   29482   29482       0
   29484   29485   29485       0   29487   29488   29488       0   29490   29491
   29491       0   29493   29494   29494       0   29496   29497   29497       0
   29499   29500   29500       0   29502   29503   29503       0   29505   29506
   29506       0   29508   29509   29509       0   29511   29512   29512       0
   29514   29515   29515       0   29517   29518   29518       0   29520   29521
   29521       0   29523   29524   29524       0   29526   29527   29527       0
   29529   29530   29530       0   29532   29533   29533       0   29535   29536
   29536       0   29538   29539   29539       0   29541   29542   29542       0
   29544   29545   29545       0   29547   29548   29548       0   29550   29551
   29551       0   29553   29554   29554       0   29556   29557   29557       0
   29559   29560   29560       0   29562   29563   29563       0   29565   29566
   29566       0   29568   29569   29569       0   29571   29572   29572       0
   29574   29575   29575       0   29577   29578   29578       0   29580   29581
   29581       0   29583   29584   29584       0   29586   29587   29587       0
   29589   29590   29590       0   29592   29593   29593       0   29595   29596
   29596       0   29598   29599   29599       0   29601   29602   29602       0
   29604   29605   29605       0   29607   29608   29608       0   29610   29611
   29611       0   29613   29614   29614       0   29616   29617   29617       0
   29619   29620   29620       0   29622   29623   29623       0   29625   29626
   29626       0   29628   29629   29629       0   29631   29632   29632       0
   29634   29635   29635       0   29637   29638   29638       0   29640   29641
   29641       0   29643   29644   29644       0   29646   29647   29647       0
   29649   29650   29650       0   29652   29653   29653       0   29655   29656
   29656       0   29658   29659   29659       0   29661   29662   29662       0
   29664   29665   29665       0   29667   29668   29668       0   29670   29671
   29671       0   29673   29674   29674       0   29676   29677   29677       0
   29679   29680   29680       0   29682   29683   29683       0   29685   29686
   29686       0   29688   29689   29689       0   29691   29692   29692       0
   29694   29695   29695       0   29697   29698   29698       0   29700   29701
   29701       0   29703   29704   29704       0   29706   29707   29707       0
   29709   29710   29710       0   29712   29713   29713       0   29715   29716
   29716       0   29718   29719   29719       0   29721   29722   29722       0
   29724   29725   29725       0   29727   29728   29728       0   29730   29731
   29731       0   29733   29734   29734       0   29736   29737   29737       0
   29739   29740   29740       0   29742   29743   29743       0   29745   29746
   29746       0   29748   29749   29749       0   29751   29752   29752       0
   29754   29755   29755       0   29757   29758   29758       0   29760   29761
   29761       0   29763   29764   29764       0   29766   29767   29767       0
   29769   29770   29770       0   29772   29773   29773       0   29775   29776
   29776       0   29778   29779   29779       0   29781   29782   29782       0
   29784   29785   29785       0   29787   29788   29788       0   29790   29791
   29791       0   29793   29794   29794       0   29796   29797   29797       0
   29799   29800   29800       0   29802   29803   29803       0   29805   29806
   29806       0   29808   29809   29809       0   29811   29812   29812       0
   29814   29815   29815       0   29817   29818   29818       0   29820   29821
   29821       0   29823   29824   29824       0   29826   29827   29827       0
   29829   29830   29830       0   29832   29833   29833       0   29835   29836
   29836       0   29838   29839   29839       0   29841   29842   29842       0
   29844   29845   29845       0   29847   29848   29848       0   29850   29851
   29851       0   29853   29854   29854       0   29856   29857   29857       0
   29859   29860   29860       0   29862   29863   29863       0   29865   29866
   29866       0   29868   29869   29869       0   29871   29872   29872       0
   29874   29875   29875       0   29877   29878   29878       0   29880   29881
   29881       0   29883   29884   29884       0   29886   29887   29887       0
   29889   29890   29890       0   29892   29893   29893       0   29895   29896
   29896       0   29898   29899   29899       0   29901   29902   29902       0
   29904   29905   29905       0   29907   29908   29908       0   29910   29911
   29911       0   29913   29914   29914       0   29916   29917   29917       0
   29919   29920   29920       0   29922   29923   29923       0   29925   29926
   29926       0   29928   29929   29929       0   29931   29932   29932       0
   29934   29935   29935       0   29937   29938   29938       0   29940   29941
   29941       0   29943   29944   29944       0   29946   29947   29947       0
   29949   29950   29950       0   29952   29953   29953       0   29955   29956
   29956       0   29958   29959   29959       0   29961   29962   29962       0
   29964   29965   29965       0   29967   29968   29968       0   29970   29971
   29971       0   29973   29974   29974       0   29976   29977   29977       0
   29979   29980   29980       0   29982   29983   29983       0   29985   29986
   29986       0   29988   29989   29989       0   29991   29992   29992       0
   29994   29995   29995       0   29997   29998   29998       0   30000   30001
   30001       0   30003   30004   30004       0   30006   30007   30007       0
   30009   30010   30010       0   30012   30013   30013       0   30015   30016
   30016       0   30018   30019   30019       0   30021   30022   30022       0
   30024   30025   30025       0   30027   30028   30028       0   30030   30031
   30031       0   30033   30034   30034       0   30036   30037   30037       0
   30039   30040   30040       0   30042   30043   30043       0   30045   30046
   30046       0   30048   30049   30049       0   30051   30052   30052       0
   30054   30055   30055       0   30057   30058   30058       0   30060   30061
   30061       0   30063   30064   30064       0   30066   30067   30067       0
   30069   30070   30070       0   30072   30073   30073       0   30075   30076
   30076       0   30078   30079   30079       0   30081   30082   30082       0
   30084   30085   30085       0   30087   30088   30088       0   30090   30091
   30091       0   30093   30094   30094       0   30096   30097   30097       0
   30099   30100   30100       0   30102   30103   30103       0   30105   30106
   30106       0   30108   30109   30109       0   30111   30112   30112       0
   30114   30115   30115       0   30117   30118   30118       0   30120   30121
   30121       0   30123   30124   30124       0   30126   30127   30127       0
   30129   30130   30130       0   30132   30133   30133       0   30135   30136
   30136       0   30138   30139   30139       0   30141   30142   30142       0
   30144   30145   30145       0   30147   30148   30148       0   30150   30151
   30151       0   30153   30154   30154       0   30156   30157   30157       0
   30159   30160   30160       0   30162   30163   30163       0   30165   30166
   30166       0   30168   30169   30169       0   30171   30172   30172       0
   30174   30175   30175       0   30177   30178   30178       0   30180   30181
   30181       0   30183   30184   30184       0   30186   30187   30187       0
   30189   30190   30190       0   30192   30193   30193       0   30195   30196
   30196       0   30198   30199   30199       0   30201   30202   30202       0
   30204   30205   30205       0   30207   30208   30208       0   30210   30211
   30211       0   30213   30214   30214       0   30216   30217   30217       0
   30219   30220   30220       0   30222   30223   30223       0   30225   30226
   30226       0   30228   30229   30229       0   30231   30232   30232       0
   30234   30235   30235       0   30237   30238   30238       0   30240   30241
   30241       0   30243   30244   30244       0   30246   30247   30247       0
   30249   30250   30250       0   30252   30253   30253       0   30255   30256
   30256       0   30258   30259   30259       0   30261   30262   30262       0
   30264   30265   30265       0   30267   30268   30268       0   30270   30271
   30271       0   30273   30274   30274       0   30276   30277   30277       0
   30279   30280   30280       0   30282   30283   30283       0   30285   30286
   30286       0   30288   30289   30289       0   30291   30292   30292       0
   30294   30295   30295       0   30297   30298   30298       0   30300   30301
   30301       0   30303   30304   30304       0   30306   30307   30307       0
   30309   30310   30310       0   30312   30313   30313       0   30315   30316
   30316       0   30318   30319   30319       0   30321   30322   30322       0
   30324   30325   30325       0   30327   30328   30328       0   30330   30331
   30331       0   30333   30334   30334       0   30336   30337   30337       0
   30339   30340   30340       0   30342   30343   30343       0   30345   30346
   30346       0   30348   30349   30349       0   30351   30352   30352       0
   30354   30355   30355       0   30357   30358   30358       0   30360   30361
   30361       0   30363   30364   30364       0   30366   30367   30367       0
   30369   30370   30370       0   30372   30373   30373       0   30375   30376
   30376       0   30378   30379   30379       0   30381   30382   30382       0
   30384   30385   30385       0   30387   30388   30388       0   30390   30391
   30391       0   30393   30394   30394       0   30396   30397   30397       0
   30399   30400   30400       0   30402   30403   30403       0   30405   30406
   30406       0   30408   30409   30409       0   30411   30412   30412       0
   30414   30415   30415       0   30417   30418   30418       0   30420   30421
   30421       0   30423   30424   30424       0   30426   30427   30427       0
   30429   30430   30430       0   30432   30433   30433       0   30435   30436
   30436       0   30438   30439   30439       0   30441   30442   30442       0
   30444   30445   30445       0   30447   30448   30448       0   30450   30451
   30451       0   30453   30454   30454       0   30456   30457   30457       0
   30459   30460   30460       0   30462   30463   30463       0   30465   30466
   30466       0   30468   30469   30469       0   30471   30472   30472       0
   30474   30475   30475       0   30477   30478   30478       0   30480   30481
   30481       0   30483   30484   30484       0   30486   30487   30487       0
   30489   30490   30490       0   30492   30493   30493       0   30495   30496
   30496       0   30498   30499   30499       0   30501   30502   30502       0
   30504   30505   30505       0   30507   30508   30508       0   30510   30511
   30511       0   30513   30514   30514       0   30516   30517   30517       0
   30519   30520   30520       0   30522   30523   30523       0   30525   30526
   30526       0   30528   30529   30529       0   30531   30532   30532       0
   30534   30535   30535       0   30537   30538   30538       0   30540   30541
   30541       0   30543   30544   30544       0   30546   30547   30547       0
   30549   30550   30550       0   30552   30553   30553       0   30555   30556
   30556       0   30558   30559   30559       0   30561   30562   30562       0
   30564   30565   30565       0   30567   30568   30568       0   30570   30571
   30571       0   30573   30574   30574       0   30576   30577   30577       0
   30579   30580   30580       0   30582   30583   30583       0   30585   30586
   30586       0   30588   30589   30589       0   30591   30592   30592       0
   30594   30595   30595       0   30597   30598   30598       0   30600   30601
   30601       0   30603   30604   30604       0   30606   30607   30607       0
   30609   30610   30610       0   30612   30613   30613       0   30615   30616
   30616       0   30618   30619   30619       0   30621   30622   30622       0
   30624   30625   30625       0   30627   30628   30628       0   30630   30631
   30631       0   30633   30634   30634       0   30636   30637   30637       0
   30639   30640   30640       0   30642   30643   30643       0   30645   30646
   30646       0   30648   30649   30649       0   30651   30652   30652       0
   30654   30655   30655       0   30657   30658   30658       0   30660   30661
   30661       0   30663   30664   30664       0   30666   30667   30667       0
   30669   30670   30670       0   30672   30673   30673       0   30675   30676
   30676       0   30678   30679   30679       0   30681   30682   30682       0
   30684   30685   30685       0   30687   30688   30688       0   30690   30691
   30691       0   30693   30694   30694       0   30696   30697   30697       0
   30699   30700   30700       0   30702   30703   30703       0   30705   30706
   30706       0   30708   30709   30709       0   30711   30712   30712       0
   30714   30715   30715       0   30717   30718   30718       0   30720   30721
   30721       0   30723   30724   30724       0   30726   30727   30727       0
   30729   30730   30730       0   30732   30733   30733       0   30735   30736
   30736       0   30738   30739   30739       0   30741   30742   30742       0
   30744   30745   30745       0   30747   30748   30748       0   30750   30751
   30751       0   30753   30754   30754       0   30756   30757   30757       0
   30759   30760   30760       0   30762   30763   30763       0   30765   30766
   30766       0   30768   30769   30769       0   30771   30772   30772       0
   30774   30775   30775       0   30777   30778   30778       0   30780   30781
   30781       0   30783   30784   30784       0   30786   30787   30787       0
   30789   30790   30790       0   30792   30793   30793       0   30795   30796
   30796       0   30798   30799   30799       0   30801   30802   30802       0
   30804   30805   30805       0   30807   30808   30808       0   30810   30811
   30811       0   30813   30814   30814       0   30816   30817   30817       0
   30819   30820   30820       0   30822   30823   30823       0   30825   30826
   30826       0   30828   30829   30829       0   30831   30832   30832       0
   30834   30835   30835       0   30837   30838   30838       0   30840   30841
   30841       0   30843   30844   30844       0   30846   30847   30847       0
   30849   30850   30850       0   30852   30853   30853       0   30855   30856
   30856       0   30858   30859   30859       0   30861   30862   30862       0
   30864   30865   30865       0   30867   30868   30868       0   30870   30871
   30871       0   30873   30874   30874       0   30876   30877   30877       0
   30879   30880   30880       0   30882   30883   30883       0   30885   30886
   30886       0   30888   30889   30889       0   30891   30892   30892       0
   30894   30895   30895       0   30897   30898   30898       0   30900   30901
   30901       0   30903   30904   30904       0   30906   30907   30907       0
   30909   30910   30910       0   30912   30913   30913       0   30915   30916
   30916       0   30918   30919   30919       0   30921   30922   30922       0
   30924   30925   30925       0   30927   30928   30928       0   30930   30931
   30931       0   30933   30934   30934       0   30936   30937   30937       0
   30939   30940   30940       0   30942   30943   30943       0   30945   30946
   30946       0   30948   30949   30949       0   30951   30952   30952       0
   30954   30955   30955       0   30957   30958   30958       0   30960   30961
   30961       0   30963   30964   30964       0   30966   30967   30967       0
   30969   30970   30970       0   30972   30973   30973       0   30975   30976
   30976       0   30978   30979   30979       0   30981   30982   30982       0
   30984   30985   30985       0   30987   30988   30988       0   30990   30991
   30991       0   30993   30994   30994       0   30996   30997   30997       0
   30999   31000   31000       0   31002   31003   31003       0   31005   31006
   31006       0   31008   31009   31009       0   31011   31012   31012       0
   31014   31015   31015       0   31017   31018   31018       0   31020   31021
   31021       0   31023   31024   31024       0   31026   31027   31027       0
   31029   31030   31030       0   31032   31033   31033       0   31035   31036
   31036       0   31038   31039   31039       0   31041   31042   31042       0
   31044   31045   31045       0   31047   31048   31048       0   31050   31051
   31051       0   31053   31054   31054       0   31056   31057   31057       0
   31059   31060   31060       0   31062   31063   31063       0   31065   31066
   31066       0   31068   31069   31069       0   31071   31072   31072       0
   31074   31075   31075       0   31077   31078   31078       0   31080   31081
   31081       0   31083   31084   31084       0   31086   31087   31087       0
   31089   31090   31090       0   31092   31093   31093       0   31095   31096
   31096       0   31098   31099   31099       0   31101   31102   31102       0
   31104   31105   31105       0   31107   31108   31108       0   31110   31111
   31111       0   31113   31114   31114       0   31116   31117   31117       0
   31119   31120   31120       0   31122   31123   31123       0   31125   31126
   31126       0   31128   31129   31129       0   31131   31132   31132       0
   31134   31135   31135       0   31137   31138   31138       0   31140   31141
   31141       0   31143   31144   31144       0   31146   31147   31147       0
   31149   31150   31150       0   31152   31153   31153       0   31155   31156
   31156       0   31158   31159   31159       0   31161   31162   31162       0
   31164   31165   31165       0   31167   31168   31168       0   31170   31171
   31171       0   31173   31174   31174       0   31176   31177   31177       0
   31179   31180   31180       0   31182   31183   31183       0   31185   31186
   31186       0   31188   31189   31189       0   31191   31192   31192       0
   31194   31195   31195       0   31197   31198   31198       0   31200   31201
   31201       0   31203   31204   31204       0   31206   31207   31207       0
   31209   31210   31210       0   31212   31213   31213       0   31215   31216
   31216       0   31218   31219   31219       0   31221   31222   31222       0
   31224   31225   31225       0   31227   31228   31228       0   31230   31231
   31231       0   31233   31234   31234       0   31236   31237   31237       0
   31239   31240   31240       0   31242   31243   31243       0   31245   31246
   31246       0   31248   31249   31249       0   31251   31252   31252       0
   31254   31255   31255       0   31257   31258   31258       0   31260   31261
   31261       0   31263   31264   31264       0   31266   31267   31267       0
   31269   31270   31270       0   31272   31273   31273       0   31275   31276
   31276       0   31278   31279   31279       0   31281   31282   31282       0
   31284   31285   31285       0   31287   31288   31288       0   31290   31291
   31291       0   31293   31294   31294       0   31296   31297   31297       0
   31299   31300   31300       0   31302   31303   31303       0   31305   31306
   31306       0   31308   31309   31309       0   31311   31312   31312       0
   31314   31315   31315       0   31317   31318   31318       0   31320   31321
   31321       0   31323   31324   31324       0   31326   31327   31327       0
   31329   31330   31330       0   31332   31333   31333       0   31335   31336
   31336       0   31338   31339   31339       0   31341   31342   31342       0
   31344   31345   31345       0   31347   31348   31348       0   31350   31351
   31351       0   31353   31354   31354       0   31356   31357   31357       0
   31359   31360   31360       0   31362   31363   31363       0   31365   31366
   31366       0   31368   31369   31369       0   31371   31372   31372       0
   31374   31375   31375       0   31377   31378   31378       0   31380   31381
   31381       0   31383   31384   31384       0   31386   31387   31387       0
   31389   31390   31390       0   31392   31393   31393       0   31395   31396
   31396       0   31398   31399   31399       0   31401   31402   31402       0
   31404   31405   31405       0   31407   31408   31408       0   31410   31411
   31411       0   31413   31414   31414       0   31416   31417   31417       0
   31419   31420   31420       0   31422   31423   31423       0   31425   31426
   31426       0   31428   31429   31429       0   31431   31432   31432       0
   31434   31435   31435       0   31437   31438   31438       0   31440   31441
   31441       0   31443   31444   31444       0   31446   31447   31447       0
   31449   31450   31450       0   31452   31453   31453       0   31455   31456
   31456       0   31458   31459   31459       0   31461   31462   31462       0
   31464   31465   31465       0   31467   31468   31468       0   31470   31471
   31471       0   31473   31474   31474       0   31476   31477   31477       0
   31479   31480   31480       0   31482   31483   31483       0   31485   31486
   31486       0   31488   31489   31489       0   31491   31492   31492       0
   31494   31495   31495       0   31497   31498   31498       0   31500   31501
   31501       0   31503   31504   31504       0   31506   31507   31507       0
   31509   31510   31510       0   31512   31513   31513       0   31515   31516
   31516       0   31518   31519   31519       0   31521   31522   31522       0
   31524   31525   31525       0   31527   31528   31528       0   31530   31531
   31531       0   31533   31534   31534       0   31536   31537   31537       0
   31539   31540   31540       0   31542   31543   31543       0   31545   31546
   31546       0   31548   31549   31549       0   31551   31552   31552       0
   31554   31555   31555       0   31557   31558   31558       0   31560   31561
   31561       0   31563   31564   31564       0   31566   31567   31567       0
   31569   31570   31570       0   31572   31573   31573       0   31575   31576
   31576       0   31578   31579   31579       0   31581   31582   31582       0
   31584   31585   31585       0   31587   31588   31588       0   31590   31591
   31591       0   31593   31594   31594       0   31596   31597   31597       0
   31599   31600   31600       0   31602   31603   31603       0   31605   31606
   31606       0   31608   31609   31609       0   31611   31612   31612       0
   31614   31615   31615       0   31617   31618   31618       0   31620   31621
   31621       0   31623   31624   31624       0   31626   31627   31627       0
   31629   31630   31630       0   31632   31633   31633       0   31635   31636
   31636       0   31638   31639   31639       0   31641   31642   31642       0
   31644   31645   31645       0   31647   31648   31648       0   31650   31651
   31651       0   31653   31654   31654       0   31656   31657   31657       0
   31659   31660   31660       0   31662   31663   31663       0   31665   31666
   31666       0   31668   31669   31669       0   31671   31672   31672       0
   31674   31675   31675       0   31677   31678   31678       0   31680   31681
   31681       0   31683   31684   31684       0   31686   31687   31687       0
   31689   31690   31690       0   31692   31693   31693       0   31695   31696
   31696       0   31698   31699   31699       0   31701   31702   31702       0
   31704   31705   31705       0   31707   31708   31708       0   31710   31711
   31711       0   31713   31714   31714       0   31716   31717   31717       0
   31719   31720   31720       0   31722   31723   31723       0   31725   31726
   31726       0   31728   31729   31729       0   31731   31732   31732       0
   31734   31735   31735       0   31737   31738   31738       0   31740   31741
   31741       0   31743   31744   31744       0   31746   31747   31747       0
   31749   31750   31750       0   31752   31753   31753       0   31755   31756
   31756       0   31758   31759   31759       0   31761   31762   31762       0
   31764   31765   31765       0   31767   31768   31768       0   31770   31771
   31771       0   31773   31774   31774       0   31776   31777   31777       0
   31779   31780   31780       0   31782   31783   31783       0   31785   31786
   31786       0   31788   31789   31789       0   31791   31792   31792       0
   31794   31795   31795       0   31797   31798   31798       0   31800   31801
   31801       0   31803   31804   31804       0   31806   31807   31807       0
   31809   31810   31810       0   31812   31813   31813       0   31815   31816
   31816       0   31818   31819   31819       0   31821   31822   31822       0
   31824   31825   31825       0   31827   31828   31828       0   31830   31831
   31831       0   31833   31834   31834       0   31836   31837   31837       0
   31839   31840   31840       0   31842   31843   31843       0   31845   31846
   31846       0   31848   31849   31849       0   31851   31852   31852       0
   31854   31855   31855       0   31857   31858   31858       0   31860   31861
   31861       0   31863   31864   31864       0   31866   31867   31867       0
   31869   31870   31870       0   31872   31873   31873       0   31875   31876
   31876       0   31878   31879   31879       0   31881   31882   31882       0
   31884   31885   31885       0   31887   31888   31888       0   31890   31891
   31891       0   31893   31894   31894       0   31896   31897   31897       0
   31899   31900   31900       0   31902   31903   31903       0   31905   31906
   31906       0   31908   31909   31909       0   31911   31912   31912       0
   31914   31915   31915       0   31917   31918   31918       0   31920   31921
   31921       0   31923   31924   31924       0   31926   31927   31927       0
   31929   31930   31930       0   31932   31933   31933       0   31935   31936
   31936       0   31938   31939   31939       0   31941   31942   31942       0
   31944   31945   31945       0   31947   31948   31948       0   31950   31951
   31951       0   31953   31954   31954       0   31956   31957   31957       0
   31959   31960   31960       0   31962   31963   31963       0   31965   31966
   31966       0   31968   31969   31969       0   31971   31972   31972       0
   31974   31975   31975       0   31977   31978   31978       0   31980   31981
   31981       0   31983   31984   31984       0   31986   31987   31987       0
   31989   31990   31990       0   31992   31993   31993       0   31995   31996
   31996       0   31998   31999   31999       0   32001   32002   32002       0
   32004   32005   32005       0   32007   32008   32008       0   32010   32011
   32011       0   32013   32014   32014       0   32016   32017   32017       0
   32019   32020   32020       0   32022   32023   32023       0   32025   32026
   32026       0   32028   32029   32029       0   32031   32032   32032       0
   32034   32035   32035       0   32037   32038   32038       0   32040   32041
   32041       0   32043   32044   32044       0   32046   32047   32047       0
   32049   32050   32050       0   32052   32053   32053       0   32055   32056
   32056       0   32058   32059   32059       0   32061   32062   32062       0
   32064   32065   32065       0   32067   32068   32068       0   32070   32071
   32071       0   32073   32074   32074       0   32076   32077   32077       0
   32079   32080   32080       0   32082   32083   32083       0   32085   32086
   32086       0   32088   32089   32089       0   32091   32092   32092       0
   32094   32095   32095       0   32097   32098   32098       0   32100   32101
   32101       0   32103   32104   32104       0   32106   32107   32107       0
   32109   32110   32110       0   32112   32113   32113       0   32115   32116
   32116       0   32118   32119   32119       0   32121   32122   32122       0
   32124   32125   32125       0   32127   32128   32128       0   32130   32131
   32131       0   32133   32134   32134       0   32136   32137   32137       0
   32139   32140   32140       0   32142   32143   32143       0   32145   32146
   32146       0   32148   32149   32149       0   32151   32152   32152       0
   32154   32155   32155       0   32157   32158   32158       0   32160   32161
   32161       0   32163   32164   32164       0   32166   32167   32167       0
   32169   32170   32170       0   32172   32173   32173       0   32175   32176
   32176       0   32178   32179   32179       0   32181   32182   32182       0
   32184   32185   32185       0   32187   32188   32188       0   32190   32191
   32191       0   32193   32194   32194       0   32196   32197   32197       0
   32199   32200   32200       0   32202   32203   32203       0   32205   32206
   32206       0   32208   32209   32209       0   32211   32212   32212       0
   32214   32215   32215       0   32217   32218   32218       0   32220   32221
   32221       0   32223   32224   32224       0   32226   32227   32227       0
   32229   32230   32230       0   32232   32233   32233       0   32235   32236
   32236       0   32238   32239   32239       0   32241   32242   32242       0
   32244   32245   32245       0   32247   32248   32248       0   32250   32251
   32251       0   32253   32254   32254       0   32256   32257   32257       0
   32259   32260   32260       0   32262   32263   32263       0   32265   32266
   32266       0   32268   32269   32269       0   32271   32272   32272       0
   32274   32275   32275       0   32277   32278   32278       0   32280   32281
   32281       0   32283   32284   32284       0   32286   32287   32287       0
   32289   32290   32290       0   32292   32293   32293       0   32295   32296
   32296       0   32298   32299   32299       0   32301   32302   32302       0
   32304   32305   32305       0   32307   32308   32308       0   32310   32311
   32311       0   32313   32314   32314       0   32316   32317   32317       0
   32319   32320   32320       0   32322   32323   32323       0   32325   32326
   32326       0   32328   32329   32329       0   32331   32332   32332       0
   32334   32335   32335       0   32337   32338   32338       0   32340   32341
   32341       0   32343   32344   32344       0   32346   32347   32347       0
   32349   32350   32350       0   32352   32353   32353       0   32355   32356
   32356       0   32358   32359   32359       0   32361   32362   32362       0
   32364   32365   32365       0   32367   32368   32368       0   32370   32371
   32371       0   32373   32374   32374       0   32376   32377   32377       0
   32379   32380   32380       0   32382   32383   32383       0   32385   32386
   32386       0   32388   32389   32389       0   32391   32392   32392       0
   32394   32395   32395       0   32397   32398   32398       0   32400   32401
   32401       0   32403   32404   32404       0   32406   32407   32407       0
   32409   32410   32410       0   32412   32413   32413       0   32415   32416
   32416       0   32418   32419   32419       0   32421   32422   32422       0
   32424   32425   32425       0   32427   32428   32428       0   32430   32431
   32431       0   32433   32434   32434       0   32436   32437   32437       0
   32439   32440   32440       0   32442   32443   32443       0   32445   32446
   32446       0   32448   32449   32449       0   32451   32452   32452       0
   32454   32455   32455       0   32457   32458   32458       0   32460   32461
   32461       0   32463   32464   32464       0   32466   32467   32467       0
   32469   32470   32470       0   32472   32473   32473       0   32475   32476
   32476       0   32478   32479   32479       0   32481   32482   32482       0
   32484   32485   32485       0   32487   32488   32488       0   32490   32491
   32491       0   32493   32494   32494       0   32496   32497   32497       0
   32499   32500   32500       0   32502   32503   32503       0   32505   32506
   32506       0   32508   32509   32509       0   32511   32512   32512       0
   32514   32515   32515       0   32517   32518   32518       0   32520   32521
   32521       0   32523   32524   32524       0   32526   32527   32527       0
   32529   32530   32530       0   32532   32533   32533       0   32535   32536
   32536       0   32538   32539   32539       0   32541   32542   32542       0
   32544   32545   32545       0   32547   32548   32548       0   32550   32551
   32551       0   32553   32554   32554       0   32556   32557   32557       0
   32559   32560   32560       0   32562   32563   32563       0   32565   32566
   32566       0   32568   32569   32569       0   32571   32572   32572       0
   32574   32575   32575       0   32577   32578   32578       0   32580   32581
   32581       0   32583   32584   32584       0   32586   32587   32587       0
   32589   32590   32590       0   32592   32593   32593       0   32595   32596
   32596       0   32598   32599   32599       0   32601   32602   32602       0
   32604   32605   32605       0   32607   32608   32608       0   32610   32611
   32611       0   32613   32614   32614       0   32616   32617   32617       0
   32619   32620   32620       0   32622   32623   32623       0   32625   32626
   32626       0   32628   32629   32629       0
%FLAG HBOND_ACOEF                                                               
%FORMAT(5E16.8)                                                                 

%FLAG HBOND_BCOEF                                                               
%FORMAT(5E16.8)                                                                 

%FLAG HBCUT                                                                     
%FORMAT(5E16.8)                                                                 

%FLAG AMBER_ATOM_TYPE                                                           
%FORMAT(20a4)                                                                   
ca  ca  ca  ca  ca  ca  ca  ca  ca  ca  ca  ca  ca  ca  ca  ca  ha  ha  ha  ha  
ha  ha  ha  ha  ha  ha  c2  ha  ha  o   c   c5  hc  c5  c5  c2  c5  c5  c2  hc  
n   c3  c3  c3  c3  os  c6  c6  oh  c6  c3  oh  os  c6  oh  c6  oh  c   o   hc  
ha  hc  hc  hc  ha  h1  h1  hc  hc  hc  hc  h1  h1  h1  h1  ho  h1  h1  h1  ho  
h2  ho  h1  ho  o   c   c5  hc  c5  c5  c2  c5  c5  c2  hc  n   c3  c3  c3  c3  
os  c6  c6  oh  c6  c3  oh  os  c6  oh  c6  oh  c   o   hc  ha  hc  hc  hc  ha  
h1  h1  hc  hc  hc  hc  h1  h1  h1  h1  ho  h1  h1  h1  ho  h2  ho  h1  ho  o   
c   c5  hc  c5  c5  c2  c5  c5  c2  hc  n   c3  c3  c3  c3  os  c6  c6  oh  c6  
c3  oh  os  c6  oh  c6  oh  c   o   hc  ha  hc  hc  hc  ha  h1  h1  hc  hc  hc  
hc  h1  h1  h1  h1  ho  h1  h1  h1  ho  h2  ho  h1  ho  o   c   c5  hc  c5  c5  
c2  c5  c5  c2  hc  n   c3  c3  c3  c3  os  c6  c6  oh  c6  c3  oh  os  c6  oh  
c6  oh  c   o   hc  ha  hc  hc  hc  ha  h1  h1  hc  hc  hc  hc  h1  h1  h1  h1  
ho  h1  h1  h1  ho  h2  ho  h1  ho  o   c   c5  hc  c5  c5  c2  c5  c5  c2  hc  
n   c3  c3  c3  c3  os  c6  c6  oh  c6  c3  oh  os  c6  oh  c6  oh  c   o   hc  
ha  hc  hc  hc  ha  h1  h1  hc  hc  hc  hc  h1  h1  h1  h1  ho  h1  h1  h1  ho  
h2  ho  h1  ho  o   c   c5  hc  c5  c5  c2  c5  c5  c2  hc  n   c3  c3  c3  c3  
os  c6  c6  oh  c6  c3  oh  os  c6  oh  c6  oh  c   o   hc  ha  hc  hc  hc  ha  
h1  h1  hc  hc  hc  hc  h1  h1  h1  h1  ho  h1  h1  h1  ho  h2  ho  h1  ho  o   
c   c5  hc  c5  c5  c2  c5  c5  c2  hc  n   c3  c3  c3  c3  os  c6  c6  oh  c6  
c3  oh  os  c6  oh  c6  oh  c   o   hc  ha  hc  hc  hc  ha  h1  h1  hc  hc  hc  
hc  h1  h1  h1  h1  ho  h1  h1  h1  ho  h2  ho  h1  ho  o   c   c5  hc  c5  c5  
c2  c5  c5  c2  hc  n   c3  c3  c3  c3  os  c6  c6  oh  c6  c3  oh  os  c6  oh  
c6  oh  c   o   hc  ha  hc  hc  hc  ha  h1  h1  hc  hc  hc  hc  h1  h1  h1  h1  
ho  h1  h1  h1  ho  h2  ho  h1  ho  o   c   c5  hc  c5  c5  c2  c5  c5  c2  hc  
n   c3  c3  c3  c3  os  c6  c6  oh  c6  c3  oh  os  c6  oh  c6  oh  c   o   hc  
ha  hc  hc  hc  ha  h1  h1  hc  hc  hc  hc  h1  h1  h1  h1  ho  h1  h1  h1  ho  
h2  ho  h1  ho  o   c   c5  hc  c5  c5  c2  c5  c5  c2  hc  n   c3  c3  c3  c3  
os  c6  c6  oh  c6  c3  oh  os  c6  oh  c6  oh  c   o   hc  ha  hc  hc  hc  ha  
h1  h1  hc  hc  hc  hc  h1  h1  h1  h1  ho  h1  h1  h1  ho  h2  ho  h1  ho  c2  
ha  ha  c2  ha  ha  o   c   c5  hc  c5  c5  c2  c5  c5  c2  hc  n   c3  c3  c3  
c3  os  c6  c6  oh  c6  c3  oh  os  c6  oh  c6  oh  c   o   hc  ha  hc  hc  hc  
ha  h1  h1  hc  hc  hc  hc  h1  h1  h1  h1  ho  h1  h1  h1  ho  h2  ho  h1  ho  
o   c   c5  hc  c5  c5  c2  c5  c5  c2  hc  n   c3  c3  c3  c3  os  c6  c6  oh  
c6  c3  oh  os  c6  oh  c6  oh  c   o   hc  ha  hc  hc  hc  ha  h1  h1  hc  hc  
hc  hc  h1  h1  h1  h1  ho  h1  h1  h1  ho  h2  ho  h1  ho  o   c   c5  hc  c5  
c5  c2  c5  c5  c2  hc  n   c3  c3  c3  c3  os  c6  c6  oh  c6  c3  oh  os  c6  
oh  c6  oh  c   o   hc  ha  hc  hc  hc  ha  h1  h1  hc  hc  hc  hc  h1  h1  h1  
h1  ho  h1  h1  h1  ho  h2  ho  h1  ho  o   c   c5  hc  c5  c5  c2  c5  c5  c2  
hc  n   c3  c3  c3  c3  os  c6  c6  oh  c6  c3  oh  os  c6  oh  c6  oh  c   o   
hc  ha  hc  hc  hc  ha  h1  h1  hc  hc  hc  hc  h1  h1  h1  h1  ho  h1  h1  h1  
ho  h2  ho  h1  ho  o   c   c5  hc  c5  c5  c2  c5  c5  c2  hc  n   c3  c3  c3  
c3  os  c6  c6  oh  c6  c3  oh  os  c6  oh  c6  oh  c   o   hc  ha  hc  hc  hc  
ha  h1  h1  hc  hc  hc  hc  h1  h1  h1  h1  ho  h1  h1  h1  ho  h2  ho  h1  ho  
o   c   c5  hc  c5  c5  c2  c5  c5  c2  hc  n   c3  c3  c3  c3  os  c6  c6  oh  
c6  c3  oh  os  c6  oh  c6  oh  c   o   hc  ha  hc  hc  hc  ha  h1  h1  hc  hc  
hc  hc  h1  h1  h1  h1  ho  h1  h1  h1  ho  h2  ho  h1  ho  o   c   c5  hc  c5  
c5  c2  c5  c5  c2  hc  n   c3  c3  c3  c3  os  c6  c6  oh  c6  c3  oh  os  c6  
oh  c6  oh  c   o   hc  ha  hc  hc  hc  ha  h1  h1  hc  hc  hc  hc  h1  h1  h1  
h1  ho  h1  h1  h1  ho  h2  ho  h1  ho  o   c   c5  hc  c5  c5  c2  c5  c5  c2  
hc  n   c3  c3  c3  c3  os  c6  c6  oh  c6  c3  oh  os  c6  oh  c6  oh  c   o   
hc  ha  hc  hc  hc  ha  h1  h1  hc  hc  hc  hc  h1  h1  h1  h1  ho  h1  h1  h1  
ho  h2  ho  h1  ho  o   c   c5  hc  c5  c5  c2  c5  c5  c2  hc  n   c3  c3  c3  
c3  os  c6  c6  oh  c6  c3  oh  os  c6  oh  c6  oh  c   o   hc  ha  hc  hc  hc  
ha  h1  h1  hc  hc  hc  hc  h1  h1  h1  h1  ho  h1  h1  h1  ho  h2  ho  h1  ho  
o   c   c5  hc  c5  c5  c2  c5  c5  c2  hc  n   c3  c3  c3  c3  os  c6  c6  oh  
c6  c3  oh  os  c6  oh  c6  oh  c   o   hc  ha  hc  hc  hc  ha  h1  h1  hc  hc  
hc  hc  h1  h1  h1  h1  ho  h1  h1  h1  ho  h2  ho  h1  ho  c2  ha  ha  OW  HW  
HW  OW  HW  HW  OW  HW  HW  OW  HW  HW  OW  HW  HW  OW  HW  HW  OW  HW  HW  OW  
HW  HW  OW  HW  HW  OW  HW  HW  OW  HW  HW  OW  HW  HW  OW  HW  HW  OW  HW  HW  
OW  HW  HW  OW  HW  HW  OW  HW  HW  OW  HW  HW  OW  HW  HW  OW  HW  HW  OW  HW  
HW  OW  HW  HW  OW  HW  HW  OW  HW  HW  OW  HW  HW  OW  HW  HW  OW  HW  HW  OW  
HW  HW  OW  HW  HW  OW  HW  HW  OW  HW  HW  OW  HW  HW  OW  HW  HW  OW  HW  HW  
OW  HW  HW  OW  HW  HW  OW  HW  HW  OW  HW  HW  OW  HW  HW  OW  HW  HW  OW  HW  
HW  OW  HW  HW  OW  HW  HW  OW  HW  HW  OW  HW  HW  OW  HW  HW  OW  HW  HW  OW  
HW  HW  OW  HW  HW  OW  HW  HW  OW  HW  HW  OW  HW  HW  OW  HW  HW  OW  HW  HW  
OW  HW  HW  OW  HW  HW  OW  HW  HW  OW  HW  HW  OW  HW  HW  OW  HW  HW  OW  HW  
HW  OW  HW  HW  OW  HW  HW  OW  HW  HW  OW  HW  HW  OW  HW  HW  OW  HW  HW  OW  
HW  HW  OW  HW  HW  OW  HW  HW  OW  HW  HW  OW  HW  HW  OW  HW  HW  OW  HW  HW  
OW  HW  HW  OW  HW  HW  OW  HW  HW  OW  HW  HW  OW  HW  HW  OW  HW  HW  OW  HW  
HW  OW  HW  HW  OW  HW  HW  OW  HW  HW  OW  HW  HW  OW  HW  HW  OW  HW  HW  OW  
HW  HW  OW  HW  HW  OW  HW  HW  OW  HW  HW  OW  HW  HW  OW  HW  HW  OW  HW  HW  
OW  HW  HW  OW  HW  HW  OW  HW  HW  OW  HW  HW  OW  HW  HW  OW  HW  HW  OW  HW  
HW  OW  HW  HW  OW  HW  HW  OW  HW  HW  OW  HW  HW  OW  HW  HW  OW  HW  HW  OW  
HW  HW  OW  HW  HW  OW  HW  HW  OW  HW  HW  OW  HW  HW  OW  HW  HW  OW  HW  HW  
OW  HW  HW  OW  HW  HW  OW  HW  HW  OW  HW  HW  OW  HW  HW  OW  HW  HW  OW  HW  
HW  OW  HW  HW  OW  HW  HW  OW  HW  HW  OW  HW  HW  OW  HW  HW  OW  HW  HW  OW  
HW  HW  OW  HW  HW  OW  HW  HW  OW  HW  HW  OW  HW  HW  OW  HW  HW  OW  HW  HW  
OW  HW  HW  OW  HW  HW  OW  HW  HW  OW  HW  HW  OW  HW  HW  OW  HW  HW  OW  HW  
HW  OW  HW  HW  OW  HW  HW  OW  HW  HW  OW  HW  HW  OW  HW  HW  OW  HW  HW  OW  
HW  HW  OW  HW  HW  OW  HW  HW  OW  HW  HW  OW  HW  HW  OW  HW  HW  OW  HW  HW  
OW  HW  HW  OW  HW  HW  OW  HW  HW  OW  HW  HW  OW  HW  HW  OW  HW  HW  OW  HW  
HW  OW  HW  HW  OW  HW  HW  OW  HW  HW  OW  HW  HW  OW  HW  HW  OW  HW  HW  OW  
HW  HW  OW  HW  HW  OW  HW  HW  OW  HW  HW  OW  HW  HW  OW  HW  HW  OW  HW  HW  
OW  HW  HW  OW  HW  HW  OW  HW  HW  OW  HW  HW  OW  HW  HW  OW  HW  HW  OW  HW  
HW  OW  HW  HW  OW  HW  HW  OW  HW  HW  OW  HW  HW  OW  HW  HW  OW  HW  HW  OW  
HW  HW  OW  HW  HW  OW  HW  HW  OW  HW  HW  OW  HW  HW  OW  HW  HW  OW  HW  HW  
OW  HW  HW  OW  HW  HW  OW  HW  HW  OW  HW  HW  OW  HW  HW  OW  HW  HW  OW  HW  
HW  OW  HW  HW  OW  HW  HW  OW  HW  HW  OW  HW  HW  OW  HW  HW  OW  HW  HW  OW  
HW  HW  OW  HW  HW  OW  HW  HW  OW  HW  HW  OW  HW  HW  OW  HW  HW  OW  HW  HW  
OW  HW  HW  OW  HW  HW  OW  HW  HW  OW  HW  HW  OW  HW  HW  OW  HW  HW  OW  HW  
HW  OW  HW  HW  OW  HW  HW  OW  HW  HW  OW  HW  HW  OW  HW  HW  OW  HW  HW  OW  
HW  HW  OW  HW  HW  OW  HW  HW  OW  HW  HW  OW  HW  HW  OW  HW  HW  OW  HW  HW  
OW  HW  HW  OW  HW  HW  OW  HW  HW  OW  HW  HW  OW  HW  HW  OW  HW  HW  OW  HW  
HW  OW  HW  HW  OW  HW  HW  OW  HW  HW  OW  HW  HW  OW  HW  HW  OW  HW  HW  OW  
HW  HW  OW  HW  HW  OW  HW  HW  OW  HW  HW  OW  HW  HW  OW  HW  HW  OW  HW  HW  
OW  HW  HW  OW  HW  HW  OW  HW  HW  OW  HW  HW  OW  HW  HW  OW  HW  HW  OW  HW  
HW  OW  HW  HW  OW  HW  HW  OW  HW  HW  OW  HW  HW  OW  HW  HW  OW  HW  HW  OW  
HW  HW  OW  HW  HW  OW  HW  HW  OW  HW  HW  OW  HW  HW  OW  HW  HW  OW  HW  HW  
OW  HW  HW  OW  HW  HW  OW  HW  HW  OW  HW  HW  OW  HW  HW  OW  HW  HW  OW  HW  
HW  OW  HW  HW  OW  HW  HW  OW  HW  HW  OW  HW  HW  OW  HW  HW  OW  HW  HW  OW  
HW  HW  OW  HW  HW  OW  HW  HW  OW  HW  HW  OW  HW  HW  OW  HW  HW  OW  HW  HW  
OW  HW  HW  OW  HW  HW  OW  HW  HW  OW  HW  HW  OW  HW  HW  OW  HW  HW  OW  HW  
HW  OW  HW  HW  OW  HW  HW  OW  HW  HW  OW  HW  HW  OW  HW  HW  OW  HW  HW  OW  
HW  HW  OW  HW  HW  OW  HW  HW  OW  HW  HW  OW  HW  HW  OW  HW  HW  OW  HW  HW  
OW  HW  HW  OW  HW  HW  OW  HW  HW  OW  HW  HW  OW  HW  HW  OW  HW  HW  OW  HW  
HW  OW  HW  HW  OW  HW  HW  OW  HW  HW  OW  HW  HW  OW  HW  HW  OW  HW  HW  OW  
HW  HW  OW  HW  HW  OW  HW  HW  OW  HW  HW  OW  HW  HW  OW  HW  HW  OW  HW  HW  
OW  HW  HW  OW  HW  HW  OW  HW  HW  OW  HW  HW  OW  HW  HW  OW  HW  HW  OW  HW  
HW  OW  HW  HW  OW  HW  HW  OW  HW  HW  OW  HW  HW  OW  HW  HW  OW  HW  HW  OW  
HW  HW  OW  HW  HW  OW  HW  HW  OW  HW  HW  OW  HW  HW  OW  HW  HW  OW  HW  HW  
OW  HW  HW  OW  HW  HW  OW  HW  HW  OW  HW  HW  OW  HW  HW  OW  HW  HW  OW  HW  
HW  OW  HW  HW  OW  HW  HW  OW  HW  HW  OW  HW  HW  OW  HW  HW  OW  HW  HW  OW  
HW  HW  OW  HW  HW  OW  HW  HW  OW  HW  HW  OW  HW  HW  OW  HW  HW  OW  HW  HW  
OW  HW  HW  OW  HW  HW  OW  HW  HW  OW  HW  HW  OW  HW  HW  OW  HW  HW  OW  HW  
HW  OW  HW  HW  OW  HW  HW  OW  HW  HW  OW  HW  HW  OW  HW  HW  OW  HW  HW  OW  
HW  HW  OW  HW  HW  OW  HW  HW  OW  HW  HW  OW  HW  HW  OW  HW  HW  OW  HW  HW  
OW  HW  HW  OW  HW  HW  OW  HW  HW  OW  HW  HW  OW  HW  HW  OW  HW  HW  OW  HW  
HW  OW  HW  HW  OW  HW  HW  OW  HW  HW  OW  HW  HW  OW  HW  HW  OW  HW  HW  OW  
HW  HW  OW  HW  HW  OW  HW  HW  OW  HW  HW  OW  HW  HW  OW  HW  HW  OW  HW  HW  
OW  HW  HW  OW  HW  HW  OW  HW  HW  OW  HW  HW  OW  HW  HW  OW  HW  HW  OW  HW  
HW  OW  HW  HW  OW  HW  HW  OW  HW  HW  OW  HW  HW  OW  HW  HW  OW  HW  HW  OW  
HW  HW  OW  HW  HW  OW  HW  HW  OW  HW  HW  OW  HW  HW  OW  HW  HW  OW  HW  HW  
OW  HW  HW  OW  HW  HW  OW  HW  HW  OW  HW  HW  OW  HW  HW  OW  HW  HW  OW  HW  
HW  OW  HW  HW  OW  HW  HW  OW  HW  HW  OW  HW  HW  OW  HW  HW  OW  HW  HW  OW  
HW  HW  OW  HW  HW  OW  HW  HW  OW  HW  HW  OW  HW  HW  OW  HW  HW  OW  HW  HW  
OW  HW  HW  OW  HW  HW  OW  HW  HW  OW  HW  HW  OW  HW  HW  OW  HW  HW  OW  HW  
HW  OW  HW  HW  OW  HW  HW  OW  HW  HW  OW  HW  HW  OW  HW  HW  OW  HW  HW  OW  
HW  HW  OW  HW  HW  OW  HW  HW  OW  HW  HW  OW  HW  HW  OW  HW  HW  OW  HW  HW  
OW  HW  HW  OW  HW  HW  OW  HW  HW  OW  HW  HW  OW  HW  HW  OW  HW  HW  OW  HW  
HW  OW  HW  HW  OW  HW  HW  OW  HW  HW  OW  HW  HW  OW  HW  HW  OW  HW  HW  OW  
HW  HW  OW  HW  HW  OW  HW  HW  OW  HW  HW  OW  HW  HW  OW  HW  HW  OW  HW  HW  
OW  HW  HW  OW  HW  HW  OW  HW  HW  OW  HW  HW  OW  HW  HW  OW  HW  HW  OW  HW  
HW  OW  HW  HW  OW  HW  HW  OW  HW  HW  OW  HW  HW  OW  HW  HW  OW  HW  HW  OW  
HW  HW  OW  HW  HW  OW  HW  HW  OW  HW  HW  OW  HW  HW  OW  HW  HW  OW  HW  HW  
OW  HW  HW  OW  HW  HW  OW  HW  HW  OW  HW  HW  OW  HW  HW  OW  HW  HW  OW  HW  
HW  OW  HW  HW  OW  HW  HW  OW  HW  HW  OW  HW  HW  OW  HW  HW  OW  HW  HW  OW  
HW  HW  OW  HW  HW  OW  HW  HW  OW  HW  HW  OW  HW  HW  OW  HW  HW  OW  HW  HW  
OW  HW  HW  OW  HW  HW  OW  HW  HW  OW  HW  HW  OW  HW  HW  OW  HW  HW  OW  HW  
HW  OW  HW  HW  OW  HW  HW  OW  HW  HW  OW  HW  HW  OW  HW  HW  OW  HW  HW  OW  
HW  HW  OW  HW  HW  OW  HW  HW  OW  HW  HW  OW  HW  HW  OW  HW  HW  OW  HW  HW  
OW  HW  HW  OW  HW  HW  OW  HW  HW  OW  HW  HW  OW  HW  HW  OW  HW  HW  OW  HW  
HW  OW  HW  HW  OW  HW  HW  OW  HW  HW  OW  HW  HW  OW  HW  HW  OW  HW  HW  OW  
HW  HW  OW  HW  HW  OW  HW  HW  OW  HW  HW  OW  HW  HW  OW  HW  HW  OW  HW  HW  
OW  HW  HW  OW  HW  HW  OW  HW  HW  OW  HW  HW  OW  HW  HW  OW  HW  HW  OW  HW  
HW  OW  HW  HW  OW  HW  HW  OW  HW  HW  OW  HW  HW  OW  HW  HW  OW  HW  HW  OW  
HW  HW  OW  HW  HW  OW  HW  HW  OW  HW  HW  OW  HW  HW  OW  HW  HW  OW  HW  HW  
OW  HW  HW  OW  HW  HW  OW  HW  HW  OW  HW  HW  OW  HW  HW  OW  HW  HW  OW  HW  
HW  OW  HW  HW  OW  HW  HW  OW  HW  HW  OW  HW  HW  OW  HW  HW  OW  HW  HW  OW  
HW  HW  OW  HW  HW  OW  HW  HW  OW  HW  HW  OW  HW  HW  OW  HW  HW  OW  HW  HW  
OW  HW  HW  OW  HW  HW  OW  HW  HW  OW  HW  HW  OW  HW  HW  OW  HW  HW  OW  HW  
HW  OW  HW  HW  OW  HW  HW  OW  HW  HW  OW  HW  HW  OW  HW  HW  OW  HW  HW  OW  
HW  HW  OW  HW  HW  OW  HW  HW  OW  HW  HW  OW  HW  HW  OW  HW  HW  OW  HW  HW  
OW  HW  HW  OW  HW  HW  OW  HW  HW  OW  HW  HW  OW  HW  HW  OW  HW  HW  OW  HW  
HW  OW  HW  HW  OW  HW  HW  OW  HW  HW  OW  HW  HW  OW  HW  HW  OW  HW  HW  OW  
HW  HW  OW  HW  HW  OW  HW  HW  OW  HW  HW  OW  HW  HW  OW  HW  HW  OW  HW  HW  
OW  HW  HW  OW  HW  HW  OW  HW  HW  OW  HW  HW  OW  HW  HW  OW  HW  HW  OW  HW  
HW  OW  HW  HW  OW  HW  HW  OW  HW  HW  OW  HW  HW  OW  HW  HW  OW  HW  HW  OW  
HW  HW  OW  HW  HW  OW  HW  HW  OW  HW  HW  OW  HW  HW  OW  HW  HW  OW  HW  HW  
OW  HW  HW  OW  HW  HW  OW  HW  HW  OW  HW  HW  OW  HW  HW  OW  HW  HW  OW  HW  
HW  OW  HW  HW  OW  HW  HW  OW  HW  HW  OW  HW  HW  OW  HW  HW  OW  HW  HW  OW  
HW  HW  OW  HW  HW  OW  HW  HW  OW  HW  HW  OW  HW  HW  OW  HW  HW  OW  HW  HW  
OW  HW  HW  OW  HW  HW  OW  HW  HW  OW  HW  HW  OW  HW  HW  OW  HW  HW  OW  HW  
HW  OW  HW  HW  OW  HW  HW  OW  HW  HW  OW  HW  HW  OW  HW  HW  OW  HW  HW  OW  
HW  HW  OW  HW  HW  OW  HW  HW  OW  HW  HW  OW  HW  HW  OW  HW  HW  OW  HW  HW  
OW  HW  HW  OW  HW  HW  OW  HW  HW  OW  HW  HW  OW  HW  HW  OW  HW  HW  OW  HW  
HW  OW  HW  HW  OW  HW  HW  OW  HW  HW  OW  HW  HW  OW  HW  HW  OW  HW  HW  OW  
HW  HW  OW  HW  HW  OW  HW  HW  OW  HW  HW  OW  HW  HW  OW  HW  HW  OW  HW  HW  
OW  HW  HW  OW  HW  HW  OW  HW  HW  OW  HW  HW  OW  HW  HW  OW  HW  HW  OW  HW  
HW  OW  HW  HW  OW  HW  HW  OW  HW  HW  OW  HW  HW  OW  HW  HW  OW  HW  HW  OW  
HW  HW  OW  HW  HW  OW  HW  HW  OW  HW  HW  OW  HW  HW  OW  HW  HW  OW  HW  HW  
OW  HW  HW  OW  HW  HW  OW  HW  HW  OW  HW  HW  OW  HW  HW  OW  HW  HW  OW  HW  
HW  OW  HW  HW  OW  HW  HW  OW  HW  HW  OW  HW  HW  OW  HW  HW  OW  HW  HW  OW  
HW  HW  OW  HW  HW  OW  HW  HW  OW  HW  HW  OW  HW  HW  OW  HW  HW  OW  HW  HW  
OW  HW  HW  OW  HW  HW  OW  HW  HW  OW  HW  HW  OW  HW  HW  OW  HW  HW  OW  HW  
HW  OW  HW  HW  OW  HW  HW  OW  HW  HW  OW  HW  HW  OW  HW  HW  OW  HW  HW  OW  
HW  HW  OW  HW  HW  OW  HW  HW  OW  HW  HW  OW  HW  HW  OW  HW  HW  OW  HW  HW  
OW  HW  HW  OW  HW  HW  OW  HW  HW  OW  HW  HW  OW  HW  HW  OW  HW  HW  OW  HW  
HW  OW  HW  HW  OW  HW  HW  OW  HW  HW  OW  HW  HW  OW  HW  HW  OW  HW  HW  OW  
HW  HW  OW  HW  HW  OW  HW  HW  OW  HW  HW  OW  HW  HW  OW  HW  HW  OW  HW  HW  
OW  HW  HW  OW  HW  HW  OW  HW  HW  OW  HW  HW  OW  HW  HW  OW  HW  HW  OW  HW  
HW  OW  HW  HW  OW  HW  HW  OW  HW  HW  OW  HW  HW  OW  HW  HW  OW  HW  HW  OW  
HW  HW  OW  HW  HW  OW  HW  HW  OW  HW  HW  OW  HW  HW  OW  HW  HW  OW  HW  HW  
OW  HW  HW  OW  HW  HW  OW  HW  HW  OW  HW  HW  OW  HW  HW  OW  HW  HW  OW  HW  
HW  OW  HW  HW  OW  HW  HW  OW  HW  HW  OW  HW  HW  OW  HW  HW  OW  HW  HW  OW  
HW  HW  OW  HW  HW  OW  HW  HW  OW  HW  HW  OW  HW  HW  OW  HW  HW  OW  HW  HW  
OW  HW  HW  OW  HW  HW  OW  HW  HW  OW  HW  HW  OW  HW  HW  OW  HW  HW  OW  HW  
HW  OW  HW  HW  OW  HW  HW  OW  HW  HW  OW  HW  HW  OW  HW  HW  OW  HW  HW  OW  
HW  HW  OW  HW  HW  OW  HW  HW  OW  HW  HW  OW  HW  HW  OW  HW  HW  OW  HW  HW  
OW  HW  HW  OW  HW  HW  OW  HW  HW  OW  HW  HW  OW  HW  HW  OW  HW  HW  OW  HW  
HW  OW  HW  HW  OW  HW  HW  OW  HW  HW  OW  HW  HW  OW  HW  HW  OW  HW  HW  OW  
HW  HW  OW  HW  HW  OW  HW  HW  OW  HW  HW  OW  HW  HW  OW  HW  HW  OW  HW  HW  
OW  HW  HW  OW  HW  HW  OW  HW  HW  OW  HW  HW  OW  HW  HW  OW  HW  HW  OW  HW  
HW  OW  HW  HW  OW  HW  HW  OW  HW  HW  OW  HW  HW  OW  HW  HW  OW  HW  HW  OW  
HW  HW  OW  HW  HW  OW  HW  HW  OW  HW  HW  OW  HW  HW  OW  HW  HW  OW  HW  HW  
OW  HW  HW  OW  HW  HW  OW  HW  HW  OW  HW  HW  OW  HW  HW  OW  HW  HW  OW  HW  
HW  OW  HW  HW  OW  HW  HW  OW  HW  HW  OW  HW  HW  OW  HW  HW  OW  HW  HW  OW  
HW  HW  OW  HW  HW  OW  HW  HW  OW  HW  HW  OW  HW  HW  OW  HW  HW  OW  HW  HW  
OW  HW  HW  OW  HW  HW  OW  HW  HW  OW  HW  HW  OW  HW  HW  OW  HW  HW  OW  HW  
HW  OW  HW  HW  OW  HW  HW  OW  HW  HW  OW  HW  HW  OW  HW  HW  OW  HW  HW  OW  
HW  HW  OW  HW  HW  OW  HW  HW  OW  HW  HW  OW  HW  HW  OW  HW  HW  OW  HW  HW  
OW  HW  HW  OW  HW  HW  OW  HW  HW  OW  HW  HW  OW  HW  HW  OW  HW  HW  OW  HW  
HW  OW  HW  HW  OW  HW  HW  OW  HW  HW  OW  HW  HW  OW  HW  HW  OW  HW  HW  OW  
HW  HW  OW  HW  HW  OW  HW  HW  OW  HW  HW  OW  HW  HW  OW  HW  HW  OW  HW  HW  
OW  HW  HW  OW  HW  HW  OW  HW  HW  OW  HW  HW  OW  HW  HW  OW  HW  HW  OW  HW  
HW  OW  HW  HW  OW  HW  HW  OW  HW  HW  OW  HW  HW  OW  HW  HW  OW  HW  HW  OW  
HW  HW  OW  HW  HW  OW  HW  HW  OW  HW  HW  OW  HW  HW  OW  HW  HW  OW  HW  HW  
OW  HW  HW  OW  HW  HW  OW  HW  HW  OW  HW  HW  OW  HW  HW  OW  HW  HW  OW  HW  
HW  OW  HW  HW  OW  HW  HW  OW  HW  HW  OW  HW  HW  OW  HW  HW  OW  HW  HW  OW  
HW  HW  OW  HW  HW  OW  HW  HW  OW  HW  HW  OW  HW  HW  OW  HW  HW  OW  HW  HW  
OW  HW  HW  OW  HW  HW  OW  HW  HW  OW  HW  HW  OW  HW  HW  OW  HW  HW  OW  HW  
HW  OW  HW  HW  OW  HW  HW  OW  HW  HW  OW  HW  HW  OW  HW  HW  OW  HW  HW  OW  
HW  HW  OW  HW  HW  OW  HW  HW  OW  HW  HW  OW  HW  HW  OW  HW  HW  OW  HW  HW  
OW  HW  HW  OW  HW  HW  OW  HW  HW  OW  HW  HW  OW  HW  HW  OW  HW  HW  OW  HW  
HW  OW  HW  HW  OW  HW  HW  OW  HW  HW  OW  HW  HW  OW  HW  HW  OW  HW  HW  OW  
HW  HW  OW  HW  HW  OW  HW  HW  OW  HW  HW  OW  HW  HW  OW  HW  HW  OW  HW  HW  
OW  HW  HW  OW  HW  HW  OW  HW  HW  OW  HW  HW  OW  HW  HW  OW  HW  HW  OW  HW  
HW  OW  HW  HW  OW  HW  HW  OW  HW  HW  OW  HW  HW  OW  HW  HW  OW  HW  HW  OW  
HW  HW  OW  HW  HW  OW  HW  HW  OW  HW  HW  OW  HW  HW  OW  HW  HW  OW  HW  HW  
OW  HW  HW  OW  HW  HW  OW  HW  HW  OW  HW  HW  OW  HW  HW  OW  HW  HW  OW  HW  
HW  OW  HW  HW  OW  HW  HW  OW  HW  HW  OW  HW  HW  OW  HW  HW  OW  HW  HW  OW  
HW  HW  OW  HW  HW  OW  HW  HW  OW  HW  HW  OW  HW  HW  OW  HW  HW  OW  HW  HW  
OW  HW  HW  OW  HW  HW  OW  HW  HW  OW  HW  HW  OW  HW  HW  OW  HW  HW  OW  HW  
HW  OW  HW  HW  OW  HW  HW  OW  HW  HW  OW  HW  HW  OW  HW  HW  OW  HW  HW  OW  
HW  HW  OW  HW  HW  OW  HW  HW  OW  HW  HW  OW  HW  HW  OW  HW  HW  OW  HW  HW  
OW  HW  HW  OW  HW  HW  OW  HW  HW  OW  HW  HW  OW  HW  HW  OW  HW  HW  OW  HW  
HW  OW  HW  HW  OW  HW  HW  OW  HW  HW  OW  HW  HW  OW  HW  HW  OW  HW  HW  OW  
HW  HW  OW  HW  HW  OW  HW  HW  OW  HW  HW  OW  HW  HW  OW  HW  HW  OW  HW  HW  
OW  HW  HW  OW  HW  HW  OW  HW  HW  OW  HW  HW  OW  HW  HW  OW  HW  HW  OW  HW  
HW  OW  HW  HW  OW  HW  HW  OW  HW  HW  OW  HW  HW  OW  HW  HW  OW  HW  HW  OW  
HW  HW  OW  HW  HW  OW  HW  HW  OW  HW  HW  OW  HW  HW  OW  HW  HW  OW  HW  HW  
OW  HW  HW  OW  HW  HW  OW  HW  HW  OW  HW  HW  OW  HW  HW  OW  HW  HW  OW  HW  
HW  OW  HW  HW  OW  HW  HW  OW  HW  HW  OW  HW  HW  OW  HW  HW  OW  HW  HW  OW  
HW  HW  OW  HW  HW  OW  HW  HW  OW  HW  HW  OW  HW  HW  OW  HW  HW  OW  HW  HW  
OW  HW  HW  OW  HW  HW  OW  HW  HW  OW  HW  HW  OW  HW  HW  OW  HW  HW  OW  HW  
HW  OW  HW  HW  OW  HW  HW  OW  HW  HW  OW  HW  HW  OW  HW  HW  OW  HW  HW  OW  
HW  HW  OW  HW  HW  OW  HW  HW  OW  HW  HW  OW  HW  HW  OW  HW  HW  OW  HW  HW  
OW  HW  HW  OW  HW  HW  OW  HW  HW  OW  HW  HW  OW  HW  HW  OW  HW  HW  OW  HW  
HW  OW  HW  HW  OW  HW  HW  OW  HW  HW  OW  HW  HW  OW  HW  HW  OW  HW  HW  OW  
HW  HW  OW  HW  HW  OW  HW  HW  OW  HW  HW  OW  HW  HW  OW  HW  HW  OW  HW  HW  
OW  HW  HW  OW  HW  HW  OW  HW  HW  OW  HW  HW  OW  HW  HW  OW  HW  HW  OW  HW  
HW  OW  HW  HW  OW  HW  HW  OW  HW  HW  OW  HW  HW  OW  HW  HW  OW  HW  HW  OW  
HW  HW  OW  HW  HW  OW  HW  HW  OW  HW  HW  OW  HW  HW  OW  HW  HW  OW  HW  HW  
OW  HW  HW  OW  HW  HW  OW  HW  HW  OW  HW  HW  OW  HW  HW  OW  HW  HW  OW  HW  
HW  OW  HW  HW  OW  HW  HW  OW  HW  HW  OW  HW  HW  OW  HW  HW  OW  HW  HW  OW  
HW  HW  OW  HW  HW  OW  HW  HW  OW  HW  HW  OW  HW  HW  OW  HW  HW  OW  HW  HW  
OW  HW  HW  OW  HW  HW  OW  HW  HW  OW  HW  HW  OW  HW  HW  OW  HW  HW  OW  HW  
HW  OW  HW  HW  OW  HW  HW  OW  HW  HW  OW  HW  HW  OW  HW  HW  OW  HW  HW  OW  
HW  HW  OW  HW  HW  OW  HW  HW  OW  HW  HW  OW  HW  HW  OW  HW  HW  OW  HW  HW  
OW  HW  HW  OW  HW  HW  OW  HW  HW  OW  HW  HW  OW  HW  HW  OW  HW  HW  OW  HW  
HW  OW  HW  HW  OW  HW  HW  OW  HW  HW  OW  HW  HW  OW  HW  HW  OW  HW  HW  OW  
HW  HW  OW  HW  HW  OW  HW  HW  OW  HW  HW  OW  HW  HW  OW  HW  HW  OW  HW  HW  
OW  HW  HW  OW  HW  HW  OW  HW  HW  OW  HW  HW  OW  HW  HW  OW  HW  HW  OW  HW  
HW  OW  HW  HW  OW  HW  HW  OW  HW  HW  OW  HW  HW  OW  HW  HW  OW  HW  HW  OW  
HW  HW  OW  HW  HW  OW  HW  HW  OW  HW  HW  OW  HW  HW  OW  HW  HW  OW  HW  HW  
OW  HW  HW  OW  HW  HW  OW  HW  HW  OW  HW  HW  OW  HW  HW  OW  HW  HW  OW  HW  
HW  OW  HW  HW  OW  HW  HW  OW  HW  HW  OW  HW  HW  OW  HW  HW  OW  HW  HW  OW  
HW  HW  OW  HW  HW  OW  HW  HW  OW  HW  HW  OW  HW  HW  OW  HW  HW  OW  HW  HW  
OW  HW  HW  OW  HW  HW  OW  HW  HW  OW  HW  HW  OW  HW  HW  OW  HW  HW  OW  HW  
HW  OW  HW  HW  OW  HW  HW  OW  HW  HW  OW  HW  HW  OW  HW  HW  OW  HW  HW  OW  
HW  HW  OW  HW  HW  OW  HW  HW  OW  HW  HW  OW  HW  HW  OW  HW  HW  OW  HW  HW  
OW  HW  HW  OW  HW  HW  OW  HW  HW  OW  HW  HW  OW  HW  HW  OW  HW  HW  OW  HW  
HW  OW  HW  HW  OW  HW  HW  OW  HW  HW  OW  HW  HW  OW  HW  HW  OW  HW  HW  OW  
HW  HW  OW  HW  HW  OW  HW  HW  OW  HW  HW  OW  HW  HW  OW  HW  HW  OW  HW  HW  
OW  HW  HW  OW  HW  HW  OW  HW  HW  OW  HW  HW  OW  HW  HW  OW  HW  HW  OW  HW  
HW  OW  HW  HW  OW  HW  HW  OW  HW  HW  OW  HW  HW  OW  HW  HW  OW  HW  HW  OW  
HW  HW  OW  HW  HW  OW  HW  HW  OW  HW  HW  OW  HW  HW  OW  HW  HW  OW  HW  HW  
OW  HW  HW  OW  HW  HW  OW  HW  HW  OW  HW  HW  OW  HW  HW  OW  HW  HW  OW  HW  
HW  OW  HW  HW  OW  HW  HW  OW  HW  HW  OW  HW  HW  OW  HW  HW  OW  HW  HW  OW  
HW  HW  OW  HW  HW  OW  HW  HW  OW  HW  HW  OW  HW  HW  OW  HW  HW  OW  HW  HW  
OW  HW  HW  OW  HW  HW  OW  HW  HW  OW  HW  HW  OW  HW  HW  OW  HW  HW  OW  HW  
HW  OW  HW  HW  OW  HW  HW  OW  HW  HW  OW  HW  HW  OW  HW  HW  OW  HW  HW  OW  
HW  HW  OW  HW  HW  OW  HW  HW  OW  HW  HW  OW  HW  HW  OW  HW  HW  OW  HW  HW  
OW  HW  HW  OW  HW  HW  OW  HW  HW  OW  HW  HW  OW  HW  HW  OW  HW  HW  OW  HW  
HW  OW  HW  HW  OW  HW  HW  OW  HW  HW  OW  HW  HW  OW  HW  HW  OW  HW  HW  OW  
HW  HW  OW  HW  HW  OW  HW  HW  OW  HW  HW  OW  HW  HW  OW  HW  HW  OW  HW  HW  
OW  HW  HW  OW  HW  HW  OW  HW  HW  OW  HW  HW  OW  HW  HW  OW  HW  HW  OW  HW  
HW  OW  HW  HW  OW  HW  HW  OW  HW  HW  OW  HW  HW  OW  HW  HW  OW  HW  HW  OW  
HW  HW  OW  HW  HW  OW  HW  HW  OW  HW  HW  OW  HW  HW  OW  HW  HW  OW  HW  HW  
OW  HW  HW  OW  HW  HW  OW  HW  HW  OW  HW  HW  OW  HW  HW  OW  HW  HW  OW  HW  
HW  OW  HW  HW  OW  HW  HW  OW  HW  HW  OW  HW  HW  OW  HW  HW  OW  HW  HW  OW  
HW  HW  OW  HW  HW  OW  HW  HW  OW  HW  HW  OW  HW  HW  OW  HW  HW  OW  HW  HW  
OW  HW  HW  OW  HW  HW  OW  HW  HW  OW  HW  HW  OW  HW  HW  OW  HW  HW  OW  HW  
HW  OW  HW  HW  OW  HW  HW  OW  HW  HW  OW  HW  HW  OW  HW  HW  OW  HW  HW  OW  
HW  HW  OW  HW  HW  OW  HW  HW  OW  HW  HW  OW  HW  HW  OW  HW  HW  OW  HW  HW  
OW  HW  HW  OW  HW  HW  OW  HW  HW  OW  HW  HW  OW  HW  HW  OW  HW  HW  OW  HW  
HW  OW  HW  HW  OW  HW  HW  OW  HW  HW  OW  HW  HW  OW  HW  HW  OW  HW  HW  OW  
HW  HW  OW  HW  HW  OW  HW  HW  OW  HW  HW  OW  HW  HW  OW  HW  HW  OW  HW  HW  
OW  HW  HW  OW  HW  HW  OW  HW  HW  OW  HW  HW  OW  HW  HW  OW  HW  HW  OW  HW  
HW  OW  HW  HW  OW  HW  HW  OW  HW  HW  OW  HW  HW  OW  HW  HW  OW  HW  HW  OW  
HW  HW  OW  HW  HW  OW  HW  HW  OW  HW  HW  OW  HW  HW  OW  HW  HW  OW  HW  HW  
OW  HW  HW  OW  HW  HW  OW  HW  HW  OW  HW  HW  OW  HW  HW  OW  HW  HW  OW  HW  
HW  OW  HW  HW  OW  HW  HW  OW  HW  HW  OW  HW  HW  OW  HW  HW  OW  HW  HW  OW  
HW  HW  OW  HW  HW  OW  HW  HW  OW  HW  HW  OW  HW  HW  OW  HW  HW  OW  HW  HW  
OW  HW  HW  OW  HW  HW  OW  HW  HW  OW  HW  HW  OW  HW  HW  OW  HW  HW  OW  HW  
HW  OW  HW  HW  OW  HW  HW  OW  HW  HW  OW  HW  HW  OW  HW  HW  OW  HW  HW  OW  
HW  HW  OW  HW  HW  OW  HW  HW  OW  HW  HW  OW  HW  HW  OW  HW  HW  OW  HW  HW  
OW  HW  HW  OW  HW  HW  OW  HW  HW  OW  HW  HW  OW  HW  HW  OW  HW  HW  OW  HW  
HW  OW  HW  HW  OW  HW  HW  OW  HW  HW  OW  HW  HW  OW  HW  HW  OW  HW  HW  OW  
HW  HW  OW  HW  HW  OW  HW  HW  OW  HW  HW  OW  HW  HW  OW  HW  HW  OW  HW  HW  
OW  HW  HW  OW  HW  HW  OW  HW  HW  OW  HW  HW  OW  HW  HW  OW  HW  HW  OW  HW  
HW  OW  HW  HW  OW  HW  HW  OW  HW  HW  OW  HW  HW  OW  HW  HW  OW  HW  HW  OW  
HW  HW  OW  HW  HW  OW  HW  HW  OW  HW  HW  OW  HW  HW  OW  HW  HW  OW  HW  HW  
OW  HW  HW  OW  HW  HW  OW  HW  HW  OW  HW  HW  OW  HW  HW  OW  HW  HW  OW  HW  
HW  OW  HW  HW  OW  HW  HW  OW  HW  HW  OW  HW  HW  OW  HW  HW  OW  HW  HW  OW  
HW  HW  OW  HW  HW  OW  HW  HW  OW  HW  HW  OW  HW  HW  OW  HW  HW  OW  HW  HW  
OW  HW  HW  OW  HW  HW  OW  HW  HW  OW  HW  HW  OW  HW  HW  OW  HW  HW  OW  HW  
HW  OW  HW  HW  OW  HW  HW  OW  HW  HW  OW  HW  HW  OW  HW  HW  OW  HW  HW  OW  
HW  HW  OW  HW  HW  OW  HW  HW  OW  HW  HW  OW  HW  HW  OW  HW  HW  OW  HW  HW  
OW  HW  HW  OW  HW  HW  OW  HW  HW  OW  HW  HW  OW  HW  HW  OW  HW  HW  OW  HW  
HW  OW  HW  HW  OW  HW  HW  OW  HW  HW  OW  HW  HW  OW  HW  HW  OW  HW  HW  OW  
HW  HW  OW  HW  HW  OW  HW  HW  OW  HW  HW  OW  HW  HW  OW  HW  HW  OW  HW  HW  
OW  HW  HW  OW  HW  HW  OW  HW  HW  OW  HW  HW  OW  HW  HW  OW  HW  HW  OW  HW  
HW  OW  HW  HW  OW  HW  HW  OW  HW  HW  OW  HW  HW  OW  HW  HW  OW  HW  HW  OW  
HW  HW  OW  HW  HW  OW  HW  HW  OW  HW  HW  OW  HW  HW  OW  HW  HW  OW  HW  HW  
OW  HW  HW  OW  HW  HW  OW  HW  HW  OW  HW  HW  OW  HW  HW  OW  HW  HW  OW  HW  
HW  OW  HW  HW  OW  HW  HW  OW  HW  HW  OW  HW  HW  OW  HW  HW  OW  HW  HW  OW  
HW  HW  OW  HW  HW  OW  HW  HW  OW  HW  HW  OW  HW  HW  OW  HW  HW  OW  HW  HW  
OW  HW  HW  OW  HW  HW  OW  HW  HW  OW  HW  HW  OW  HW  HW  OW  HW  HW  OW  HW  
HW  OW  HW  HW  OW  HW  HW  OW  HW  HW  OW  HW  HW  OW  HW  HW  OW  HW  HW  OW  
HW  HW  OW  HW  HW  OW  HW  HW  OW  HW  HW  OW  HW  HW  OW  HW  HW  OW  HW  HW  
OW  HW  HW  OW  HW  HW  OW  HW  HW  OW  HW  HW  OW  HW  HW  OW  HW  HW  OW  HW  
HW  OW  HW  HW  OW  HW  HW  OW  HW  HW  OW  HW  HW  OW  HW  HW  OW  HW  HW  OW  
HW  HW  OW  HW  HW  OW  HW  HW  OW  HW  HW  OW  HW  HW  OW  HW  HW  OW  HW  HW  
OW  HW  HW  OW  HW  HW  OW  HW  HW  OW  HW  HW  OW  HW  HW  OW  HW  HW  OW  HW  
HW  OW  HW  HW  OW  HW  HW  OW  HW  HW  OW  HW  HW  OW  HW  HW  OW  HW  HW  OW  
HW  HW  OW  HW  HW  OW  HW  HW  OW  HW  HW  OW  HW  HW  OW  HW  HW  OW  HW  HW  
OW  HW  HW  OW  HW  HW  OW  HW  HW  OW  HW  HW  OW  HW  HW  OW  HW  HW  OW  HW  
HW  OW  HW  HW  OW  HW  HW  OW  HW  HW  OW  HW  HW  OW  HW  HW  OW  HW  HW  OW  
HW  HW  OW  HW  HW  OW  HW  HW  OW  HW  HW  OW  HW  HW  OW  HW  HW  OW  HW  HW  
OW  HW  HW  OW  HW  HW  OW  HW  HW  OW  HW  HW  OW  HW  HW  OW  HW  HW  OW  HW  
HW  OW  HW  HW  OW  HW  HW  OW  HW  HW  OW  HW  HW  OW  HW  HW  OW  HW  HW  OW  
HW  HW  OW  HW  HW  OW  HW  HW  OW  HW  HW  OW  HW  HW  OW  HW  HW  OW  HW  HW  
OW  HW  HW  OW  HW  HW  OW  HW  HW  OW  HW  HW  OW  HW  HW  OW  HW  HW  OW  HW  
HW  OW  HW  HW  OW  HW  HW  OW  HW  HW  OW  HW  HW  OW  HW  HW  OW  HW  HW  OW  
HW  HW  OW  HW  HW  OW  HW  HW  OW  HW  HW  OW  HW  HW  OW  HW  HW  OW  HW  HW  
OW  HW  HW  OW  HW  HW  OW  HW  HW  OW  HW  HW  OW  HW  HW  OW  HW  HW  OW  HW  
HW  OW  HW  HW  OW  HW  HW  OW  HW  HW  OW  HW  HW  OW  HW  HW  OW  HW  HW  OW  
HW  HW  OW  HW  HW  OW  HW  HW  OW  HW  HW  OW  HW  HW  OW  HW  HW  OW  HW  HW  
OW  HW  HW  OW  HW  HW  OW  HW  HW  OW  HW  HW  OW  HW  HW  OW  HW  HW  OW  HW  
HW  OW  HW  HW  OW  HW  HW  OW  HW  HW  OW  HW  HW  OW  HW  HW  OW  HW  HW  OW  
HW  HW  OW  HW  HW  OW  HW  HW  OW  HW  HW  OW  HW  HW  OW  HW  HW  OW  HW  HW  
OW  HW  HW  OW  HW  HW  OW  HW  HW  OW  HW  HW  OW  HW  HW  OW  HW  HW  OW  HW  
HW  OW  HW  HW  OW  HW  HW  OW  HW  HW  OW  HW  HW  OW  HW  HW  OW  HW  HW  OW  
HW  HW  OW  HW  HW  OW  HW  HW  OW  HW  HW  OW  HW  HW  OW  HW  HW  OW  HW  HW  
OW  HW  HW  OW  HW  HW  OW  HW  HW  OW  HW  HW  OW  HW  HW  OW  HW  HW  OW  HW  
HW  OW  HW  HW  OW  HW  HW  OW  HW  HW  OW  HW  HW  OW  HW  HW  OW  HW  HW  OW  
HW  HW  OW  HW  HW  OW  HW  HW  OW  HW  HW  OW  HW  HW  OW  HW  HW  OW  HW  HW  
OW  HW  HW  OW  HW  HW  OW  HW  HW  OW  HW  HW  OW  HW  HW  OW  HW  HW  OW  HW  
HW  OW  HW  HW  OW  HW  HW  OW  HW  HW  OW  HW  HW  OW  HW  HW  OW  HW  HW  OW  
HW  HW  OW  HW  HW  OW  HW  HW  OW  HW  HW  OW  HW  HW  OW  HW  HW  OW  HW  HW  
OW  HW  HW  OW  HW  HW  OW  HW  HW  OW  HW  HW  OW  HW  HW  OW  HW  HW  OW  HW  
HW  OW  HW  HW  OW  HW  HW  OW  HW  HW  OW  HW  HW  OW  HW  HW  OW  HW  HW  OW  
HW  HW  OW  HW  HW  OW  HW  HW  OW  HW  HW  OW  HW  HW  OW  HW  HW  OW  HW  HW  
OW  HW  HW  OW  HW  HW  OW  HW  HW  OW  HW  HW  OW  HW  HW  OW  HW  HW  OW  HW  
HW  OW  HW  HW  OW  HW  HW  OW  HW  HW  OW  HW  HW  OW  HW  HW  OW  HW  HW  OW  
HW  HW  OW  HW  HW  OW  HW  HW  OW  HW  HW  OW  HW  HW  OW  HW  HW  OW  HW  HW  
OW  HW  HW  OW  HW  HW  OW  HW  HW  OW  HW  HW  OW  HW  HW  OW  HW  HW  OW  HW  
HW  OW  HW  HW  OW  HW  HW  OW  HW  HW  OW  HW  HW  OW  HW  HW  OW  HW  HW  OW  
HW  HW  OW  HW  HW  OW  HW  HW  OW  HW  HW  OW  HW  HW  OW  HW  HW  OW  HW  HW  
OW  HW  HW  OW  HW  HW  OW  HW  HW  OW  HW  HW  OW  HW  HW  OW  HW  HW  OW  HW  
HW  OW  HW  HW  OW  HW  HW  OW  HW  HW  OW  HW  HW  OW  HW  HW  OW  HW  HW  OW  
HW  HW  OW  HW  HW  OW  HW  HW  OW  HW  HW  OW  HW  HW  OW  HW  HW  OW  HW  HW  
OW  HW  HW  OW  HW  HW  OW  HW  HW  OW  HW  HW  OW  HW  HW  OW  HW  HW  OW  HW  
HW  OW  HW  HW  OW  HW  HW  OW  HW  HW  OW  HW  HW  OW  HW  HW  OW  HW  HW  OW  
HW  HW  OW  HW  HW  OW  HW  HW  OW  HW  HW  OW  HW  HW  OW  HW  HW  OW  HW  HW  
OW  HW  HW  OW  HW  HW  OW  HW  HW  OW  HW  HW  OW  HW  HW  OW  HW  HW  OW  HW  
HW  OW  HW  HW  OW  HW  HW  OW  HW  HW  OW  HW  HW  OW  HW  HW  OW  HW  HW  OW  
HW  HW  OW  HW  HW  OW  HW  HW  OW  HW  HW  OW  HW  HW  OW  HW  HW  OW  HW  HW  
OW  HW  HW  OW  HW  HW  OW  HW  HW  OW  HW  HW  OW  HW  HW  OW  HW  HW  OW  HW  
HW  OW  HW  HW  OW  HW  HW  OW  HW  HW  OW  HW  HW  OW  HW  HW  OW  HW  HW  OW  
HW  HW  OW  HW  HW  OW  HW  HW  OW  HW  HW  OW  HW  HW  OW  HW  HW  OW  HW  HW  
OW  HW  HW  OW  HW  HW  OW  HW  HW  OW  HW  HW  OW  HW  HW  OW  HW  HW  OW  HW  
HW  OW  HW  HW  OW  HW  HW  OW  HW  HW  OW  HW  HW  OW  HW  HW  OW  HW  HW  OW  
HW  HW  OW  HW  HW  OW  HW  HW  OW  HW  HW  OW  HW  HW  OW  HW  HW  OW  HW  HW  
OW  HW  HW  OW  HW  HW  OW  HW  HW  OW  HW  HW  OW  HW  HW  OW  HW  HW  OW  HW  
HW  OW  HW  HW  OW  HW  HW  OW  HW  HW  OW  HW  HW  OW  HW  HW  OW  HW  HW  OW  
HW  HW  OW  HW  HW  OW  HW  HW  OW  HW  HW  OW  HW  HW  OW  HW  HW  OW  HW  HW  
OW  HW  HW  OW  HW  HW  OW  HW  HW  OW  HW  HW  OW  HW  HW  OW  HW  HW  OW  HW  
HW  OW  HW  HW  OW  HW  HW  OW  HW  HW  OW  HW  HW  OW  HW  HW  OW  HW  HW  OW  
HW  HW  OW  HW  HW  OW  HW  HW  OW  HW  HW  OW  HW  HW  OW  HW  HW  OW  HW  HW  
OW  HW  HW  OW  HW  HW  OW  HW  HW  OW  HW  HW  OW  HW  HW  OW  HW  HW  OW  HW  
HW  OW  HW  HW  OW  HW  HW  OW  HW  HW  OW  HW  HW  OW  HW  HW  OW  HW  HW  OW  
HW  HW  OW  HW  HW  OW  HW  HW  OW  HW  HW  OW  HW  HW  OW  HW  HW  OW  HW  HW  
OW  HW  HW  OW  HW  HW  OW  HW  HW  OW  HW  HW  OW  HW  HW  OW  HW  HW  OW  HW  
HW  OW  HW  HW  OW  HW  HW  OW  HW  HW  OW  HW  HW  OW  HW  HW  OW  HW  HW  OW  
HW  HW  OW  HW  HW  OW  HW  HW  OW  HW  HW  OW  HW  HW  OW  HW  HW  OW  HW  HW  
OW  HW  HW  OW  HW  HW  OW  HW  HW  OW  HW  HW  OW  HW  HW  OW  HW  HW  OW  HW  
HW  OW  HW  HW  OW  HW  HW  OW  HW  HW  OW  HW  HW  OW  HW  HW  OW  HW  HW  OW  
HW  HW  OW  HW  HW  OW  HW  HW  OW  HW  HW  OW  HW  HW  OW  HW  HW  OW  HW  HW  
OW  HW  HW  OW  HW  HW  OW  HW  HW  OW  HW  HW  OW  HW  HW  OW  HW  HW  OW  HW  
HW  OW  HW  HW  OW  HW  HW  OW  HW  HW  OW  HW  HW  OW  HW  HW  OW  HW  HW  OW  
HW  HW  OW  HW  HW  OW  HW  HW  OW  HW  HW  OW  HW  HW  OW  HW  HW  OW  HW  HW  
OW  HW  HW  OW  HW  HW  OW  HW  HW  OW  HW  HW  OW  HW  HW  OW  HW  HW  OW  HW  
HW  OW  HW  HW  OW  HW  HW  OW  HW  HW  OW  HW  HW  OW  HW  HW  OW  HW  HW  OW  
HW  HW  OW  HW  HW  OW  HW  HW  OW  HW  HW  OW  HW  HW  OW  HW  HW  OW  HW  HW  
OW  HW  HW  OW  HW  HW  OW  HW  HW  OW  HW  HW  OW  HW  HW  OW  HW  HW  OW  HW  
HW  OW  HW  HW  OW  HW  HW  OW  HW  HW  OW  HW  HW  OW  HW  HW  OW  HW  HW  OW  
HW  HW  OW  HW  HW  OW  HW  HW  OW  HW  HW  OW  HW  HW  OW  HW  HW  OW  HW  HW  
OW  HW  HW  OW  HW  HW  OW  HW  HW  OW  HW  HW  OW  HW  HW  OW  HW  HW  OW  HW  
HW  OW  HW  HW  OW  HW  HW  OW  HW  HW  OW  HW  HW  OW  HW  HW  OW  HW  HW  OW  
HW  HW  OW  HW  HW  OW  HW  HW  OW  HW  HW  OW  HW  HW  OW  HW  HW  OW  HW  HW  
OW  HW  HW  OW  HW  HW  OW  HW  HW  OW  HW  HW  OW  HW  HW  OW  HW  HW  OW  HW  
HW  OW  HW  HW  OW  HW  HW  OW  HW  HW  OW  HW  HW  OW  HW  HW  OW  HW  HW  OW  
HW  HW  OW  HW  HW  OW  HW  HW  OW  HW  HW  OW  HW  HW  OW  HW  HW  OW  HW  HW  
OW  HW  HW  OW  HW  HW  OW  HW  HW  OW  HW  HW  OW  HW  HW  OW  HW  HW  OW  HW  
HW  OW  HW  HW  OW  HW  HW  OW  HW  HW  OW  HW  HW  OW  HW  HW  OW  HW  HW  OW  
HW  HW  OW  HW  HW  OW  HW  HW  OW  HW  HW  OW  HW  HW  OW  HW  HW  OW  HW  HW  
OW  HW  HW  OW  HW  HW  OW  HW  HW  OW  HW  HW  OW  HW  HW  OW  HW  HW  OW  HW  
HW  OW  HW  HW  OW  HW  HW  OW  HW  HW  OW  HW  HW  OW  HW  HW  OW  HW  HW  OW  
HW  HW  OW  HW  HW  OW  HW  HW  OW  HW  HW  OW  HW  HW  OW  HW  HW  OW  HW  HW  
OW  HW  HW  OW  HW  HW  OW  HW  HW  OW  HW  HW  OW  HW  HW  OW  HW  HW  OW  HW  
HW  OW  HW  HW  OW  HW  HW  OW  HW  HW  OW  HW  HW  OW  HW  HW  OW  HW  HW  OW  
HW  HW  OW  HW  HW  OW  HW  HW  OW  HW  HW  OW  HW  HW  OW  HW  HW  OW  HW  HW  
OW  HW  HW  OW  HW  HW  OW  HW  HW  OW  HW  HW  OW  HW  HW  OW  HW  HW  OW  HW  
HW  OW  HW  HW  OW  HW  HW  OW  HW  HW  OW  HW  HW  OW  HW  HW  OW  HW  HW  OW  
HW  HW  OW  HW  HW  OW  HW  HW  OW  HW  HW  OW  HW  HW  OW  HW  HW  OW  HW  HW  
OW  HW  HW  OW  HW  HW  OW  HW  HW  OW  HW  HW  OW  HW  HW  OW  HW  HW  OW  HW  
HW  OW  HW  HW  OW  HW  HW  OW  HW  HW  OW  HW  HW  OW  HW  HW  OW  HW  HW  OW  
HW  HW  OW  HW  HW  OW  HW  HW  OW  HW  HW  OW  HW  HW  OW  HW  HW  OW  HW  HW  
OW  HW  HW  OW  HW  HW  OW  HW  HW  OW  HW  HW  OW  HW  HW  OW  HW  HW  OW  HW  
HW  OW  HW  HW  OW  HW  HW  OW  HW  HW  OW  HW  HW  OW  HW  HW  OW  HW  HW  OW  
HW  HW  OW  HW  HW  OW  HW  HW  OW  HW  HW  OW  HW  HW  OW  HW  HW  OW  HW  HW  
OW  HW  HW  OW  HW  HW  OW  HW  HW  OW  HW  HW  OW  HW  HW  OW  HW  HW  OW  HW  
HW  OW  HW  HW  OW  HW  HW  OW  HW  HW  OW  HW  HW  OW  HW  HW  OW  HW  HW  OW  
HW  HW  OW  HW  HW  OW  HW  HW  OW  HW  HW  OW  HW  HW  OW  HW  HW  OW  HW  HW  
OW  HW  HW  OW  HW  HW  OW  HW  HW  OW  HW  HW  OW  HW  HW  OW  HW  HW  OW  HW  
HW  OW  HW  HW  OW  HW  HW  OW  HW  HW  OW  HW  HW  OW  HW  HW  OW  HW  HW  OW  
HW  HW  OW  HW  HW  OW  HW  HW  OW  HW  HW  OW  HW  HW  OW  HW  HW  OW  HW  HW  
OW  HW  HW  OW  HW  HW  OW  HW  HW  OW  HW  HW  OW  HW  HW  OW  HW  HW  OW  HW  
HW  OW  HW  HW  OW  HW  HW  OW  HW  HW  OW  HW  HW  OW  HW  HW  OW  HW  HW  OW  
HW  HW  OW  HW  HW  OW  HW  HW  OW  HW  HW  OW  HW  HW  OW  HW  HW  OW  HW  HW  
OW  HW  HW  OW  HW  HW  OW  HW  HW  OW  HW  HW  OW  HW  HW  OW  HW  HW  OW  HW  
HW  OW  HW  HW  OW  HW  HW  OW  HW  HW  OW  HW  HW  OW  HW  HW  OW  HW  HW  OW  
HW  HW  OW  HW  HW  OW  HW  HW  OW  HW  HW  OW  HW  HW  OW  HW  HW  OW  HW  HW  
OW  HW  HW  OW  HW  HW  OW  HW  HW  OW  HW  HW  OW  HW  HW  OW  HW  HW  OW  HW  
HW  OW  HW  HW  OW  HW  HW  OW  HW  HW  OW  HW  HW  OW  HW  HW  OW  HW  HW  OW  
HW  HW  OW  HW  HW  OW  HW  HW  OW  HW  HW  OW  HW  HW  OW  HW  HW  OW  HW  HW  
OW  HW  HW  OW  HW  HW  OW  HW  HW  OW  HW  HW  OW  HW  HW  OW  HW  HW  OW  HW  
HW  OW  HW  HW  OW  HW  HW  OW  HW  HW  OW  HW  HW  OW  HW  HW  OW  HW  HW  OW  
HW  HW  OW  HW  HW  OW  HW  HW  OW  HW  HW  OW  HW  HW  OW  HW  HW  OW  HW  HW  
OW  HW  HW  OW  HW  HW  OW  HW  HW  OW  HW  HW  OW  HW  HW  OW  HW  HW  OW  HW  
HW  OW  HW  HW  OW  HW  HW  OW  HW  HW  OW  HW  HW  OW  HW  HW  OW  HW  HW  OW  
HW  HW  OW  HW  HW  OW  HW  HW  OW  HW  HW  OW  HW  HW  OW  HW  HW  OW  HW  HW  
OW  HW  HW  OW  HW  HW  OW  HW  HW  OW  HW  HW  OW  HW  HW  OW  HW  HW  OW  HW  
HW  OW  HW  HW  OW  HW  HW  OW  HW  HW  OW  HW  HW  OW  HW  HW  OW  HW  HW  OW  
HW  HW  OW  HW  HW  OW  HW  HW  OW  HW  HW  OW  HW  HW  OW  HW  HW  OW  HW  HW  
OW  HW  HW  OW  HW  HW  OW  HW  HW  OW  HW  HW  OW  HW  HW  OW  HW  HW  OW  HW  
HW  OW  HW  HW  OW  HW  HW  OW  HW  HW  OW  HW  HW  OW  HW  HW  OW  HW  HW  OW  
HW  HW  OW  HW  HW  OW  HW  HW  OW  HW  HW  OW  HW  HW  OW  HW  HW  OW  HW  HW  
OW  HW  HW  OW  HW  HW  OW  HW  HW  OW  HW  HW  OW  HW  HW  OW  HW  HW  OW  HW  
HW  OW  HW  HW  OW  HW  HW  OW  HW  HW  OW  HW  HW  OW  HW  HW  OW  HW  HW  OW  
HW  HW  OW  HW  HW  OW  HW  HW  OW  HW  HW  OW  HW  HW  OW  HW  HW  OW  HW  HW  
OW  HW  HW  OW  HW  HW  OW  HW  HW  OW  HW  HW  OW  HW  HW  OW  HW  HW  OW  HW  
HW  OW  HW  HW  OW  HW  HW  OW  HW  HW  OW  HW  HW  OW  HW  HW  OW  HW  HW  OW  
HW  HW  OW  HW  HW  OW  HW  HW  OW  HW  HW  OW  HW  HW  OW  HW  HW  OW  HW  HW  
OW  HW  HW  OW  HW  HW  OW  HW  HW  OW  HW  HW  OW  HW  HW  OW  HW  HW  OW  HW  
HW  OW  HW  HW  OW  HW  HW  OW  HW  HW  OW  HW  HW  OW  HW  HW  OW  HW  HW  OW  
HW  HW  OW  HW  HW  OW  HW  HW  OW  HW  HW  OW  HW  HW  OW  HW  HW  OW  HW  HW  
OW  HW  HW  OW  HW  HW  OW  HW  HW  OW  HW  HW  OW  HW  HW  OW  HW  HW  OW  HW  
HW  OW  HW  HW  OW  HW  HW  OW  HW  HW  OW  HW  HW  OW  HW  HW  OW  HW  HW  OW  
HW  HW  OW  HW  HW  OW  HW  HW  OW  HW  HW  OW  HW  HW  OW  HW  HW  OW  HW  HW  
OW  HW  HW  OW  HW  HW  OW  HW  HW  OW  HW  HW  OW  HW  HW  OW  HW  HW  OW  HW  
HW  OW  HW  HW  OW  HW  HW  OW  HW  HW  OW  HW  HW  OW  HW  HW  OW  HW  HW  OW  
HW  HW  OW  HW  HW  OW  HW  HW  OW  HW  HW  OW  HW  HW  OW  HW  HW  OW  HW  HW  
OW  HW  HW  OW  HW  HW  OW  HW  HW  OW  HW  HW  OW  HW  HW  OW  HW  HW  OW  HW  
HW  OW  HW  HW  OW  HW  HW  OW  HW  HW  OW  HW  HW  OW  HW  HW  OW  HW  HW  OW  
HW  HW  OW  HW  HW  OW  HW  HW  OW  HW  HW  OW  HW  HW  OW  HW  HW  OW  HW  HW  
OW  HW  HW  OW  HW  HW  OW  HW  HW  OW  HW  HW  OW  HW  HW  OW  HW  HW  OW  HW  
HW  OW  HW  HW  OW  HW  HW  OW  HW  HW  OW  HW  HW  OW  HW  HW  OW  HW  HW  OW  
HW  HW  OW  HW  HW  OW  HW  HW  OW  HW  HW  OW  HW  HW  OW  HW  HW  OW  HW  HW  
OW  HW  HW  OW  HW  HW  OW  HW  HW  OW  HW  HW  OW  HW  HW  OW  HW  HW  OW  HW  
HW  OW  HW  HW  OW  HW  HW  OW  HW  HW  OW  HW  HW  OW  HW  HW  OW  HW  HW  OW  
HW  HW  OW  HW  HW  OW  HW  HW  OW  HW  HW  OW  HW  HW  OW  HW  HW  OW  HW  HW  
OW  HW  HW  OW  HW  HW  OW  HW  HW  OW  HW  HW  OW  HW  HW  OW  HW  HW  OW  HW  
HW  OW  HW  HW  OW  HW  HW  OW  HW  HW  OW  HW  HW  OW  HW  HW  OW  HW  HW  OW  
HW  HW  OW  HW  HW  OW  HW  HW  OW  HW  HW  OW  HW  HW  OW  HW  HW  OW  HW  HW  
OW  HW  HW  OW  HW  HW  OW  HW  HW  OW  HW  HW  OW  HW  HW  OW  HW  HW  OW  HW  
HW  OW  HW  HW  OW  HW  HW  OW  HW  HW  OW  HW  HW  OW  HW  HW  OW  HW  HW  OW  
HW  HW  OW  HW  HW  OW  HW  HW  OW  HW  HW  OW  HW  HW  OW  HW  HW  OW  HW  HW  
OW  HW  HW  OW  HW  HW  OW  HW  HW  OW  HW  HW  OW  HW  HW  OW  HW  HW  OW  HW  
HW  OW  HW  HW  OW  HW  HW  OW  HW  HW  OW  HW  HW  OW  HW  HW  OW  HW  HW  OW  
HW  HW  OW  HW  HW  OW  HW  HW  OW  HW  HW  OW  HW  HW  OW  HW  HW  OW  HW  HW  
OW  HW  HW  OW  HW  HW  OW  HW  HW  OW  HW  HW  OW  HW  HW  OW  HW  HW  OW  HW  
HW  OW  HW  HW  OW  HW  HW  OW  HW  HW  OW  HW  HW  OW  HW  HW  OW  HW  HW  OW  
HW  HW  OW  HW  HW  OW  HW  HW  OW  HW  HW  OW  HW  HW  OW  HW  HW  OW  HW  HW  
OW  HW  HW  OW  HW  HW  OW  HW  HW  OW  HW  HW  OW  HW  HW  OW  HW  HW  OW  HW  
HW  OW  HW  HW  OW  HW  HW  OW  HW  HW  OW  HW  HW  OW  HW  HW  OW  HW  HW  OW  
HW  HW  OW  HW  HW  OW  HW  HW  OW  HW  HW  OW  HW  HW  OW  HW  HW  OW  HW  HW  
OW  HW  HW  OW  HW  HW  OW  HW  HW  OW  HW  HW  OW  HW  HW  OW  HW  HW  OW  HW  
HW  OW  HW  HW  OW  HW  HW  OW  HW  HW  OW  HW  HW  OW  HW  HW  OW  HW  HW  OW  
HW  HW  OW  HW  HW  OW  HW  HW  OW  HW  HW  OW  HW  HW  OW  HW  HW  OW  HW  HW  
OW  HW  HW  OW  HW  HW  OW  HW  HW  OW  HW  HW  OW  HW  HW  OW  HW  HW  OW  HW  
HW  OW  HW  HW  OW  HW  HW  OW  HW  HW  OW  HW  HW  OW  HW  HW  OW  HW  HW  OW  
HW  HW  OW  HW  HW  OW  HW  HW  OW  HW  HW  OW  HW  HW  OW  HW  HW  OW  HW  HW  
OW  HW  HW  OW  HW  HW  OW  HW  HW  OW  HW  HW  OW  HW  HW  OW  HW  HW  OW  HW  
HW  OW  HW  HW  OW  HW  HW  OW  HW  HW  OW  HW  HW  OW  HW  HW  OW  HW  HW  OW  
HW  HW  OW  HW  HW  OW  HW  HW  OW  HW  HW  OW  HW  HW  OW  HW  HW  OW  HW  HW  
OW  HW  HW  OW  HW  HW  OW  HW  HW  OW  HW  HW  OW  HW  HW  OW  HW  HW  OW  HW  
HW  OW  HW  HW  OW  HW  HW  OW  HW  HW  OW  HW  HW  OW  HW  HW  OW  HW  HW  OW  
HW  HW  OW  HW  HW  OW  HW  HW  OW  HW  HW  OW  HW  HW  OW  HW  HW  OW  HW  HW  
OW  HW  HW  OW  HW  HW  OW  HW  HW  OW  HW  HW  OW  HW  HW  OW  HW  HW  OW  HW  
HW  OW  HW  HW  OW  HW  HW  OW  HW  HW  OW  HW  HW  OW  HW  HW  OW  HW  HW  OW  
HW  HW  OW  HW  HW  OW  HW  HW  OW  HW  HW  OW  HW  HW  OW  HW  HW  OW  HW  HW  
OW  HW  HW  OW  HW  HW  OW  HW  HW  OW  HW  HW  OW  HW  HW  OW  HW  HW  OW  HW  
HW  OW  HW  HW  OW  HW  HW  OW  HW  HW  OW  HW  HW  OW  HW  HW  OW  HW  HW  OW  
HW  HW  OW  HW  HW  OW  HW  HW  OW  HW  HW  OW  HW  HW  OW  HW  HW  OW  HW  HW  
OW  HW  HW  OW  HW  HW  OW  HW  HW  OW  HW  HW  OW  HW  HW  OW  HW  HW  OW  HW  
HW  OW  HW  HW  OW  HW  HW  OW  HW  HW  OW  HW  HW  OW  HW  HW  OW  HW  HW  OW  
HW  HW  OW  HW  HW  OW  HW  HW  OW  HW  HW  OW  HW  HW  OW  HW  HW  OW  HW  HW  
OW  HW  HW  OW  HW  HW  OW  HW  HW  OW  HW  HW  OW  HW  HW  OW  HW  HW  OW  HW  
HW  OW  HW  HW  OW  HW  HW  OW  HW  HW  OW  HW  HW  OW  HW  HW  OW  HW  HW  OW  
HW  HW  OW  HW  HW  OW  HW  HW  OW  HW  HW  OW  HW  HW  OW  HW  HW  OW  HW  HW  
OW  HW  HW  OW  HW  HW  OW  HW  HW  OW  HW  HW  OW  HW  HW  OW  HW  HW  OW  HW  
HW  OW  HW  HW  OW  HW  HW  OW  HW  HW  OW  HW  HW  OW  HW  HW  OW  HW  HW  OW  
HW  HW  OW  HW  HW  OW  HW  HW  OW  HW  HW  OW  HW  HW  OW  HW  HW  OW  HW  HW  
OW  HW  HW  OW  HW  HW  OW  HW  HW  OW  HW  HW  OW  HW  HW  OW  HW  HW  OW  HW  
HW  OW  HW  HW  OW  HW  HW  OW  HW  HW  OW  HW  HW  OW  HW  HW  OW  HW  HW  OW  
HW  HW  OW  HW  HW  OW  HW  HW  OW  HW  HW  OW  HW  HW  OW  HW  HW  OW  HW  HW  
OW  HW  HW  OW  HW  HW  OW  HW  HW  OW  HW  HW  OW  HW  HW  OW  HW  HW  OW  HW  
HW  OW  HW  HW  OW  HW  HW  OW  HW  HW  OW  HW  HW  OW  HW  HW  OW  HW  HW  OW  
HW  HW  OW  HW  HW  OW  HW  HW  OW  HW  HW  OW  HW  HW  OW  HW  HW  OW  HW  HW  
OW  HW  HW  OW  HW  HW  OW  HW  HW  OW  HW  HW  OW  HW  HW  OW  HW  HW  OW  HW  
HW  OW  HW  HW  OW  HW  HW  OW  HW  HW  OW  HW  HW  OW  HW  HW  OW  HW  HW  OW  
HW  HW  OW  HW  HW  OW  HW  HW  OW  HW  HW  OW  HW  HW  OW  HW  HW  OW  HW  HW  
OW  HW  HW  OW  HW  HW  OW  HW  HW  OW  HW  HW  OW  HW  HW  OW  HW  HW  OW  HW  
HW  OW  HW  HW  OW  HW  HW  OW  HW  HW  OW  HW  HW  OW  HW  HW  OW  HW  HW  OW  
HW  HW  OW  HW  HW  OW  HW  HW  OW  HW  HW  OW  HW  HW  OW  HW  HW  OW  HW  HW  
OW  HW  HW  OW  HW  HW  OW  HW  HW  OW  HW  HW  OW  HW  HW  OW  HW  HW  OW  HW  
HW  OW  HW  HW  OW  HW  HW  OW  HW  HW  OW  HW  HW  OW  HW  HW  OW  HW  HW  OW  
HW  HW  OW  HW  HW  OW  HW  HW  OW  HW  HW  OW  HW  HW  OW  HW  HW  OW  HW  HW  
OW  HW  HW  OW  HW  HW  OW  HW  HW  OW  HW  HW  OW  HW  HW  OW  HW  HW  OW  HW  
HW  OW  HW  HW  OW  HW  HW  OW  HW  HW  OW  HW  HW  OW  HW  HW  OW  HW  HW  OW  
HW  HW  OW  HW  HW  OW  HW  HW  OW  HW  HW  OW  HW  HW  OW  HW  HW  OW  HW  HW  
OW  HW  HW  OW  HW  HW  OW  HW  HW  OW  HW  HW  OW  HW  HW  OW  HW  HW  OW  HW  
HW  OW  HW  HW  OW  HW  HW  OW  HW  HW  OW  HW  HW  OW  HW  HW  OW  HW  HW  OW  
HW  HW  OW  HW  HW  OW  HW  HW  OW  HW  HW  OW  HW  HW  OW  HW  HW  OW  HW  HW  
OW  HW  HW  OW  HW  HW  OW  HW  HW  OW  HW  HW  OW  HW  HW  OW  HW  HW  OW  HW  
HW  OW  HW  HW  OW  HW  HW  OW  HW  HW  OW  HW  HW  OW  HW  HW  OW  HW  HW  OW  
HW  HW  OW  HW  HW  OW  HW  HW  OW  HW  HW  OW  HW  HW  OW  HW  HW  OW  HW  HW  
OW  HW  HW  OW  HW  HW  OW  HW  HW  OW  HW  HW  OW  HW  HW  OW  HW  HW  OW  HW  
HW  OW  HW  HW  OW  HW  HW  OW  HW  HW  OW  HW  HW  OW  HW  HW  OW  HW  HW  OW  
HW  HW  OW  HW  HW  OW  HW  HW  OW  HW  HW  OW  HW  HW  OW  HW  HW  OW  HW  HW  
OW  HW  HW  OW  HW  HW  OW  HW  HW  OW  HW  HW  OW  HW  HW  OW  HW  HW  OW  HW  
HW  OW  HW  HW  OW  HW  HW  OW  HW  HW  OW  HW  HW  OW  HW  HW  OW  HW  HW  OW  
HW  HW  OW  HW  HW  OW  HW  HW  OW  HW  HW  OW  HW  HW  OW  HW  HW  OW  HW  HW  
OW  HW  HW  OW  HW  HW  OW  HW  HW  OW  HW  HW  OW  HW  HW  OW  HW  HW  OW  HW  
HW  OW  HW  HW  OW  HW  HW  OW  HW  HW  OW  HW  HW  OW  HW  HW  OW  HW  HW  OW  
HW  HW  OW  HW  HW  OW  HW  HW  OW  HW  HW  OW  HW  HW  OW  HW  HW  OW  HW  HW  
OW  HW  HW  OW  HW  HW  OW  HW  HW  OW  HW  HW  OW  HW  HW  OW  HW  HW  OW  HW  
HW  OW  HW  HW  OW  HW  HW  OW  HW  HW  OW  HW  HW  OW  HW  HW  OW  HW  HW  OW  
HW  HW  OW  HW  HW  OW  HW  HW  OW  HW  HW  OW  HW  HW  OW  HW  HW  OW  HW  HW  
OW  HW  HW  OW  HW  HW  OW  HW  HW  OW  HW  HW  OW  HW  HW  OW  HW  HW  OW  HW  
HW  OW  HW  HW  OW  HW  HW  OW  HW  HW  OW  HW  HW  OW  HW  HW  OW  HW  HW  OW  
HW  HW  OW  HW  HW  OW  HW  HW  OW  HW  HW  OW  HW  HW  OW  HW  HW  OW  HW  HW  
OW  HW  HW  OW  HW  HW  OW  HW  HW  OW  HW  HW  OW  HW  HW  OW  HW  HW  OW  HW  
HW  OW  HW  HW  OW  HW  HW  OW  HW  HW  OW  HW  HW  OW  HW  HW  OW  HW  HW  OW  
HW  HW  OW  HW  HW  OW  HW  HW  OW  HW  HW  OW  HW  HW  OW  HW  HW  OW  HW  HW  
OW  HW  HW  OW  HW  HW  OW  HW  HW  OW  HW  HW  OW  HW  HW  OW  HW  HW  OW  HW  
HW  OW  HW  HW  OW  HW  HW  OW  HW  HW  OW  HW  HW  OW  HW  HW  OW  HW  HW  OW  
HW  HW  OW  HW  HW  OW  HW  HW  OW  HW  HW  OW  HW  HW  OW  HW  HW  OW  HW  HW  
OW  HW  HW  OW  HW  HW  OW  HW  HW  OW  HW  HW  OW  HW  HW  OW  HW  HW  OW  HW  
HW  OW  HW  HW  OW  HW  HW  OW  HW  HW  OW  HW  HW  OW  HW  HW  OW  HW  HW  OW  
HW  HW  OW  HW  HW  OW  HW  HW  OW  HW  HW  OW  HW  HW  OW  HW  HW  OW  HW  HW  
OW  HW  HW  OW  HW  HW  OW  HW  HW  OW  HW  HW  OW  HW  HW  OW  HW  HW  OW  HW  
HW  OW  HW  HW  OW  HW  HW  OW  HW  HW  OW  HW  HW  OW  HW  HW  OW  HW  HW  OW  
HW  HW  OW  HW  HW  OW  HW  HW  OW  HW  HW  OW  HW  HW  OW  HW  HW  OW  HW  HW  
OW  HW  HW  OW  HW  HW  OW  HW  HW  OW  HW  HW  OW  HW  HW  OW  HW  HW  OW  HW  
HW  OW  HW  HW  OW  HW  HW  OW  HW  HW  OW  HW  HW  OW  HW  HW  OW  HW  HW  OW  
HW  HW  OW  HW  HW  OW  HW  HW  OW  HW  HW  OW  HW  HW  OW  HW  HW  OW  HW  HW  
OW  HW  HW  OW  HW  HW  OW  HW  HW  OW  HW  HW  OW  HW  HW  OW  HW  HW  OW  HW  
HW  OW  HW  HW  OW  HW  HW  OW  HW  HW  OW  HW  HW  OW  HW  HW  OW  HW  HW  OW  
HW  HW  OW  HW  HW  OW  HW  HW  OW  HW  HW  OW  HW  HW  OW  HW  HW  OW  HW  HW  
OW  HW  HW  OW  HW  HW  OW  HW  HW  OW  HW  HW  OW  HW  HW  OW  HW  HW  OW  HW  
HW  OW  HW  HW  OW  HW  HW  OW  HW  HW  OW  HW  HW  OW  HW  HW  OW  HW  HW  OW  
HW  HW  OW  HW  HW  OW  HW  HW  OW  HW  HW  OW  HW  HW  OW  HW  HW  OW  HW  HW  
OW  HW  HW  OW  HW  HW  OW  HW  HW  OW  HW  HW  OW  HW  HW  OW  HW  HW  OW  HW  
HW  OW  HW  HW  OW  HW  HW  OW  HW  HW  OW  HW  HW  OW  HW  HW  OW  HW  HW  OW  
HW  HW  OW  HW  HW  OW  HW  HW  OW  HW  HW  OW  HW  HW  OW  HW  HW  OW  HW  HW  
OW  HW  HW  OW  HW  HW  OW  HW  HW  OW  HW  HW  OW  HW  HW  OW  HW  HW  OW  HW  
HW  OW  HW  HW  OW  HW  HW  OW  HW  HW  OW  HW  HW  OW  HW  HW  OW  HW  HW  OW  
HW  HW  OW  HW  HW  OW  HW  HW  OW  HW  HW  OW  HW  HW  OW  HW  HW  OW  HW  HW  
OW  HW  HW  OW  HW  HW  OW  HW  HW  OW  HW  HW  OW  HW  HW  OW  HW  HW  OW  HW  
HW  OW  HW  HW  OW  HW  HW  OW  HW  HW  OW  HW  HW  OW  HW  HW  OW  HW  HW  OW  
HW  HW  OW  HW  HW  OW  HW  HW  OW  HW  HW  OW  HW  HW  OW  HW  HW  OW  HW  HW  
OW  HW  HW  OW  HW  HW  OW  HW  HW  OW  HW  HW  OW  HW  HW  OW  HW  HW  OW  HW  
HW  OW  HW  HW  OW  HW  HW  OW  HW  HW  OW  HW  HW  OW  HW  HW  OW  HW  HW  OW  
HW  HW  OW  HW  HW  OW  HW  HW  OW  HW  HW  OW  HW  HW  OW  HW  HW  OW  HW  HW  
OW  HW  HW  OW  HW  HW  OW  HW  HW  OW  HW  HW  OW  HW  HW  OW  HW  HW  OW  HW  
HW  OW  HW  HW  OW  HW  HW  OW  HW  HW  OW  HW  HW  OW  HW  HW  OW  HW  HW  OW  
HW  HW  OW  HW  HW  OW  HW  HW  OW  HW  HW  OW  HW  HW  OW  HW  HW  OW  HW  HW  
OW  HW  HW  OW  HW  HW  OW  HW  HW  OW  HW  HW  OW  HW  HW  OW  HW  HW  OW  HW  
HW  OW  HW  HW  OW  HW  HW  OW  HW  HW  OW  HW  HW  OW  HW  HW  OW  HW  HW  OW  
HW  HW  OW  HW  HW  OW  HW  HW  OW  HW  HW  OW  HW  HW  OW  HW  HW  OW  HW  HW  
OW  HW  HW  OW  HW  HW  OW  HW  HW  OW  HW  HW  OW  HW  HW  OW  HW  HW  OW  HW  
HW  OW  HW  HW  OW  HW  HW  OW  HW  HW  OW  HW  HW  OW  HW  HW  OW  HW  HW  OW  
HW  HW  OW  HW  HW  OW  HW  HW  OW  HW  HW  OW  HW  HW  OW  HW  HW  OW  HW  HW  
OW  HW  HW  OW  HW  HW  OW  HW  HW  OW  HW  HW  OW  HW  HW  OW  HW  HW  OW  HW  
HW  OW  HW  HW  OW  HW  HW  OW  HW  HW  OW  HW  HW  OW  HW  HW  OW  HW  HW  OW  
HW  HW  OW  HW  HW  OW  HW  HW  OW  HW  HW  OW  HW  HW  OW  HW  HW  OW  HW  HW  
OW  HW  HW  OW  HW  HW  OW  HW  HW  OW  HW  HW  OW  HW  HW  OW  HW  HW  OW  HW  
HW  OW  HW  HW  OW  HW  HW  OW  HW  HW  OW  HW  HW  OW  HW  HW  OW  HW  HW  OW  
HW  HW  OW  HW  HW  OW  HW  HW  OW  HW  HW  OW  HW  HW  OW  HW  HW  OW  HW  HW  
OW  HW  HW  OW  HW  HW  OW  HW  HW  OW  HW  HW  OW  HW  HW  OW  HW  HW  OW  HW  
HW  OW  HW  HW  OW  HW  HW  OW  HW  HW  OW  HW  HW  OW  HW  HW  OW  HW  HW  OW  
HW  HW  OW  HW  HW  OW  HW  HW  OW  HW  HW  OW  HW  HW  OW  HW  HW  OW  HW  HW  
OW  HW  HW  OW  HW  HW  OW  HW  HW  OW  HW  HW  OW  HW  HW  OW  HW  HW  OW  HW  
HW  OW  HW  HW  OW  HW  HW  OW  HW  HW  OW  HW  HW  OW  HW  HW  OW  HW  HW  OW  
HW  HW  OW  HW  HW  OW  HW  HW  OW  HW  HW  OW  HW  HW  OW  HW  HW  OW  HW  HW  
OW  HW  HW  OW  HW  HW  OW  HW  HW  OW  HW  HW  OW  HW  HW  OW  HW  HW  OW  HW  
HW  OW  HW  HW  OW  HW  HW  OW  HW  HW  OW  HW  HW  OW  HW  HW  OW  HW  HW  OW  
HW  HW  OW  HW  HW  OW  HW  HW  OW  HW  HW  OW  HW  HW  OW  HW  HW  OW  HW  HW  
OW  HW  HW  OW  HW  HW  OW  HW  HW  OW  HW  HW  OW  HW  HW  OW  HW  HW  OW  HW  
HW  OW  HW  HW  OW  HW  HW  OW  HW  HW  OW  HW  HW  OW  HW  HW  OW  HW  HW  OW  
HW  HW  OW  HW  HW  OW  HW  HW  OW  HW  HW  OW  HW  HW  OW  HW  HW  OW  HW  HW  
OW  HW  HW  OW  HW  HW  OW  HW  HW  OW  HW  HW  OW  HW  HW  OW  HW  HW  OW  HW  
HW  OW  HW  HW  OW  HW  HW  OW  HW  HW  OW  HW  HW  OW  HW  HW  OW  HW  HW  OW  
HW  HW  OW  HW  HW  OW  HW  HW  OW  HW  HW  OW  HW  HW  OW  HW  HW  OW  HW  HW  
OW  HW  HW  OW  HW  HW  OW  HW  HW  OW  HW  HW  OW  HW  HW  OW  HW  HW  OW  HW  
HW  OW  HW  HW  OW  HW  HW  OW  HW  HW  OW  HW  HW  OW  HW  HW  OW  HW  HW  OW  
HW  HW  OW  HW  HW  OW  HW  HW  OW  HW  HW  OW  HW  HW  OW  HW  HW  OW  HW  HW  
OW  HW  HW  OW  HW  HW  OW  HW  HW  OW  HW  HW  OW  HW  HW  OW  HW  HW  OW  HW  
HW  OW  HW  HW  OW  HW  HW  OW  HW  HW  OW  HW  HW  OW  HW  HW  OW  HW  HW  OW  
HW  HW  OW  HW  HW  OW  HW  HW  OW  HW  HW  OW  HW  HW  OW  HW  HW  OW  HW  HW  
OW  HW  HW  OW  HW  HW  OW  HW  HW  OW  HW  HW  OW  HW  HW  OW  HW  HW  OW  HW  
HW  OW  HW  HW  OW  HW  HW  OW  HW  HW  OW  HW  HW  OW  HW  HW  OW  HW  HW  OW  
HW  HW  OW  HW  HW  OW  HW  HW  OW  HW  HW  OW  HW  HW  OW  HW  HW  OW  HW  HW  
OW  HW  HW  OW  HW  HW  OW  HW  HW  OW  HW  HW  OW  HW  HW  OW  HW  HW  OW  HW  
HW  OW  HW  HW  OW  HW  HW  OW  HW  HW  OW  HW  HW  OW  HW  HW  OW  HW  HW  OW  
HW  HW  OW  HW  HW  OW  HW  HW  OW  HW  HW  OW  HW  HW  OW  HW  HW  OW  HW  HW  
OW  HW  HW  OW  HW  HW  OW  HW  HW  OW  HW  HW  OW  HW  HW  OW  HW  HW  OW  HW  
HW  OW  HW  HW  OW  HW  HW  OW  HW  HW  OW  HW  HW  OW  HW  HW  OW  HW  HW  OW  
HW  HW  OW  HW  HW  OW  HW  HW  OW  HW  HW  OW  HW  HW  OW  HW  HW  OW  HW  HW  
OW  HW  HW  OW  HW  HW  OW  HW  HW  OW  HW  HW  OW  HW  HW  OW  HW  HW  OW  HW  
HW  OW  HW  HW  OW  HW  HW  OW  HW  HW  OW  HW  HW  OW  HW  HW  OW  HW  HW  OW  
HW  HW  OW  HW  HW  OW  HW  HW  OW  HW  HW  OW  HW  HW  OW  HW  HW  OW  HW  HW  
OW  HW  HW  OW  HW  HW  OW  HW  HW  OW  HW  HW  OW  HW  HW  OW  HW  HW  OW  HW  
HW  OW  HW  HW  OW  HW  HW  OW  HW  HW  OW  HW  HW  OW  HW  HW  OW  HW  HW  OW  
HW  HW  OW  HW  HW  OW  HW  HW  OW  HW  HW  OW  HW  HW  OW  HW  HW  OW  HW  HW  
OW  HW  HW  OW  HW  HW  OW  HW  HW  OW  HW  HW  OW  HW  HW  OW  HW  HW  OW  HW  
HW  OW  HW  HW  OW  HW  HW  OW  HW  HW  OW  HW  HW  OW  HW  HW  OW  HW  HW  OW  
HW  HW  OW  HW  HW  OW  HW  HW  OW  HW  HW  OW  HW  HW  OW  HW  HW  OW  HW  HW  
OW  HW  HW  OW  HW  HW  OW  HW  HW  OW  HW  HW  OW  HW  HW  OW  HW  HW  OW  HW  
HW  OW  HW  HW  OW  HW  HW  OW  HW  HW  OW  HW  HW  OW  HW  HW  OW  HW  HW  OW  
HW  HW  OW  HW  HW  OW  HW  HW  OW  HW  HW  OW  HW  HW  OW  HW  HW  OW  HW  HW  
OW  HW  HW  OW  HW  HW  OW  HW  HW  OW  HW  HW  OW  HW  HW  OW  HW  HW  OW  HW  
HW  OW  HW  HW  OW  HW  HW  OW  HW  HW  OW  HW  HW  OW  HW  HW  OW  HW  HW  OW  
HW  HW  OW  HW  HW  OW  HW  HW  OW  HW  HW  OW  HW  HW  OW  HW  HW  OW  HW  HW  
OW  HW  HW  OW  HW  HW  OW  HW  HW  OW  HW  HW  OW  HW  HW  OW  HW  HW  OW  HW  
HW  OW  HW  HW  OW  HW  HW  OW  HW  HW  OW  HW  HW  OW  HW  HW  OW  HW  HW  OW  
HW  HW  OW  HW  HW  OW  HW  HW  OW  HW  HW  OW  HW  HW  OW  HW  HW  OW  HW  HW  
OW  HW  HW  OW  HW  HW  OW  HW  HW  OW  HW  HW  OW  HW  HW  OW  HW  HW  OW  HW  
HW  OW  HW  HW  OW  HW  HW  OW  HW  HW  OW  HW  HW  OW  HW  HW  OW  HW  HW  OW  
HW  HW  OW  HW  HW  OW  HW  HW  OW  HW  HW  OW  HW  HW  OW  HW  HW  OW  HW  HW  
OW  HW  HW  OW  HW  HW  OW  HW  HW  OW  HW  HW  OW  HW  HW  OW  HW  HW  OW  HW  
HW  OW  HW  HW  OW  HW  HW  OW  HW  HW  OW  HW  HW  OW  HW  HW  OW  HW  HW  OW  
HW  HW  OW  HW  HW  OW  HW  HW  OW  HW  HW  OW  HW  HW  OW  HW  HW  OW  HW  HW  
OW  HW  HW  OW  HW  HW  OW  HW  HW  OW  HW  HW  OW  HW  HW  OW  HW  HW  OW  HW  
HW  OW  HW  HW  OW  HW  HW  OW  HW  HW  OW  HW  HW  OW  HW  HW  OW  HW  HW  OW  
HW  HW  OW  HW  HW  OW  HW  HW  OW  HW  HW  OW  HW  HW  OW  HW  HW  OW  HW  HW  
OW  HW  HW  OW  HW  HW  OW  HW  HW  OW  HW  HW  OW  HW  HW  OW  HW  HW  OW  HW  
HW  OW  HW  HW  OW  HW  HW  OW  HW  HW  OW  HW  HW  OW  HW  HW  OW  HW  HW  OW  
HW  HW  OW  HW  HW  OW  HW  HW  OW  HW  HW  OW  HW  HW  OW  HW  HW  OW  HW  HW  
OW  HW  HW  OW  HW  HW  OW  HW  HW  OW  HW  HW  OW  HW  HW  OW  HW  HW  OW  HW  
HW  OW  HW  HW  OW  HW  HW  OW  HW  HW  OW  HW  HW  OW  HW  HW  OW  HW  HW  OW  
HW  HW  OW  HW  HW  OW  HW  HW  OW  HW  HW  OW  HW  HW  OW  HW  HW  OW  HW  HW  
OW  HW  HW  OW  HW  HW  OW  HW  HW  OW  HW  HW  OW  HW  HW  OW  HW  HW  OW  HW  
HW  OW  HW  HW  OW  HW  HW  OW  HW  HW  OW  HW  HW  OW  HW  HW  OW  HW  HW  OW  
HW  HW  OW  HW  HW  OW  HW  HW  OW  HW  HW  OW  HW  HW  OW  HW  HW  OW  HW  HW  
OW  HW  HW  OW  HW  HW  OW  HW  HW  OW  HW  HW  OW  HW  HW  OW  HW  HW  OW  HW  
HW  OW  HW  HW  OW  HW  HW  OW  HW  HW  OW  HW  HW  OW  HW  HW  OW  HW  HW  OW  
HW  HW  OW  HW  HW  OW  HW  HW  OW  HW  HW  OW  HW  HW  OW  HW  HW  OW  HW  HW  
OW  HW  HW  OW  HW  HW  OW  HW  HW  OW  HW  HW  OW  HW  HW  OW  HW  HW  OW  HW  
HW  OW  HW  HW  OW  HW  HW  OW  HW  HW  OW  HW  HW  OW  HW  HW  OW  HW  HW  OW  
HW  HW  OW  HW  HW  OW  HW  HW  OW  HW  HW  OW  HW  HW  OW  HW  HW  OW  HW  HW  
OW  HW  HW  OW  HW  HW  OW  HW  HW  OW  HW  HW  OW  HW  HW  OW  HW  HW  OW  HW  
HW  OW  HW  HW  OW  HW  HW  OW  HW  HW  OW  HW  HW  OW  HW  HW  OW  HW  HW  OW  
HW  HW  OW  HW  HW  OW  HW  HW  OW  HW  HW  OW  HW  HW  OW  HW  HW  OW  HW  HW  
OW  HW  HW  OW  HW  HW  OW  HW  HW  OW  HW  HW  OW  HW  HW  OW  HW  HW  OW  HW  
HW  OW  HW  HW  OW  HW  HW  OW  HW  HW  OW  HW  HW  OW  HW  HW  OW  HW  HW  OW  
HW  HW  OW  HW  HW  OW  HW  HW  OW  HW  HW  OW  HW  HW  OW  HW  HW  OW  HW  HW  
OW  HW  HW  OW  HW  HW  OW  HW  HW  OW  HW  HW  OW  HW  HW  OW  HW  HW  OW  HW  
HW  OW  HW  HW  OW  HW  HW  OW  HW  HW  OW  HW  HW  OW  HW  HW  OW  HW  HW  OW  
HW  HW  OW  HW  HW  OW  HW  HW  OW  HW  HW  OW  HW  HW  OW  HW  HW  OW  HW  HW  
OW  HW  HW  OW  HW  HW  OW  HW  HW  OW  HW  HW  OW  HW  HW  OW  HW  HW  OW  HW  
HW  OW  HW  HW  OW  HW  HW  OW  HW  HW  OW  HW  HW  OW  HW  HW  OW  HW  HW  OW  
HW  HW  OW  HW  HW  OW  HW  HW  OW  HW  HW  OW  HW  HW  OW  HW  HW  OW  HW  HW  
OW  HW  HW  OW  HW  HW  OW  HW  HW  OW  HW  HW  OW  HW  HW  OW  HW  HW  OW  HW  
HW  OW  HW  HW  OW  HW  HW  OW  HW  HW  OW  HW  HW  OW  HW  HW  OW  HW  HW  OW  
HW  HW  OW  HW  HW  OW  HW  HW  OW  HW  HW  OW  HW  HW  OW  HW  HW  OW  HW  HW  
OW  HW  HW  OW  HW  HW  OW  HW  HW  OW  HW  HW  OW  HW  HW  OW  HW  HW  OW  HW  
HW  OW  HW  HW  OW  HW  HW  OW  HW  HW  OW  HW  HW  OW  HW  HW  OW  HW  HW  OW  
HW  HW  OW  HW  HW  OW  HW  HW  OW  HW  HW  OW  HW  HW  OW  HW  HW  OW  HW  HW  
OW  HW  HW  OW  HW  HW  OW  HW  HW  OW  HW  HW  OW  HW  HW  OW  HW  HW  OW  HW  
HW  OW  HW  HW  OW  HW  HW  OW  HW  HW  OW  HW  HW  OW  HW  HW  OW  HW  HW  OW  
HW  HW  OW  HW  HW  OW  HW  HW  OW  HW  HW  OW  HW  HW  OW  HW  HW  OW  HW  HW  
OW  HW  HW  OW  HW  HW  OW  HW  HW  OW  HW  HW  OW  HW  HW  OW  HW  HW  OW  HW  
HW  OW  HW  HW  OW  HW  HW  OW  HW  HW  OW  HW  HW  OW  HW  HW  OW  HW  HW  OW  
HW  HW  OW  HW  HW  OW  HW  HW  OW  HW  HW  OW  HW  HW  OW  HW  HW  OW  HW  HW  
OW  HW  HW  OW  HW  HW  OW  HW  HW  OW  HW  HW  OW  HW  HW  OW  HW  HW  OW  HW  
HW  OW  HW  HW  OW  HW  HW  OW  HW  HW  OW  HW  HW  OW  HW  HW  OW  HW  HW  OW  
HW  HW  OW  HW  HW  OW  HW  HW  OW  HW  HW  OW  HW  HW  OW  HW  HW  OW  HW  HW  
OW  HW  HW  OW  HW  HW  OW  HW  HW  OW  HW  HW  OW  HW  HW  OW  HW  HW  OW  HW  
HW  OW  HW  HW  OW  HW  HW  OW  HW  HW  OW  HW  HW  OW  HW  HW  OW  HW  HW  OW  
HW  HW  OW  HW  HW  OW  HW  HW  OW  HW  HW  OW  HW  HW  OW  HW  HW  OW  HW  HW  
OW  HW  HW  OW  HW  HW  OW  HW  HW  OW  HW  HW  OW  HW  HW  OW  HW  HW  OW  HW  
HW  OW  HW  HW  OW  HW  HW  OW  HW  HW  OW  HW  HW  OW  HW  HW  OW  HW  HW  OW  
HW  HW  OW  HW  HW  OW  HW  HW  OW  HW  HW  OW  HW  HW  OW  HW  HW  OW  HW  HW  
OW  HW  HW  OW  HW  HW  OW  HW  HW  OW  HW  HW  OW  HW  HW  OW  HW  HW  OW  HW  
HW  OW  HW  HW  OW  HW  HW  OW  HW  HW  OW  HW  HW  OW  HW  HW  OW  HW  HW  OW  
HW  HW  OW  HW  HW  OW  HW  HW  OW  HW  HW  OW  HW  HW  OW  HW  HW  OW  HW  HW  
OW  HW  HW  OW  HW  HW  OW  HW  HW  OW  HW  HW  OW  HW  HW  OW  HW  HW  OW  HW  
HW  OW  HW  HW  OW  HW  HW  OW  HW  HW  OW  HW  HW  OW  HW  HW  OW  HW  HW  OW  
HW  HW  OW  HW  HW  OW  HW  HW  OW  HW  HW  OW  HW  HW  OW  HW  HW  OW  HW  HW  
OW  HW  HW  OW  HW  HW  OW  HW  HW  OW  HW  HW  OW  HW  HW  OW  HW  HW  OW  HW  
HW  OW  HW  HW  OW  HW  HW  OW  HW  HW  OW  HW  HW  OW  HW  HW  OW  HW  HW  OW  
HW  HW  OW  HW  HW  OW  HW  HW  OW  HW  HW  OW  HW  HW  OW  HW  HW  OW  HW  HW  
OW  HW  HW  OW  HW  HW  OW  HW  HW  OW  HW  HW  OW  HW  HW  OW  HW  HW  OW  HW  
HW  OW  HW  HW  OW  HW  HW  OW  HW  HW  OW  HW  HW  OW  HW  HW  OW  HW  HW  OW  
HW  HW  OW  HW  HW  OW  HW  HW  OW  HW  HW  OW  HW  HW  OW  HW  HW  OW  HW  HW  
OW  HW  HW  OW  HW  HW  OW  HW  HW  OW  HW  HW  OW  HW  HW  OW  HW  HW  OW  HW  
HW  OW  HW  HW  OW  HW  HW  OW  HW  HW  OW  HW  HW  OW  HW  HW  OW  HW  HW  OW  
HW  HW  OW  HW  HW  OW  HW  HW  OW  HW  HW  OW  HW  HW  OW  HW  HW  OW  HW  HW  
OW  HW  HW  OW  HW  HW  OW  HW  HW  OW  HW  HW  OW  HW  HW  OW  HW  HW  OW  HW  
HW  OW  HW  HW  OW  HW  HW  OW  HW  HW  OW  HW  HW  OW  HW  HW  OW  HW  HW  OW  
HW  HW  OW  HW  HW  OW  HW  HW  OW  HW  HW  OW  HW  HW  OW  HW  HW  OW  HW  HW  
OW  HW  HW  OW  HW  HW  OW  HW  HW  OW  HW  HW  OW  HW  HW  OW  HW  HW  OW  HW  
HW  OW  HW  HW  OW  HW  HW  OW  HW  HW  OW  HW  HW  OW  HW  HW  OW  HW  HW  OW  
HW  HW  OW  HW  HW  OW  HW  HW  OW  HW  HW  OW  HW  HW  OW  HW  HW  OW  HW  HW  
OW  HW  HW  OW  HW  HW  OW  HW  HW  OW  HW  HW  OW  HW  HW  OW  HW  HW  OW  HW  
HW  OW  HW  HW  OW  HW  HW  OW  HW  HW  OW  HW  HW  OW  HW  HW  OW  HW  HW  OW  
HW  HW  OW  HW  HW  OW  HW  HW  OW  HW  HW  OW  HW  HW  OW  HW  HW  OW  HW  HW  
OW  HW  HW  OW  HW  HW  OW  HW  HW  OW  HW  HW  OW  HW  HW  OW  HW  HW  OW  HW  
HW  OW  HW  HW  OW  HW  HW  OW  HW  HW  OW  HW  HW  OW  HW  HW  OW  HW  HW  OW  
HW  HW  OW  HW  HW  OW  HW  HW  OW  HW  HW  OW  HW  HW  OW  HW  HW  OW  HW  HW  
OW  HW  HW  OW  HW  HW  OW  HW  HW  OW  HW  HW  OW  HW  HW  OW  HW  HW  OW  HW  
HW  OW  HW  HW  OW  HW  HW  OW  HW  HW  OW  HW  HW  OW  HW  HW  OW  HW  HW  OW  
HW  HW  OW  HW  HW  OW  HW  HW  OW  HW  HW  OW  HW  HW  OW  HW  HW  OW  HW  HW  
OW  HW  HW  OW  HW  HW  OW  HW  HW  OW  HW  HW  OW  HW  HW  OW  HW  HW  OW  HW  
HW  OW  HW  HW  OW  HW  HW  OW  HW  HW  OW  HW  HW  OW  HW  HW  OW  HW  HW  OW  
HW  HW  OW  HW  HW  OW  HW  HW  OW  HW  HW  OW  HW  HW  OW  HW  HW  OW  HW  HW  
OW  HW  HW  OW  HW  HW  OW  HW  HW  OW  HW  HW  OW  HW  HW  OW  HW  HW  OW  HW  
HW  OW  HW  HW  OW  HW  HW  OW  HW  HW  OW  HW  HW  OW  HW  HW  OW  HW  HW  OW  
HW  HW  OW  HW  HW  OW  HW  HW  OW  HW  HW  OW  HW  HW  OW  HW  HW  OW  HW  HW  
OW  HW  HW  OW  HW  HW  OW  HW  HW  OW  HW  HW  OW  HW  HW  OW  HW  HW  OW  HW  
HW  OW  HW  HW  OW  HW  HW  OW  HW  HW  OW  HW  HW  OW  HW  HW  OW  HW  HW  OW  
HW  HW  OW  HW  HW  OW  HW  HW  OW  HW  HW  OW  HW  HW  OW  HW  HW  OW  HW  HW  
OW  HW  HW  OW  HW  HW  OW  HW  HW  OW  HW  HW  OW  HW  HW  OW  HW  HW  OW  HW  
HW  OW  HW  HW  OW  HW  HW  OW  HW  HW  OW  HW  HW  OW  HW  HW  OW  HW  HW  OW  
HW  HW  OW  HW  HW  OW  HW  HW  OW  HW  HW  OW  HW  HW  OW  HW  HW  OW  HW  HW  
OW  HW  HW  OW  HW  HW  OW  HW  HW  OW  HW  HW  OW  HW  HW  OW  HW  HW  OW  HW  
HW  OW  HW  HW  OW  HW  HW  OW  HW  HW  OW  HW  HW  OW  HW  HW  OW  HW  HW  OW  
HW  HW  OW  HW  HW  OW  HW  HW  OW  HW  HW  OW  HW  HW  OW  HW  HW  OW  HW  HW  
OW  HW  HW  OW  HW  HW  OW  HW  HW  OW  HW  HW  OW  HW  HW  OW  HW  HW  OW  HW  
HW  OW  HW  HW  OW  HW  HW  OW  HW  HW  OW  HW  HW  OW  HW  HW  OW  HW  HW  OW  
HW  HW  OW  HW  HW  OW  HW  HW  OW  HW  HW  OW  HW  HW  OW  HW  HW  OW  HW  HW  
OW  HW  HW  OW  HW  HW  OW  HW  HW  OW  HW  HW  OW  HW  HW  OW  HW  HW  OW  HW  
HW  OW  HW  HW  OW  HW  HW  OW  HW  HW  OW  HW  HW  OW  HW  HW  OW  HW  HW  OW  
HW  HW  OW  HW  HW  OW  HW  HW  OW  HW  HW  OW  HW  HW  OW  HW  HW  OW  HW  HW  
OW  HW  HW  OW  HW  HW  OW  HW  HW  OW  HW  HW  OW  HW  HW  OW  HW  HW  OW  HW  
HW  OW  HW  HW  OW  HW  HW  OW  HW  HW  OW  HW  HW  OW  HW  HW  OW  HW  HW  OW  
HW  HW  OW  HW  HW  OW  HW  HW  OW  HW  HW  OW  HW  HW  OW  HW  HW  OW  HW  HW  
OW  HW  HW  OW  HW  HW  OW  HW  HW  OW  HW  HW  OW  HW  HW  OW  HW  HW  OW  HW  
HW  OW  HW  HW  OW  HW  HW  OW  HW  HW  OW  HW  HW  OW  HW  HW  OW  HW  HW  OW  
HW  HW  OW  HW  HW  OW  HW  HW  OW  HW  HW  OW  HW  HW  OW  HW  HW  OW  HW  HW  
OW  HW  HW  OW  HW  HW  OW  HW  HW  OW  HW  HW  OW  HW  HW  OW  HW  HW  OW  HW  
HW  OW  HW  HW  OW  HW  HW  OW  HW  HW  OW  HW  HW  OW  HW  HW  OW  HW  HW  OW  
HW  HW  OW  HW  HW  OW  HW  HW  OW  HW  HW  OW  HW  HW  OW  HW  HW  OW  HW  HW  
OW  HW  HW  OW  HW  HW  OW  HW  HW  OW  HW  HW  OW  HW  HW  OW  HW  HW  OW  HW  
HW  OW  HW  HW  OW  HW  HW  OW  HW  HW  OW  HW  HW  OW  HW  HW  OW  HW  HW  OW  
HW  HW  OW  HW  HW  OW  HW  HW  OW  HW  HW  OW  HW  HW  OW  HW  HW  OW  HW  HW  
OW  HW  HW  OW  HW  HW  OW  HW  HW  OW  HW  HW  OW  HW  HW  OW  HW  HW  OW  HW  
HW  OW  HW  HW  OW  HW  HW  OW  HW  HW  OW  HW  HW  OW  HW  HW  OW  HW  HW  OW  
HW  HW  OW  HW  HW  OW  HW  HW  OW  HW  HW  OW  HW  HW  OW  HW  HW  OW  HW  HW  
OW  HW  HW  OW  HW  HW  OW  HW  HW  OW  HW  HW  OW  HW  HW  OW  HW  HW  OW  HW  
HW  OW  HW  HW  OW  HW  HW  OW  HW  HW  OW  HW  HW  OW  HW  HW  OW  HW  HW  OW  
HW  HW  OW  HW  HW  OW  HW  HW  OW  HW  HW  OW  HW  HW  OW  HW  HW  OW  HW  HW  
OW  HW  HW  OW  HW  HW  OW  HW  HW  OW  HW  HW  OW  HW  HW  OW  HW  HW  OW  HW  
HW  OW  HW  HW  OW  HW  HW  OW  HW  HW  OW  HW  HW  OW  HW  HW  OW  HW  HW  OW  
HW  HW  OW  HW  HW  OW  HW  HW  OW  HW  HW  OW  HW  HW  OW  HW  HW  OW  HW  HW  
OW  HW  HW  OW  HW  HW  OW  HW  HW  OW  HW  HW  OW  HW  HW  OW  HW  HW  OW  HW  
HW  OW  HW  HW  OW  HW  HW  OW  HW  HW  OW  HW  HW  OW  HW  HW  OW  HW  HW  OW  
HW  HW  OW  HW  HW  OW  HW  HW  OW  HW  HW  OW  HW  HW  OW  HW  HW  OW  HW  HW  
OW  HW  HW  OW  HW  HW  OW  HW  HW  OW  HW  HW  OW  HW  HW  OW  HW  HW  OW  HW  
HW  OW  HW  HW  OW  HW  HW  OW  HW  HW  OW  HW  HW  OW  HW  HW  OW  HW  HW  OW  
HW  HW  OW  HW  HW  OW  HW  HW  OW  HW  HW  OW  HW  HW  OW  HW  HW  OW  HW  HW  
OW  HW  HW  OW  HW  HW  OW  HW  HW  OW  HW  HW  OW  HW  HW  OW  HW  HW  OW  HW  
HW  OW  HW  HW  OW  HW  HW  OW  HW  HW  OW  HW  HW  OW  HW  HW  OW  HW  HW  OW  
HW  HW  OW  HW  HW  OW  HW  HW  OW  HW  HW  OW  HW  HW  OW  HW  HW  OW  HW  HW  
OW  HW  HW  OW  HW  HW  OW  HW  HW  OW  HW  HW  OW  HW  HW  OW  HW  HW  OW  HW  
HW  OW  HW  HW  OW  HW  HW  OW  HW  HW  OW  HW  HW  OW  HW  HW  OW  HW  HW  OW  
HW  HW  OW  HW  HW  OW  HW  HW  OW  HW  HW  OW  HW  HW  OW  HW  HW  OW  HW  HW  
OW  HW  HW  OW  HW  HW  OW  HW  HW  OW  HW  HW  OW  HW  HW  OW  HW  HW  OW  HW  
HW  OW  HW  HW  OW  HW  HW  OW  HW  HW  OW  HW  HW  OW  HW  HW  OW  HW  HW  OW  
HW  HW  OW  HW  HW  OW  HW  HW  OW  HW  HW  OW  HW  HW  OW  HW  HW  OW  HW  HW  
OW  HW  HW  OW  HW  HW  OW  HW  HW  OW  HW  HW  OW  HW  HW  OW  HW  HW  OW  HW  
HW  OW  HW  HW  OW  HW  HW  OW  HW  HW  OW  HW  HW  OW  HW  HW  OW  HW  HW  OW  
HW  HW  OW  HW  HW  OW  HW  HW  OW  HW  HW  OW  HW  HW  OW  HW  HW  OW  HW  HW  
OW  HW  HW  OW  HW  HW  OW  HW  HW  OW  HW  HW  OW  HW  HW  OW  HW  HW  OW  HW  
HW  OW  HW  HW  OW  HW  HW  OW  HW  HW  OW  HW  HW  OW  HW  HW  OW  HW  HW  OW  
HW  HW  OW  HW  HW  OW  HW  HW  OW  HW  HW  OW  HW  HW  OW  HW  HW  OW  HW  HW  
OW  HW  HW  OW  HW  HW  OW  HW  HW  OW  HW  HW  OW  HW  HW  OW  HW  HW  OW  HW  
HW  OW  HW  HW  OW  HW  HW  OW  HW  HW  OW  HW  HW  OW  HW  HW  OW  HW  HW  OW  
HW  HW  OW  HW  HW  OW  HW  HW  OW  HW  HW  OW  HW  HW  OW  HW  HW  OW  HW  HW  
OW  HW  HW  OW  HW  HW  OW  HW  HW  OW  HW  HW  OW  HW  HW  OW  HW  HW  OW  HW  
HW  OW  HW  HW  OW  HW  HW  OW  HW  HW  OW  HW  HW  OW  HW  HW  OW  HW  HW  OW  
HW  HW  OW  HW  HW  OW  HW  HW  OW  HW  HW  OW  HW  HW  OW  HW  HW  OW  HW  HW  
OW  HW  HW  OW  HW  HW  OW  HW  HW  OW  HW  HW  OW  HW  HW  OW  HW  HW  OW  HW  
HW  OW  HW  HW  OW  HW  HW  OW  HW  HW  OW  HW  HW  OW  HW  HW  OW  HW  HW  OW  
HW  HW  OW  HW  HW  OW  HW  HW  OW  HW  HW  OW  HW  HW  OW  HW  HW  OW  HW  HW  
OW  HW  HW  OW  HW  HW  OW  HW  HW  OW  HW  HW  OW  HW  HW  OW  HW  HW  OW  HW  
HW  OW  HW  HW  OW  HW  HW  OW  HW  HW  OW  HW  HW  OW  HW  HW  OW  HW  HW  OW  
HW  HW  OW  HW  HW  OW  HW  HW  OW  HW  HW  OW  HW  HW  OW  HW  HW  OW  HW  HW  
OW  HW  HW  OW  HW  HW  OW  HW  HW  OW  HW  HW  OW  HW  HW  OW  HW  HW  OW  HW  
HW  OW  HW  HW  OW  HW  HW  OW  HW  HW  OW  HW  HW  OW  HW  HW  OW  HW  HW  OW  
HW  HW  OW  HW  HW  OW  HW  HW  OW  HW  HW  OW  HW  HW  OW  HW  HW  OW  HW  HW  
OW  HW  HW  OW  HW  HW  OW  HW  HW  OW  HW  HW  OW  HW  HW  OW  HW  HW  OW  HW  
HW  OW  HW  HW  OW  HW  HW  OW  HW  HW  OW  HW  HW  OW  HW  HW  OW  HW  HW  OW  
HW  HW  OW  HW  HW  OW  HW  HW  OW  HW  HW  OW  HW  HW  OW  HW  HW  OW  HW  HW  
OW  HW  HW  OW  HW  HW  OW  HW  HW  OW  HW  HW  OW  HW  HW  OW  HW  HW  OW  HW  
HW  OW  HW  HW  OW  HW  HW  OW  HW  HW  OW  HW  HW  OW  HW  HW  OW  HW  HW  OW  
HW  HW  OW  HW  HW  OW  HW  HW  OW  HW  HW  OW  HW  HW  OW  HW  HW  OW  HW  HW  
OW  HW  HW  OW  HW  HW  OW  HW  HW  OW  HW  HW  OW  HW  HW  OW  HW  HW  OW  HW  
HW  OW  HW  HW  OW  HW  HW  OW  HW  HW  OW  HW  HW  OW  HW  HW  OW  HW  HW  OW  
HW  HW  OW  HW  HW  OW  HW  HW  OW  HW  HW  OW  HW  HW  OW  HW  HW  OW  HW  HW  
OW  HW  HW  OW  HW  HW  OW  HW  HW  OW  HW  HW  OW  HW  HW  OW  HW  HW  OW  HW  
HW  OW  HW  HW  OW  HW  HW  OW  HW  HW  OW  HW  HW  OW  HW  HW  OW  HW  HW  OW  
HW  HW  OW  HW  HW  OW  HW  HW  OW  HW  HW  OW  HW  HW  OW  HW  HW  OW  HW  HW  
OW  HW  HW  OW  HW  HW  OW  HW  HW  OW  HW  HW  OW  HW  HW  OW  HW  HW  OW  HW  
HW  OW  HW  HW  OW  HW  HW  OW  HW  HW  OW  HW  HW  OW  HW  HW  OW  HW  HW  OW  
HW  HW  OW  HW  HW  OW  HW  HW  OW  HW  HW  OW  HW  HW  OW  HW  HW  OW  HW  HW  
OW  HW  HW  OW  HW  HW  OW  HW  HW  OW  HW  HW  OW  HW  HW  OW  HW  HW  OW  HW  
HW  OW  HW  HW  OW  HW  HW  OW  HW  HW  OW  HW  HW  OW  HW  HW  OW  HW  HW  OW  
HW  HW  OW  HW  HW  OW  HW  HW  OW  HW  HW  OW  HW  HW  OW  HW  HW  OW  HW  HW  
OW  HW  HW  OW  HW  HW  OW  HW  HW  OW  HW  HW  OW  HW  HW  OW  HW  HW  OW  HW  
HW  OW  HW  HW  OW  HW  HW  OW  HW  HW  OW  HW  HW  OW  HW  HW  OW  HW  HW  OW  
HW  HW  OW  HW  HW  OW  HW  HW  OW  HW  HW  OW  HW  HW  OW  HW  HW  OW  HW  HW  
OW  HW  HW  OW  HW  HW  OW  HW  HW  OW  HW  HW  OW  HW  HW  OW  HW  HW  OW  HW  
HW  OW  HW  HW  OW  HW  HW  OW  HW  HW  OW  HW  HW  OW  HW  HW  OW  HW  HW  OW  
HW  HW  OW  HW  HW  OW  HW  HW  OW  HW  HW  OW  HW  HW  OW  HW  HW  OW  HW  HW  
OW  HW  HW  OW  HW  HW  OW  HW  HW  OW  HW  HW  OW  HW  HW  OW  HW  HW  OW  HW  
HW  OW  HW  HW  OW  HW  HW  OW  HW  HW  OW  HW  HW  OW  HW  HW  OW  HW  HW  OW  
HW  HW  OW  HW  HW  OW  HW  HW  OW  HW  HW  OW  HW  HW  OW  HW  HW  OW  HW  HW  
OW  HW  HW  OW  HW  HW  OW  HW  HW  OW  HW  HW  OW  HW  HW  OW  HW  HW  OW  HW  
HW  OW  HW  HW  OW  HW  HW  OW  HW  HW  OW  HW  HW  OW  HW  HW  OW  HW  HW  OW  
HW  HW  OW  HW  HW  OW  HW  HW  OW  HW  HW  OW  HW  HW  OW  HW  HW  OW  HW  HW  
OW  HW  HW  OW  HW  HW  OW  HW  HW  OW  HW  HW  OW  HW  HW  OW  HW  HW  OW  HW  
HW  OW  HW  HW  OW  HW  HW  OW  HW  HW  OW  HW  HW  OW  HW  HW  OW  HW  HW  OW  
HW  HW  OW  HW  HW  OW  HW  HW  OW  HW  HW  OW  HW  HW  OW  HW  HW  OW  HW  HW  
OW  HW  HW  OW  HW  HW  OW  HW  HW  OW  HW  HW  OW  HW  HW  OW  HW  HW  OW  HW  
HW  OW  HW  HW  OW  HW  HW  OW  HW  HW  OW  HW  HW  OW  HW  HW  OW  HW  HW  OW  
HW  HW  OW  HW  HW  OW  HW  HW  OW  HW  HW  OW  HW  HW  OW  HW  HW  OW  HW  HW  
OW  HW  HW  OW  HW  HW  OW  HW  HW  OW  HW  HW  OW  HW  HW  OW  HW  HW  OW  HW  
HW  OW  HW  HW  OW  HW  HW  OW  HW  HW  OW  HW  HW  OW  HW  HW  OW  HW  HW  OW  
HW  HW  OW  HW  HW  OW  HW  HW  OW  HW  HW  OW  HW  HW  OW  HW  HW  OW  HW  HW  
OW  HW  HW  OW  HW  HW  OW  HW  HW  OW  HW  HW  OW  HW  HW  OW  HW  HW  OW  HW  
HW  OW  HW  HW  OW  HW  HW  OW  HW  HW  OW  HW  HW  OW  HW  HW  OW  HW  HW  OW  
HW  HW  OW  HW  HW  OW  HW  HW  OW  HW  HW  OW  HW  HW  OW  HW  HW  OW  HW  HW  
OW  HW  HW  OW  HW  HW  OW  HW  HW  OW  HW  HW  OW  HW  HW  OW  HW  HW  OW  HW  
HW  OW  HW  HW  OW  HW  HW  OW  HW  HW  OW  HW  HW  OW  HW  HW  OW  HW  HW  OW  
HW  HW  OW  HW  HW  OW  HW  HW  OW  HW  HW  OW  HW  HW  OW  HW  HW  OW  HW  HW  
OW  HW  HW  OW  HW  HW  OW  HW  HW  OW  HW  HW  OW  HW  HW  OW  HW  HW  OW  HW  
HW  OW  HW  HW  OW  HW  HW  OW  HW  HW  OW  HW  HW  OW  HW  HW  OW  HW  HW  OW  
HW  HW  OW  HW  HW  OW  HW  HW  OW  HW  HW  OW  HW  HW  OW  HW  HW  OW  HW  HW  
OW  HW  HW  OW  HW  HW  OW  HW  HW  OW  HW  HW  OW  HW  HW  OW  HW  HW  OW  HW  
HW  OW  HW  HW  OW  HW  HW  OW  HW  HW  OW  HW  HW  OW  HW  HW  OW  HW  HW  OW  
HW  HW  OW  HW  HW  OW  HW  HW  OW  HW  HW  OW  HW  HW  OW  HW  HW  OW  HW  HW  
OW  HW  HW  OW  HW  HW  OW  HW  HW  OW  HW  HW  OW  HW  HW  OW  HW  HW  OW  HW  
HW  OW  HW  HW  OW  HW  HW  OW  HW  HW  OW  HW  HW  OW  HW  HW  OW  HW  HW  OW  
HW  HW  OW  HW  HW  OW  HW  HW  OW  HW  HW  OW  HW  HW  OW  HW  HW  OW  HW  HW  
OW  HW  HW  OW  HW  HW  OW  HW  HW  OW  HW  HW  OW  HW  HW  OW  HW  HW  OW  HW  
HW  OW  HW  HW  OW  HW  HW  OW  HW  HW  OW  HW  HW  OW  HW  HW  OW  HW  HW  OW  
HW  HW  OW  HW  HW  OW  HW  HW  OW  HW  HW  OW  HW  HW  OW  HW  HW  OW  HW  HW  
OW  HW  HW  OW  HW  HW  OW  HW  HW  OW  HW  HW  OW  HW  HW  OW  HW  HW  OW  HW  
HW  OW  HW  HW  OW  HW  HW  OW  HW  HW  OW  HW  HW  OW  HW  HW  OW  HW  HW  OW  
HW  HW  OW  HW  HW  OW  HW  HW  OW  HW  HW  OW  HW  HW  OW  HW  HW  OW  HW  HW  
OW  HW  HW  OW  HW  HW  OW  HW  HW  OW  HW  HW  OW  HW  HW  OW  HW  HW  OW  HW  
HW  OW  HW  HW  OW  HW  HW  OW  HW  HW  OW  HW  HW  OW  HW  HW  OW  HW  HW  OW  
HW  HW  OW  HW  HW  OW  HW  HW  OW  HW  HW  OW  HW  HW  OW  HW  HW  OW  HW  HW  
OW  HW  HW  OW  HW  HW  OW  HW  HW  OW  HW  HW  OW  HW  HW  OW  HW  HW  OW  HW  
HW  OW  HW  HW  OW  HW  HW  OW  HW  HW  OW  HW  HW  OW  HW  HW  OW  HW  HW  OW  
HW  HW  OW  HW  HW  OW  HW  HW  OW  HW  HW  OW  HW  HW  OW  HW  HW  OW  HW  HW  
OW  HW  HW  OW  HW  HW  OW  HW  HW  OW  HW  HW  OW  HW  HW  OW  HW  HW  OW  HW  
HW  OW  HW  HW  OW  HW  HW  OW  HW  HW  OW  HW  HW  OW  HW  HW  OW  HW  HW  OW  
HW  HW  OW  HW  HW  OW  HW  HW  OW  HW  HW  OW  HW  HW  OW  HW  HW  OW  HW  HW  
OW  HW  HW  OW  HW  HW  OW  HW  HW  OW  HW  HW  OW  HW  HW  OW  HW  HW  OW  HW  
HW  OW  HW  HW  OW  HW  HW  OW  HW  HW  OW  HW  HW  OW  HW  HW  OW  HW  HW  OW  
HW  HW  OW  HW  HW  OW  HW  HW  OW  HW  HW  OW  HW  HW  OW  HW  HW  OW  HW  HW  
OW  HW  HW  OW  HW  HW  OW  HW  HW  OW  HW  HW  OW  HW  HW  OW  HW  HW  OW  HW  
HW  OW  HW  HW  OW  HW  HW  OW  HW  HW  OW  HW  HW  OW  HW  HW  OW  HW  HW  OW  
HW  HW  OW  HW  HW  OW  HW  HW  OW  HW  HW  OW  HW  HW  OW  HW  HW  OW  HW  HW  
OW  HW  HW  OW  HW  HW  OW  HW  HW  OW  HW  HW  OW  HW  HW  OW  HW  HW  OW  HW  
HW  OW  HW  HW  OW  HW  HW  OW  HW  HW  OW  HW  HW  OW  HW  HW  OW  HW  HW  OW  
HW  HW  OW  HW  HW  OW  HW  HW  OW  HW  HW  OW  HW  HW  OW  HW  HW  OW  HW  HW  
OW  HW  HW  OW  HW  HW  OW  HW  HW  OW  HW  HW  OW  HW  HW  OW  HW  HW  OW  HW  
HW  OW  HW  HW  OW  HW  HW  OW  HW  HW  OW  HW  HW  OW  HW  HW  OW  HW  HW  OW  
HW  HW  OW  HW  HW  OW  HW  HW  OW  HW  HW  OW  HW  HW  OW  HW  HW  OW  HW  HW  
OW  HW  HW  OW  HW  HW  OW  HW  HW  OW  HW  HW  OW  HW  HW  OW  HW  HW  OW  HW  
HW  OW  HW  HW  OW  HW  HW  OW  HW  HW  OW  HW  HW  OW  HW  HW  OW  HW  HW  OW  
HW  HW  OW  HW  HW  OW  HW  HW  OW  HW  HW  OW  HW  HW  OW  HW  HW  OW  HW  HW  
OW  HW  HW  OW  HW  HW  OW  HW  HW  OW  HW  HW  OW  HW  HW  OW  HW  HW  OW  HW  
HW  OW  HW  HW  OW  HW  HW  OW  HW  HW  OW  HW  HW  OW  HW  HW  OW  HW  HW  OW  
HW  HW  OW  HW  HW  OW  HW  HW  OW  HW  HW  OW  HW  HW  OW  HW  HW  OW  HW  HW  
OW  HW  HW  OW  HW  HW  OW  HW  HW  OW  HW  HW  OW  HW  HW  OW  HW  HW  OW  HW  
HW  OW  HW  HW  OW  HW  HW  OW  HW  HW  OW  HW  HW  OW  HW  HW  OW  HW  HW  OW  
HW  HW  OW  HW  HW  OW  HW  HW  OW  HW  HW  OW  HW  HW  OW  HW  HW  OW  HW  HW  
OW  HW  HW  OW  HW  HW  OW  HW  HW  OW  HW  HW  OW  HW  HW  OW  HW  HW  OW  HW  
HW  OW  HW  HW  OW  HW  HW  OW  HW  HW  OW  HW  HW  OW  HW  HW  OW  HW  HW  OW  
HW  HW  OW  HW  HW  OW  HW  HW  OW  HW  HW  OW  HW  HW  OW  HW  HW  OW  HW  HW  
OW  HW  HW  OW  HW  HW  OW  HW  HW  OW  HW  HW  OW  HW  HW  OW  HW  HW  OW  HW  
HW  OW  HW  HW  OW  HW  HW  OW  HW  HW  OW  HW  HW  OW  HW  HW  OW  HW  HW  OW  
HW  HW  OW  HW  HW  OW  HW  HW  OW  HW  HW  OW  HW  HW  OW  HW  HW  OW  HW  HW  
OW  HW  HW  OW  HW  HW  OW  HW  HW  OW  HW  HW  OW  HW  HW  OW  HW  HW  OW  HW  
HW  OW  HW  HW  OW  HW  HW  OW  HW  HW  OW  HW  HW  OW  HW  HW  OW  HW  HW  OW  
HW  HW  OW  HW  HW  OW  HW  HW  OW  HW  HW  OW  HW  HW  OW  HW  HW  OW  HW  HW  
OW  HW  HW  OW  HW  HW  OW  HW  HW  OW  HW  HW  OW  HW  HW  OW  HW  HW  OW  HW  
HW  OW  HW  HW  OW  HW  HW  OW  HW  HW  OW  HW  HW  OW  HW  HW  OW  HW  HW  OW  
HW  HW  OW  HW  HW  OW  HW  HW  OW  HW  HW  OW  HW  HW  OW  HW  HW  OW  HW  HW  
OW  HW  HW  OW  HW  HW  OW  HW  HW  OW  HW  HW  OW  HW  HW  OW  HW  HW  OW  HW  
HW  OW  HW  HW  OW  HW  HW  OW  HW  HW  OW  HW  HW  OW  HW  HW  OW  HW  HW  OW  
HW  HW  OW  HW  HW  OW  HW  HW  OW  HW  HW  OW  HW  HW  OW  HW  HW  OW  HW  HW  
OW  HW  HW  OW  HW  HW  OW  HW  HW  OW  HW  HW  OW  HW  HW  OW  HW  HW  OW  HW  
HW  OW  HW  HW  OW  HW  HW  OW  HW  HW  OW  HW  HW  OW  HW  HW  OW  HW  HW  OW  
HW  HW  OW  HW  HW  OW  HW  HW  OW  HW  HW  OW  HW  HW  OW  HW  HW  OW  HW  HW  
OW  HW  HW  OW  HW  HW  OW  HW  HW  OW  HW  HW  OW  HW  HW  OW  HW  HW  OW  HW  
HW  OW  HW  HW  OW  HW  HW  OW  HW  HW  OW  HW  HW  OW  HW  HW  OW  HW  HW  OW  
HW  HW  OW  HW  HW  OW  HW  HW  OW  HW  HW  OW  HW  HW  OW  HW  HW  OW  HW  HW  
OW  HW  HW  OW  HW  HW  OW  HW  HW  OW  HW  HW  OW  HW  HW  OW  HW  HW  OW  HW  
HW  OW  HW  HW  OW  HW  HW  OW  HW  HW  OW  HW  HW  OW  HW  HW  OW  HW  HW  OW  
HW  HW  OW  HW  HW  OW  HW  HW  OW  HW  HW  OW  HW  HW  OW  HW  HW  OW  HW  HW  
OW  HW  HW  OW  HW  HW  OW  HW  HW  OW  HW  HW  OW  HW  HW  OW  HW  HW  OW  HW  
HW  OW  HW  HW  OW  HW  HW  OW  HW  HW  OW  HW  HW  OW  HW  HW  OW  HW  HW  OW  
HW  HW  OW  HW  HW  OW  HW  HW  OW  HW  HW  OW  HW  HW  OW  HW  HW  OW  HW  HW  
OW  HW  HW  OW  HW  HW  OW  HW  HW  OW  HW  HW  OW  HW  HW  OW  HW  HW  OW  HW  
HW  OW  HW  HW  OW  HW  HW  OW  HW  HW  OW  HW  HW  OW  HW  HW  OW  HW  HW  OW  
HW  HW  OW  HW  HW  OW  HW  HW  OW  HW  HW  OW  HW  HW  OW  HW  HW  OW  HW  HW  
OW  HW  HW  OW  HW  HW  OW  HW  HW  OW  HW  HW  OW  HW  HW  OW  HW  HW  OW  HW  
HW  OW  HW  HW  OW  HW  HW  OW  HW  HW  OW  HW  HW  OW  HW  HW  OW  HW  HW  OW  
HW  HW  OW  HW  HW  OW  HW  HW  OW  HW  HW  OW  HW  HW  OW  HW  HW  OW  HW  HW  
OW  HW  HW  OW  HW  HW  OW  HW  HW  OW  HW  HW  OW  HW  HW  OW  HW  HW  OW  HW  
HW  OW  HW  HW  OW  HW  HW  OW  HW  HW  OW  HW  HW  OW  HW  HW  OW  HW  HW  OW  
HW  HW  OW  HW  HW  OW  HW  HW  OW  HW  HW  OW  HW  HW  OW  HW  HW  OW  HW  HW  
OW  HW  HW  OW  HW  HW  OW  HW  HW  OW  HW  HW  OW  HW  HW  OW  HW  HW  OW  HW  
HW  OW  HW  HW  OW  HW  HW  OW  HW  HW  OW  HW  HW  OW  HW  HW  OW  HW  HW  OW  
HW  HW  OW  HW  HW  OW  HW  HW  OW  HW  HW  OW  HW  HW  OW  HW  HW  OW  HW  HW  
OW  HW  HW  OW  HW  HW  OW  HW  HW  OW  HW  HW  OW  HW  HW  OW  HW  HW  OW  HW  
HW  OW  HW  HW  OW  HW  HW  OW  HW  HW  OW  HW  HW  OW  HW  HW  OW  HW  HW  OW  
HW  HW  OW  HW  HW  OW  HW  HW  OW  HW  HW  OW  HW  HW  OW  HW  HW  OW  HW  HW  
OW  HW  HW  OW  HW  HW  OW  HW  HW  OW  HW  HW  OW  HW  HW  OW  HW  HW  OW  HW  
HW  OW  HW  HW  OW  HW  HW  OW  HW  HW  OW  HW  HW  OW  HW  HW  OW  HW  HW  OW  
HW  HW  OW  HW  HW  OW  HW  HW  OW  HW  HW  OW  HW  HW  OW  HW  HW  OW  HW  HW  
OW  HW  HW  OW  HW  HW  OW  HW  HW  OW  HW  HW  OW  HW  HW  OW  HW  HW  OW  HW  
HW  OW  HW  HW  OW  HW  HW  OW  HW  HW  OW  HW  HW  OW  HW  HW  OW  HW  HW  OW  
HW  HW  OW  HW  HW  OW  HW  HW  OW  HW  HW  OW  HW  HW  OW  HW  HW  OW  HW  HW  
OW  HW  HW  OW  HW  HW  OW  HW  HW  OW  HW  HW  OW  HW  HW  OW  HW  HW  OW  HW  
HW  OW  HW  HW  OW  HW  HW  OW  HW  HW  OW  HW  HW  OW  HW  HW  OW  HW  HW  OW  
HW  HW  OW  HW  HW  OW  HW  HW  OW  HW  HW  OW  HW  HW  OW  HW  HW  OW  HW  HW  
OW  HW  HW  OW  HW  HW  OW  HW  HW  OW  HW  HW  OW  HW  HW  OW  HW  HW  OW  HW  
HW  OW  HW  HW  OW  HW  HW  OW  HW  HW  OW  HW  HW  OW  HW  HW  OW  HW  HW  OW  
HW  HW  OW  HW  HW  OW  HW  HW  OW  HW  HW  OW  HW  HW  OW  HW  HW  OW  HW  HW  
OW  HW  HW  OW  HW  HW  OW  HW  HW  OW  HW  HW  OW  HW  HW  OW  HW  HW  OW  HW  
HW  OW  HW  HW  OW  HW  HW  OW  HW  HW  OW  HW  HW  OW  HW  HW  OW  HW  HW  OW  
HW  HW  OW  HW  HW  OW  HW  HW  OW  HW  HW  OW  HW  HW  OW  HW  HW  OW  HW  HW  
OW  HW  HW  OW  HW  HW  OW  HW  HW  OW  HW  HW  OW  HW  HW  OW  HW  HW  OW  HW  
HW  OW  HW  HW  OW  HW  HW  OW  HW  HW  OW  HW  HW  OW  HW  HW  OW  HW  HW  OW  
HW  HW  OW  HW  HW  OW  HW  HW  OW  HW  HW  OW  HW  HW  OW  HW  HW  OW  HW  HW  
OW  HW  HW  OW  HW  HW  OW  HW  HW  OW  HW  HW  OW  HW  HW  OW  HW  HW  OW  HW  
HW  OW  HW  HW  OW  HW  HW  OW  HW  HW  OW  HW  HW  OW  HW  HW  OW  HW  HW  OW  
HW  HW  OW  HW  HW  OW  HW  HW  OW  HW  HW  OW  HW  HW  OW  HW  HW  OW  HW  HW  
OW  HW  HW  OW  HW  HW  OW  HW  HW  OW  HW  HW  OW  HW  HW  OW  HW  HW  OW  HW  
HW  OW  HW  HW  OW  HW  HW  OW  HW  HW  OW  HW  HW  OW  HW  HW  OW  HW  HW  OW  
HW  HW  OW  HW  HW  OW  HW  HW  OW  HW  HW  OW  HW  HW  OW  HW  HW  OW  HW  HW  
OW  HW  HW  OW  HW  HW  OW  HW  HW  OW  HW  HW  OW  HW  HW  OW  HW  HW  OW  HW  
HW  OW  HW  HW  OW  HW  HW  OW  HW  HW  OW  HW  HW  OW  HW  HW  OW  HW  HW  OW  
HW  HW  OW  HW  HW  OW  HW  HW  OW  HW  HW  OW  HW  HW  OW  HW  HW  OW  HW  HW  
OW  HW  HW  OW  HW  HW  OW  HW  HW  OW  HW  HW  OW  HW  HW  OW  HW  HW  OW  HW  
HW  OW  HW  HW  OW  HW  HW  OW  HW  HW  OW  HW  HW  OW  HW  HW  OW  HW  HW  OW  
HW  HW  OW  HW  HW  OW  HW  HW  OW  HW  HW  OW  HW  HW  OW  HW  HW  OW  HW  HW  
OW  HW  HW  OW  HW  HW  OW  HW  HW  OW  HW  HW  OW  HW  HW  OW  HW  HW  OW  HW  
HW  OW  HW  HW  OW  HW  HW  OW  HW  HW  OW  HW  HW  OW  HW  HW  OW  HW  HW  OW  
HW  HW  OW  HW  HW  OW  HW  HW  OW  HW  HW  OW  HW  HW  OW  HW  HW  OW  HW  HW  
OW  HW  HW  OW  HW  HW  OW  HW  HW  OW  HW  HW  OW  HW  HW  OW  HW  HW  OW  HW  
HW  OW  HW  HW  OW  HW  HW  OW  HW  HW  OW  HW  HW  OW  HW  HW  OW  HW  HW  OW  
HW  HW  OW  HW  HW  OW  HW  HW  OW  HW  HW  OW  HW  HW  OW  HW  HW  OW  HW  HW  
OW  HW  HW  OW  HW  HW  OW  HW  HW  OW  HW  HW  OW  HW  HW  OW  HW  HW  OW  HW  
HW  OW  HW  HW  OW  HW  HW  OW  HW  HW  OW  HW  HW  OW  HW  HW  OW  HW  HW  OW  
HW  HW  OW  HW  HW  OW  HW  HW  OW  HW  HW  OW  HW  HW  OW  HW  HW  OW  HW  HW  
OW  HW  HW  OW  HW  HW  OW  HW  HW  OW  HW  HW  OW  HW  HW  OW  HW  HW  OW  HW  
HW  OW  HW  HW  OW  HW  HW  OW  HW  HW  OW  HW  HW  OW  HW  HW  OW  HW  HW  OW  
HW  HW  OW  HW  HW  OW  HW  HW  OW  HW  HW  OW  HW  HW  OW  HW  HW  OW  HW  HW  
OW  HW  HW  OW  HW  HW  OW  HW  HW  OW  HW  HW  OW  HW  HW  OW  HW  HW  OW  HW  
HW  OW  HW  HW  OW  HW  HW  OW  HW  HW  OW  HW  HW  OW  HW  HW  OW  HW  HW  OW  
HW  HW  OW  HW  HW  OW  HW  HW  OW  HW  HW  OW  HW  HW  OW  HW  HW  OW  HW  HW  
OW  HW  HW  OW  HW  HW  OW  HW  HW  OW  HW  HW  OW  HW  HW  OW  HW  HW  OW  HW  
HW  OW  HW  HW  OW  HW  HW  OW  HW  HW  OW  HW  HW  OW  HW  HW  OW  HW  HW  OW  
HW  HW  OW  HW  HW  OW  HW  HW  OW  HW  HW  OW  HW  HW  OW  HW  HW  OW  HW  HW  
OW  HW  HW  OW  HW  HW  OW  HW  HW  OW  HW  HW  OW  HW  HW  OW  HW  HW  OW  HW  
HW  OW  HW  HW  OW  HW  HW  OW  HW  HW  OW  HW  HW  OW  HW  HW  OW  HW  HW  OW  
HW  HW  OW  HW  HW  OW  HW  HW  OW  HW  HW  OW  HW  HW  OW  HW  HW  OW  HW  HW  
OW  HW  HW  OW  HW  HW  OW  HW  HW  OW  HW  HW  OW  HW  HW  OW  HW  HW  OW  HW  
HW  OW  HW  HW  OW  HW  HW  OW  HW  HW  OW  HW  HW  OW  HW  HW  OW  HW  HW  OW  
HW  HW  OW  HW  HW  OW  HW  HW  OW  HW  HW  OW  HW  HW  OW  HW  HW  OW  HW  HW  
OW  HW  HW  OW  HW  HW  OW  HW  HW  OW  HW  HW  OW  HW  HW  OW  HW  HW  OW  HW  
HW  OW  HW  HW  OW  HW  HW  OW  HW  HW  OW  HW  HW  OW  HW  HW  OW  HW  HW  OW  
HW  HW  OW  HW  HW  OW  HW  HW  OW  HW  HW  OW  HW  HW  OW  HW  HW  OW  HW  HW  
OW  HW  HW  OW  HW  HW  OW  HW  HW  OW  HW  HW  OW  HW  HW  OW  HW  HW  OW  HW  
HW  OW  HW  HW  OW  HW  HW  OW  HW  HW  OW  HW  HW  OW  HW  HW  OW  HW  HW  OW  
HW  HW  OW  HW  HW  OW  HW  HW  OW  HW  HW  OW  HW  HW  OW  HW  HW  OW  HW  HW  
OW  HW  HW  OW  HW  HW  OW  HW  HW  OW  HW  HW  OW  HW  HW  OW  HW  HW  OW  HW  
HW  OW  HW  HW  OW  HW  HW  OW  HW  HW  OW  HW  HW  OW  HW  HW  OW  HW  HW  OW  
HW  HW  OW  HW  HW  OW  HW  HW  OW  HW  HW  OW  HW  HW  OW  HW  HW  OW  HW  HW  
OW  HW  HW  OW  HW  HW  OW  HW  HW  OW  HW  HW  OW  HW  HW  OW  HW  HW  OW  HW  
HW  OW  HW  HW  OW  HW  HW  OW  HW  HW  OW  HW  HW  OW  HW  HW  OW  HW  HW  OW  
HW  HW  OW  HW  HW  OW  HW  HW  OW  HW  HW  OW  HW  HW  OW  HW  HW  OW  HW  HW  
OW  HW  HW  OW  HW  HW  OW  HW  HW  OW  HW  HW  OW  HW  HW  OW  HW  HW  OW  HW  
HW  OW  HW  HW  OW  HW  HW  OW  HW  HW  OW  HW  HW  OW  HW  HW  OW  HW  HW  OW  
HW  HW  OW  HW  HW  OW  HW  HW  OW  HW  HW  OW  HW  HW  OW  HW  HW  OW  HW  HW  
OW  HW  HW  OW  HW  HW  OW  HW  HW  OW  HW  HW  OW  HW  HW  OW  HW  HW  OW  HW  
HW  OW  HW  HW  OW  HW  HW  OW  HW  HW  OW  HW  HW  OW  HW  HW  OW  HW  HW  OW  
HW  HW  OW  HW  HW  OW  HW  HW  OW  HW  HW  OW  HW  HW  OW  HW  HW  OW  HW  HW  
OW  HW  HW  OW  HW  HW  OW  HW  HW  OW  HW  HW  OW  HW  HW  OW  HW  HW  OW  HW  
HW  OW  HW  HW  OW  HW  HW  OW  HW  HW  OW  HW  HW  OW  HW  HW  OW  HW  HW  OW  
HW  HW  OW  HW  HW  OW  HW  HW  OW  HW  HW  OW  HW  HW  OW  HW  HW  OW  HW  HW  
OW  HW  HW  OW  HW  HW  OW  HW  HW  OW  HW  HW  OW  HW  HW  OW  HW  HW  OW  HW  
HW  OW  HW  HW  OW  HW  HW  OW  HW  HW  OW  HW  HW  OW  HW  HW  OW  HW  HW  OW  
HW  HW  OW  HW  HW  OW  HW  HW  OW  HW  HW  OW  HW  HW  OW  HW  HW  OW  HW  HW  
OW  HW  HW  OW  HW  HW  OW  HW  HW  OW  HW  HW  OW  HW  HW  OW  HW  HW  OW  HW  
HW  OW  HW  HW  OW  HW  HW  OW  HW  HW  OW  HW  HW  OW  HW  HW  OW  HW  HW  OW  
HW  HW  OW  HW  HW  OW  HW  HW  OW  HW  HW  OW  HW  HW  OW  HW  HW  OW  HW  HW  
OW  HW  HW  OW  HW  HW  OW  HW  HW  OW  HW  HW  OW  HW  HW  OW  HW  HW  OW  HW  
HW  OW  HW  HW  OW  HW  HW  OW  HW  HW  OW  HW  HW  OW  HW  HW  OW  HW  HW  OW  
HW  HW  OW  HW  HW  OW  HW  HW  OW  HW  HW  OW  HW  HW  OW  HW  HW  OW  HW  HW  
OW  HW  HW  OW  HW  HW  OW  HW  HW  OW  HW  HW  OW  HW  HW  OW  HW  HW  OW  HW  
HW  OW  HW  HW  OW  HW  HW  OW  HW  HW  OW  HW  HW  OW  HW  HW  OW  HW  HW  OW  
HW  HW  OW  HW  HW  OW  HW  HW  OW  HW  HW  OW  HW  HW  OW  HW  HW  OW  HW  HW  
OW  HW  HW  OW  HW  HW  OW  HW  HW  OW  HW  HW  OW  HW  HW  OW  HW  HW  OW  HW  
HW  OW  HW  HW  OW  HW  HW  OW  HW  HW  OW  HW  HW  OW  HW  HW  OW  HW  HW  OW  
HW  HW  OW  HW  HW  OW  HW  HW  OW  HW  HW  OW  HW  HW  OW  HW  HW  OW  HW  HW  
OW  HW  HW  OW  HW  HW  OW  HW  HW  OW  HW  HW  OW  HW  HW  OW  HW  HW  OW  HW  
HW  OW  HW  HW  OW  HW  HW  OW  HW  HW  OW  HW  HW  OW  HW  HW  OW  HW  HW  OW  
HW  HW  OW  HW  HW  OW  HW  HW  OW  HW  HW  OW  HW  HW  OW  HW  HW  OW  HW  HW  
OW  HW  HW  OW  HW  HW  OW  HW  HW  OW  HW  HW  OW  HW  HW  OW  HW  HW  OW  HW  
HW  OW  HW  HW  OW  HW  HW  OW  HW  HW  OW  HW  HW  OW  HW  HW  OW  HW  HW  OW  
HW  HW  OW  HW  HW  OW  HW  HW  OW  HW  HW  OW  HW  HW  OW  HW  HW  OW  HW  HW  
OW  HW  HW  OW  HW  HW  OW  HW  HW  OW  HW  HW  OW  HW  HW  OW  HW  HW  OW  HW  
HW  OW  HW  HW  OW  HW  HW  OW  HW  HW  OW  HW  HW  OW  HW  HW  OW  HW  HW  OW  
HW  HW  OW  HW  HW  OW  HW  HW  OW  HW  HW  OW  HW  HW  OW  HW  HW  OW  HW  HW  
OW  HW  HW  OW  HW  HW  OW  HW  HW  OW  HW  HW  OW  HW  HW  OW  HW  HW  OW  HW  
HW  OW  HW  HW  OW  HW  HW  OW  HW  HW  OW  HW  HW  OW  HW  HW  OW  HW  HW  OW  
HW  HW  OW  HW  HW  OW  HW  HW  OW  HW  HW  OW  HW  HW  OW  HW  HW  OW  HW  HW  
OW  HW  HW  OW  HW  HW  OW  HW  HW  OW  HW  HW  OW  HW  HW  OW  HW  HW  OW  HW  
HW  OW  HW  HW  OW  HW  HW  OW  HW  HW  OW  HW  HW  OW  HW  HW  OW  HW  HW  OW  
HW  HW  OW  HW  HW  OW  HW  HW  OW  HW  HW  OW  HW  HW  OW  HW  HW  OW  HW  HW  
OW  HW  HW  OW  HW  HW  OW  HW  HW  OW  HW  HW  OW  HW  HW  OW  HW  HW  OW  HW  
HW  OW  HW  HW  OW  HW  HW  OW  HW  HW  OW  HW  HW  OW  HW  HW  OW  HW  HW  OW  
HW  HW  OW  HW  HW  OW  HW  HW  OW  HW  HW  OW  HW  HW  OW  HW  HW  OW  HW  HW  
OW  HW  HW  OW  HW  HW  OW  HW  HW  OW  HW  HW  OW  HW  HW  OW  HW  HW  OW  HW  
HW  OW  HW  HW  OW  HW  HW  OW  HW  HW  OW  HW  HW  OW  HW  HW  OW  HW  HW  OW  
HW  HW  OW  HW  HW  OW  HW  HW  OW  HW  HW  OW  HW  HW  OW  HW  HW  OW  HW  HW  
OW  HW  HW  OW  HW  HW  OW  HW  HW  OW  HW  HW  OW  HW  HW  OW  HW  HW  OW  HW  
HW  OW  HW  HW  OW  HW  HW  OW  HW  HW  OW  HW  HW  OW  HW  HW  OW  HW  HW  OW  
HW  HW  OW  HW  HW  OW  HW  HW  OW  HW  HW  OW  HW  HW  OW  HW  HW  OW  HW  HW  
OW  HW  HW  OW  HW  HW  OW  HW  HW  OW  HW  HW  OW  HW  HW  OW  HW  HW  OW  HW  
HW  OW  HW  HW  OW  HW  HW  OW  HW  HW  OW  HW  HW  OW  HW  HW  OW  HW  HW  OW  
HW  HW  OW  HW  HW  OW  HW  HW  OW  HW  HW  OW  HW  HW  OW  HW  HW  OW  HW  HW  
OW  HW  HW  OW  HW  HW  OW  HW  HW  OW  HW  HW  OW  HW  HW  OW  HW  HW  OW  HW  
HW  OW  HW  HW  OW  HW  HW  OW  HW  HW  OW  HW  HW  OW  HW  HW  OW  HW  HW  OW  
HW  HW  OW  HW  HW  OW  HW  HW  OW  HW  HW  OW  HW  HW  OW  HW  HW  OW  HW  HW  
OW  HW  HW  OW  HW  HW  OW  HW  HW  OW  HW  HW  OW  HW  HW  OW  HW  HW  OW  HW  
HW  OW  HW  HW  OW  HW  HW  OW  HW  HW  OW  HW  HW  OW  HW  HW  OW  HW  HW  OW  
HW  HW  OW  HW  HW  OW  HW  HW  OW  HW  HW  OW  HW  HW  OW  HW  HW  OW  HW  HW  
OW  HW  HW  OW  HW  HW  OW  HW  HW  OW  HW  HW  OW  HW  HW  OW  HW  HW  OW  HW  
HW  OW  HW  HW  OW  HW  HW  OW  HW  HW  OW  HW  HW  OW  HW  HW  OW  HW  HW  OW  
HW  HW  OW  HW  HW  OW  HW  HW  OW  HW  HW  OW  HW  HW  OW  HW  HW  OW  HW  HW  
OW  HW  HW  OW  HW  HW  OW  HW  HW  OW  HW  HW  OW  HW  HW  OW  HW  HW  OW  HW  
HW  OW  HW  HW  OW  HW  HW  OW  HW  HW  OW  HW  HW  OW  HW  HW  OW  HW  HW  OW  
HW  HW  OW  HW  HW  OW  HW  HW  OW  HW  HW  OW  HW  HW  OW  HW  HW  OW  HW  HW  
OW  HW  HW  OW  HW  HW  OW  HW  HW  OW  HW  HW  OW  HW  HW  OW  HW  HW  OW  HW  
HW  OW  HW  HW  OW  HW  HW  OW  HW  HW  OW  HW  HW  OW  HW  HW  OW  HW  HW  OW  
HW  HW  OW  HW  HW  OW  HW  HW  OW  HW  HW  OW  HW  HW  OW  HW  HW  OW  HW  HW  
OW  HW  HW  OW  HW  HW  OW  HW  HW  OW  HW  HW  OW  HW  HW  OW  HW  HW  OW  HW  
HW  OW  HW  HW  OW  HW  HW  OW  HW  HW  OW  HW  HW  OW  HW  HW  OW  HW  HW  OW  
HW  HW  OW  HW  HW  OW  HW  HW  OW  HW  HW  OW  HW  HW  OW  HW  HW  OW  HW  HW  
OW  HW  HW  OW  HW  HW  OW  HW  HW  OW  HW  HW  OW  HW  HW  OW  HW  HW  OW  HW  
HW  OW  HW  HW  OW  HW  HW  OW  HW  HW  OW  HW  HW  OW  HW  HW  OW  HW  HW  OW  
HW  HW  OW  HW  HW  OW  HW  HW  OW  HW  HW  OW  HW  HW  OW  HW  HW  OW  HW  HW  
OW  HW  HW  OW  HW  HW  OW  HW  HW  OW  HW  HW  OW  HW  HW  OW  HW  HW  OW  HW  
HW  OW  HW  HW  OW  HW  HW  OW  HW  HW  OW  HW  HW  OW  HW  HW  OW  HW  HW  OW  
HW  HW  OW  HW  HW  OW  HW  HW  OW  HW  HW  OW  HW  HW  OW  HW  HW  OW  HW  HW  
OW  HW  HW  OW  HW  HW  OW  HW  HW  OW  HW  HW  OW  HW  HW  OW  HW  HW  OW  HW  
HW  OW  HW  HW  OW  HW  HW  OW  HW  HW  OW  HW  HW  OW  HW  HW  OW  HW  HW  OW  
HW  HW  OW  HW  HW  OW  HW  HW  OW  HW  HW  OW  HW  HW  OW  HW  HW  OW  HW  HW  
OW  HW  HW  OW  HW  HW  OW  HW  HW  OW  HW  HW  OW  HW  HW  OW  HW  HW  OW  HW  
HW  OW  HW  HW  OW  HW  HW  OW  HW  HW  OW  HW  HW  OW  HW  HW  OW  HW  HW  OW  
HW  HW  OW  HW  HW  OW  HW  HW  OW  HW  HW  OW  HW  HW  OW  HW  HW  OW  HW  HW  
OW  HW  HW  OW  HW  HW  OW  HW  HW  OW  HW  HW  OW  HW  HW  OW  HW  HW  OW  HW  
HW  OW  HW  HW  OW  HW  HW  OW  HW  HW  OW  HW  HW  OW  HW  HW  OW  HW  HW  OW  
HW  HW  OW  HW  HW  OW  HW  HW  OW  HW  HW  OW  HW  HW  OW  HW  HW  OW  HW  HW  
OW  HW  HW  OW  HW  HW  OW  HW  HW  OW  HW  HW  OW  HW  HW  OW  HW  HW  OW  HW  
HW  OW  HW  HW  OW  HW  HW  OW  HW  HW  OW  HW  HW  OW  HW  HW  OW  HW  HW  OW  
HW  HW  OW  HW  HW  OW  HW  HW  OW  HW  HW  OW  HW  HW  OW  HW  HW  OW  HW  HW  
OW  HW  HW  OW  HW  HW  OW  HW  HW  OW  HW  HW  OW  HW  HW  OW  HW  HW  OW  HW  
HW  OW  HW  HW  OW  HW  HW  OW  HW  HW  OW  HW  HW  OW  HW  HW  OW  HW  HW  OW  
HW  HW  OW  HW  HW  OW  HW  HW  OW  HW  HW  OW  HW  HW  OW  HW  HW  OW  HW  HW  
OW  HW  HW  OW  HW  HW  OW  HW  HW  OW  HW  HW  OW  HW  HW  OW  HW  HW  OW  HW  
HW  OW  HW  HW  OW  HW  HW  OW  HW  HW  OW  HW  HW  OW  HW  HW  OW  HW  HW  OW  
HW  HW  OW  HW  HW  OW  HW  HW  OW  HW  HW  OW  HW  HW  OW  HW  HW  OW  HW  HW  
OW  HW  HW  OW  HW  HW  OW  HW  HW  OW  HW  HW  OW  HW  HW  OW  HW  HW  OW  HW  
HW  OW  HW  HW  OW  HW  HW  OW  HW  HW  OW  HW  HW  OW  HW  HW  OW  HW  HW  OW  
HW  HW  OW  HW  HW  OW  HW  HW  OW  HW  HW  OW  HW  HW  OW  HW  HW  OW  HW  HW  
OW  HW  HW  OW  HW  HW  OW  HW  HW  OW  HW  HW  OW  HW  HW  OW  HW  HW  OW  HW  
HW  OW  HW  HW  OW  HW  HW  OW  HW  HW  OW  HW  HW  OW  HW  HW  OW  HW  HW  OW  
HW  HW  OW  HW  HW  OW  HW  HW  OW  HW  HW  OW  HW  HW  OW  HW  HW  OW  HW  HW  
OW  HW  HW  OW  HW  HW  OW  HW  HW  OW  HW  HW  OW  HW  HW  OW  HW  HW  OW  HW  
HW  OW  HW  HW  OW  HW  HW  OW  HW  HW  OW  HW  HW  OW  HW  HW  OW  HW  HW  OW  
HW  HW  OW  HW  HW  OW  HW  HW  OW  HW  HW  OW  HW  HW  OW  HW  HW  OW  HW  HW  
OW  HW  HW  OW  HW  HW  OW  HW  HW  OW  HW  HW  OW  HW  HW  OW  HW  HW  OW  HW  
HW  OW  HW  HW  OW  HW  HW  OW  HW  HW  OW  HW  HW  OW  HW  HW  OW  HW  HW  OW  
HW  HW  OW  HW  HW  OW  HW  HW  OW  HW  HW  OW  HW  HW  OW  HW  HW  OW  HW  HW  
OW  HW  HW  OW  HW  HW  OW  HW  HW  OW  HW  HW  OW  HW  HW  OW  HW  HW  OW  HW  
HW  OW  HW  HW  OW  HW  HW  OW  HW  HW  OW  HW  HW  OW  HW  HW  OW  HW  HW  OW  
HW  HW  OW  HW  HW  OW  HW  HW  OW  HW  HW  OW  HW  HW  OW  HW  HW  OW  HW  HW  
OW  HW  HW  OW  HW  HW  OW  HW  HW  OW  HW  HW  OW  HW  HW  OW  HW  HW  OW  HW  
HW  OW  HW  HW  OW  HW  HW  OW  HW  HW  OW  HW  HW  OW  HW  HW  OW  HW  HW  OW  
HW  HW  OW  HW  HW  OW  HW  HW  OW  HW  HW  OW  HW  HW  OW  HW  HW  OW  HW  HW  
OW  HW  HW  OW  HW  HW  OW  HW  HW  OW  HW  HW  OW  HW  HW  OW  HW  HW  OW  HW  
HW  OW  HW  HW  OW  HW  HW  OW  HW  HW  OW  HW  HW  OW  HW  HW  OW  HW  HW  OW  
HW  HW  OW  HW  HW  OW  HW  HW  OW  HW  HW  OW  HW  HW  OW  HW  HW  OW  HW  HW  
OW  HW  HW  OW  HW  HW  OW  HW  HW  OW  HW  HW  OW  HW  HW  OW  HW  HW  OW  HW  
HW  OW  HW  HW  OW  HW  HW  OW  HW  HW  OW  HW  HW  OW  HW  HW  OW  HW  HW  OW  
HW  HW  OW  HW  HW  OW  HW  HW  OW  HW  HW  OW  HW  HW  OW  HW  HW  OW  HW  HW  
OW  HW  HW  OW  HW  HW  OW  HW  HW  OW  HW  HW  OW  HW  HW  OW  HW  HW  OW  HW  
HW  OW  HW  HW  OW  HW  HW  OW  HW  HW  OW  HW  HW  OW  HW  HW  OW  HW  HW  OW  
HW  HW  OW  HW  HW  OW  HW  HW  OW  HW  HW  OW  HW  HW  OW  HW  HW  OW  HW  HW  
OW  HW  HW  OW  HW  HW  OW  HW  HW  OW  HW  HW  OW  HW  HW  OW  HW  HW  OW  HW  
HW  OW  HW  HW  OW  HW  HW  OW  HW  HW  OW  HW  HW  OW  HW  HW  OW  HW  HW  OW  
HW  HW  OW  HW  HW  OW  HW  HW  OW  HW  HW  OW  HW  HW  OW  HW  HW  OW  HW  HW  
OW  HW  HW  OW  HW  HW  OW  HW  HW  OW  HW  HW  OW  HW  HW  OW  HW  HW  OW  HW  
HW  OW  HW  HW  OW  HW  HW  OW  HW  HW  OW  HW  HW  OW  HW  HW  OW  HW  HW  OW  
HW  HW  OW  HW  HW  OW  HW  HW  OW  HW  HW  OW  HW  HW  OW  HW  HW  OW  HW  HW  
OW  HW  HW  OW  HW  HW  OW  HW  HW  OW  HW  HW  OW  HW  HW  OW  HW  HW  OW  HW  
HW  OW  HW  HW  OW  HW  HW  OW  HW  HW  OW  HW  HW  OW  HW  HW  OW  HW  HW  OW  
HW  HW  OW  HW  HW  OW  HW  HW  OW  HW  HW  OW  HW  HW  OW  HW  HW  OW  HW  HW  
OW  HW  HW  OW  HW  HW  OW  HW  HW  OW  HW  HW  OW  HW  HW  OW  HW  HW  OW  HW  
HW  OW  HW  HW  OW  HW  HW  OW  HW  HW  OW  HW  HW  OW  HW  HW  OW  HW  HW  OW  
HW  HW  OW  HW  HW  OW  HW  HW  OW  HW  HW  OW  HW  HW  OW  HW  HW  OW  HW  HW  
OW  HW  HW  OW  HW  HW  OW  HW  HW  OW  HW  HW  OW  HW  HW  OW  HW  HW  OW  HW  
HW  OW  HW  HW  OW  HW  HW  OW  HW  HW  OW  HW  HW  OW  HW  HW  OW  HW  HW  OW  
HW  HW  OW  HW  HW  OW  HW  HW  OW  HW  HW  OW  HW  HW  OW  HW  HW  OW  HW  HW  
OW  HW  HW  OW  HW  HW  OW  HW  HW  OW  HW  HW  OW  HW  HW  OW  HW  HW  OW  HW  
HW  OW  HW  HW  OW  HW  HW  OW  HW  HW  OW  HW  HW  OW  HW  HW  OW  HW  HW  OW  
HW  HW  OW  HW  HW  OW  HW  HW  OW  HW  HW  OW  HW  HW  OW  HW  HW  OW  HW  HW  
OW  HW  HW  OW  HW  HW  OW  HW  HW  OW  HW  HW  OW  HW  HW  OW  HW  HW  OW  HW  
HW  OW  HW  HW  OW  HW  HW  OW  HW  HW  OW  HW  HW  OW  HW  HW  OW  HW  HW  OW  
HW  HW  OW  HW  HW  OW  HW  HW  OW  HW  HW  OW  HW  HW  OW  HW  HW  OW  HW  HW  
OW  HW  HW  OW  HW  HW  OW  HW  HW  OW  HW  HW  OW  HW  HW  OW  HW  HW  OW  HW  
HW  OW  HW  HW  OW  HW  HW  OW  HW  HW  OW  HW  HW  OW  HW  HW  OW  HW  HW  OW  
HW  HW  OW  HW  HW  OW  HW  HW  OW  HW  HW  OW  HW  HW  OW  HW  HW  OW  HW  HW  
OW  HW  HW  OW  HW  HW  OW  HW  HW  OW  HW  HW  OW  HW  HW  OW  HW  HW  OW  HW  
HW  OW  HW  HW  OW  HW  HW  OW  HW  HW  OW  HW  HW  OW  HW  HW  OW  HW  HW  OW  
HW  HW  OW  HW  HW  OW  HW  HW  OW  HW  HW  OW  HW  HW  OW  HW  HW  OW  HW  HW  
OW  HW  HW  OW  HW  HW  OW  HW  HW  OW  HW  HW  OW  HW  HW  OW  HW  HW  OW  HW  
HW  OW  HW  HW  OW  HW  HW  OW  HW  HW  OW  HW  HW  OW  HW  HW  OW  HW  HW  OW  
HW  HW  OW  HW  HW  OW  HW  HW  OW  HW  HW  OW  HW  HW  OW  HW  HW  OW  HW  HW  
OW  HW  HW  OW  HW  HW  OW  HW  HW  OW  HW  HW  OW  HW  HW  OW  HW  HW  OW  HW  
HW  OW  HW  HW  OW  HW  HW  OW  HW  HW  OW  HW  HW  OW  HW  HW  OW  HW  HW  OW  
HW  HW  OW  HW  HW  OW  HW  HW  OW  HW  HW  OW  HW  HW  OW  HW  HW  OW  HW  HW  
OW  HW  HW  OW  HW  HW  OW  HW  HW  OW  HW  HW  OW  HW  HW  OW  HW  HW  OW  HW  
HW  OW  HW  HW  OW  HW  HW  OW  HW  HW  OW  HW  HW  OW  HW  HW  OW  HW  HW  OW  
HW  HW  OW  HW  HW  OW  HW  HW  OW  HW  HW  OW  HW  HW  OW  HW  HW  OW  HW  HW  
OW  HW  HW  OW  HW  HW  OW  HW  HW  OW  HW  HW  OW  HW  HW  OW  HW  HW  OW  HW  
HW  OW  HW  HW  OW  HW  HW  OW  HW  HW  OW  HW  HW  OW  HW  HW  OW  HW  HW  OW  
HW  HW  OW  HW  HW  OW  HW  HW  OW  HW  HW  OW  HW  HW  OW  HW  HW  OW  HW  HW  
OW  HW  HW  OW  HW  HW  OW  HW  HW  OW  HW  HW  OW  HW  HW  OW  HW  HW  OW  HW  
HW  OW  HW  HW  OW  HW  HW  OW  HW  HW  OW  HW  HW  OW  HW  HW  OW  HW  HW  OW  
HW  HW  OW  HW  HW  OW  HW  HW  OW  HW  HW  OW  HW  HW  OW  HW  HW  OW  HW  HW  
OW  HW  HW  OW  HW  HW  OW  HW  HW  OW  HW  HW  OW  HW  HW  OW  HW  HW  OW  HW  
HW  OW  HW  HW  OW  HW  HW  OW  HW  HW  OW  HW  HW  OW  HW  HW  OW  HW  HW  OW  
HW  HW  OW  HW  HW  OW  HW  HW  OW  HW  HW  OW  HW  HW  OW  HW  HW  OW  HW  HW  
OW  HW  HW  OW  HW  HW  OW  HW  HW  OW  HW  HW  OW  HW  HW  OW  HW  HW  OW  HW  
HW  OW  HW  HW  OW  HW  HW  OW  HW  HW  OW  HW  HW  OW  HW  HW  OW  HW  HW  OW  
HW  HW  OW  HW  HW  OW  HW  HW  OW  HW  HW  OW  HW  HW  OW  HW  HW  OW  HW  HW  
OW  HW  HW  OW  HW  HW  OW  HW  HW  OW  HW  HW  OW  HW  HW  OW  HW  HW  OW  HW  
HW  OW  HW  HW  OW  HW  HW  OW  HW  HW  OW  HW  HW  OW  HW  HW  OW  HW  HW  OW  
HW  HW  OW  HW  HW  OW  HW  HW  OW  HW  HW  OW  HW  HW  OW  HW  HW  OW  HW  HW  
OW  HW  HW  OW  HW  HW  OW  HW  HW  OW  HW  HW  OW  HW  HW  OW  HW  HW  OW  HW  
HW  OW  HW  HW  OW  HW  HW  OW  HW  HW  OW  HW  HW  OW  HW  HW  OW  HW  HW  OW  
HW  HW  OW  HW  HW  OW  HW  HW  OW  HW  HW  OW  HW  HW  OW  HW  HW  OW  HW  HW  
OW  HW  HW  OW  HW  HW  OW  HW  HW  OW  HW  HW  OW  HW  HW  OW  HW  HW  OW  HW  
HW  OW  HW  HW  OW  HW  HW  OW  HW  HW  OW  HW  HW  OW  HW  HW  OW  HW  HW  OW  
HW  HW  OW  HW  HW  OW  HW  HW  OW  HW  HW  OW  HW  HW  OW  HW  HW  OW  HW  HW  
OW  HW  HW  OW  HW  HW  OW  HW  HW  OW  HW  HW  OW  HW  HW  OW  HW  HW  OW  HW  
HW  OW  HW  HW  OW  HW  HW  OW  HW  HW  OW  HW  HW  OW  HW  HW  OW  HW  HW  OW  
HW  HW  OW  HW  HW  OW  HW  HW  OW  HW  HW  OW  HW  HW  OW  HW  HW  OW  HW  HW  
OW  HW  HW  OW  HW  HW  OW  HW  HW  OW  HW  HW  OW  HW  HW  OW  HW  HW  OW  HW  
HW  OW  HW  HW  OW  HW  HW  OW  HW  HW  OW  HW  HW  OW  HW  HW  OW  HW  HW  OW  
HW  HW  OW  HW  HW  OW  HW  HW  OW  HW  HW  OW  HW  HW  OW  HW  HW  OW  HW  HW  
OW  HW  HW  OW  HW  HW  OW  HW  HW  OW  HW  HW  OW  HW  HW  OW  HW  HW  OW  HW  
HW  OW  HW  HW  OW  HW  HW  OW  HW  HW  OW  HW  HW  OW  HW  HW  OW  HW  HW  OW  
HW  HW  OW  HW  HW  OW  HW  HW  OW  HW  HW  OW  HW  HW  OW  HW  HW  OW  HW  HW  
OW  HW  HW  OW  HW  HW  OW  HW  HW  OW  HW  HW  OW  HW  HW  OW  HW  HW  OW  HW  
HW  OW  HW  HW  OW  HW  HW  OW  HW  HW  OW  HW  HW  OW  HW  HW  OW  HW  HW  OW  
HW  HW  OW  HW  HW  OW  HW  HW  OW  HW  HW  OW  HW  HW  OW  HW  HW  OW  HW  HW  
OW  HW  HW  OW  HW  HW  OW  HW  HW  OW  HW  HW  OW  HW  HW  OW  HW  HW  OW  HW  
HW  OW  HW  HW  OW  HW  HW  OW  HW  HW  OW  HW  HW  OW  HW  HW  OW  HW  HW  OW  
HW  HW  OW  HW  HW  OW  HW  HW  OW  HW  HW  OW  HW  HW  OW  HW  HW  OW  HW  HW  
OW  HW  HW  OW  HW  HW  OW  HW  HW  OW  HW  HW  OW  HW  HW  OW  HW  HW  OW  HW  
HW  OW  HW  HW  OW  HW  HW  OW  HW  HW  OW  HW  HW  OW  HW  HW  OW  HW  HW  OW  
HW  HW  OW  HW  HW  OW  HW  HW  OW  HW  HW  OW  HW  HW  OW  HW  HW  OW  HW  HW  
OW  HW  HW  OW  HW  HW  OW  HW  HW  OW  HW  HW  OW  HW  HW  OW  HW  HW  OW  HW  
HW  OW  HW  HW  OW  HW  HW  OW  HW  HW  OW  HW  HW  OW  HW  HW  OW  HW  HW  OW  
HW  HW  OW  HW  HW  OW  HW  HW  OW  HW  HW  OW  HW  HW  OW  HW  HW  OW  HW  HW  
OW  HW  HW  OW  HW  HW  OW  HW  HW  OW  HW  HW  OW  HW  HW  OW  HW  HW  OW  HW  
HW  OW  HW  HW  OW  HW  HW  OW  HW  HW  OW  HW  HW  OW  HW  HW  OW  HW  HW  OW  
HW  HW  OW  HW  HW  OW  HW  HW  OW  HW  HW  OW  HW  HW  OW  HW  HW  OW  HW  HW  
OW  HW  HW  OW  HW  HW  OW  HW  HW  OW  HW  HW  OW  HW  HW  OW  HW  HW  OW  HW  
HW  OW  HW  HW  OW  HW  HW  OW  HW  HW  OW  HW  HW  OW  HW  HW  OW  HW  HW  OW  
HW  HW  OW  HW  HW  OW  HW  HW  OW  HW  HW  OW  HW  HW  OW  HW  HW  OW  HW  HW  
OW  HW  HW  OW  HW  HW  OW  HW  HW  OW  HW  HW  OW  HW  HW  OW  HW  HW  OW  HW  
HW  OW  HW  HW  OW  HW  HW  OW  HW  HW  OW  HW  HW  OW  HW  HW  OW  HW  HW  OW  
HW  HW  OW  HW  HW  OW  HW  HW  OW  HW  HW  OW  HW  HW  OW  HW  HW  OW  HW  HW  
OW  HW  HW  OW  HW  HW  OW  HW  HW  OW  HW  HW  OW  HW  HW  OW  HW  HW  OW  HW  
HW  OW  HW  HW  OW  HW  HW  OW  HW  HW  OW  HW  HW  OW  HW  HW  OW  HW  HW  OW  
HW  HW  OW  HW  HW  OW  HW  HW  OW  HW  HW  OW  HW  HW  OW  HW  HW  OW  HW  HW  
OW  HW  HW  OW  HW  HW  OW  HW  HW  OW  HW  HW  OW  HW  HW  OW  HW  HW  OW  HW  
HW  OW  HW  HW  OW  HW  HW  OW  HW  HW  OW  HW  HW  OW  HW  HW  OW  HW  HW  OW  
HW  HW  OW  HW  HW  OW  HW  HW  OW  HW  HW  OW  HW  HW  OW  HW  HW  OW  HW  HW  
OW  HW  HW  OW  HW  HW  OW  HW  HW  OW  HW  HW  OW  HW  HW  OW  HW  HW  OW  HW  
HW  OW  HW  HW  OW  HW  HW  OW  HW  HW  OW  HW  HW  OW  HW  HW  OW  HW  HW  OW  
HW  HW  OW  HW  HW  OW  HW  HW  OW  HW  HW  OW  HW  HW  OW  HW  HW  OW  HW  HW  
OW  HW  HW  OW  HW  HW  OW  HW  HW  OW  HW  HW  OW  HW  HW  OW  HW  HW  OW  HW  
HW  OW  HW  HW  OW  HW  HW  OW  HW  HW  OW  HW  HW  OW  HW  HW  OW  HW  HW  OW  
HW  HW  OW  HW  HW  OW  HW  HW  OW  HW  HW  OW  HW  HW  OW  HW  HW  OW  HW  HW  
OW  HW  HW  OW  HW  HW  OW  HW  HW  OW  HW  HW  OW  HW  HW  OW  HW  HW  OW  HW  
HW  OW  HW  HW  OW  HW  HW  OW  HW  HW  OW  HW  HW  OW  HW  HW  OW  HW  HW  OW  
HW  HW  OW  HW  HW  OW  HW  HW  OW  HW  HW  OW  HW  HW  OW  HW  HW  OW  HW  HW  
OW  HW  HW  OW  HW  HW  OW  HW  HW  OW  HW  HW  OW  HW  HW  OW  HW  HW  OW  HW  
HW  OW  HW  HW  OW  HW  HW  OW  HW  HW  OW  HW  HW  OW  HW  HW  OW  HW  HW  OW  
HW  HW  OW  HW  HW  OW  HW  HW  OW  HW  HW  OW  HW  HW  OW  HW  HW  OW  HW  HW  
OW  HW  HW  OW  HW  HW  OW  HW  HW  OW  HW  HW  OW  HW  HW  OW  HW  HW  OW  HW  
HW  OW  HW  HW  OW  HW  HW  OW  HW  HW  OW  HW  HW  OW  HW  HW  OW  HW  HW  OW  
HW  HW  OW  HW  HW  OW  HW  HW  OW  HW  HW  OW  HW  HW  OW  HW  HW  OW  HW  HW  
OW  HW  HW  OW  HW  HW  OW  HW  HW  OW  HW  HW  OW  HW  HW  OW  HW  HW  OW  HW  
HW  OW  HW  HW  OW  HW  HW  OW  HW  HW  OW  HW  HW  OW  HW  HW  OW  HW  HW  OW  
HW  HW  OW  HW  HW  OW  HW  HW  OW  HW  HW  OW  HW  HW  OW  HW  HW  OW  HW  HW  
OW  HW  HW  OW  HW  HW  OW  HW  HW  OW  HW  HW  OW  HW  HW  OW  HW  HW  OW  HW  
HW  OW  HW  HW  OW  HW  HW  OW  HW  HW  OW  HW  HW  OW  HW  HW  OW  HW  HW  OW  
HW  HW  OW  HW  HW  OW  HW  HW  OW  HW  HW  OW  HW  HW  OW  HW  HW  OW  HW  HW  
OW  HW  HW  OW  HW  HW  OW  HW  HW  OW  HW  HW  OW  HW  HW  OW  HW  HW  OW  HW  
HW  OW  HW  HW  OW  HW  HW  OW  HW  HW  OW  HW  HW  OW  HW  HW  OW  HW  HW  OW  
HW  HW  OW  HW  HW  OW  HW  HW  OW  HW  HW  OW  HW  HW  OW  HW  HW  OW  HW  HW  
OW  HW  HW  OW  HW  HW  OW  HW  HW  OW  HW  HW  OW  HW  HW  OW  HW  HW  OW  HW  
HW  OW  HW  HW  OW  HW  HW  OW  HW  HW  OW  HW  HW  OW  HW  HW  OW  HW  HW  OW  
HW  HW  OW  HW  HW  OW  HW  HW  OW  HW  HW  OW  HW  HW  OW  HW  HW  OW  HW  HW  
OW  HW  HW  OW  HW  HW  OW  HW  HW  OW  HW  HW  OW  HW  HW  OW  HW  HW  OW  HW  
HW  OW  HW  HW  OW  HW  HW  OW  HW  HW  OW  HW  HW  OW  HW  HW  OW  HW  HW  OW  
HW  HW  OW  HW  HW  OW  HW  HW  OW  HW  HW  OW  HW  HW  OW  HW  HW  OW  HW  HW  
OW  HW  HW  OW  HW  HW  OW  HW  HW  OW  HW  HW  OW  HW  HW  OW  HW  HW  OW  HW  
HW  OW  HW  HW  OW  HW  HW  OW  HW  HW  OW  HW  HW  OW  HW  HW  OW  HW  HW  OW  
HW  HW  OW  HW  HW  OW  HW  HW  OW  HW  HW  OW  HW  HW  OW  HW  HW  OW  HW  HW  
OW  HW  HW  OW  HW  HW  OW  HW  HW  OW  HW  HW  OW  HW  HW  OW  HW  HW  OW  HW  
HW  OW  HW  HW  OW  HW  HW  OW  HW  HW  OW  HW  HW  OW  HW  HW  OW  HW  HW  OW  
HW  HW  OW  HW  HW  OW  HW  HW  OW  HW  HW  OW  HW  HW  OW  HW  HW  OW  HW  HW  
OW  HW  HW  OW  HW  HW  OW  HW  HW  OW  HW  HW  OW  HW  HW  OW  HW  HW  OW  HW  
HW  OW  HW  HW  OW  HW  HW  OW  HW  HW  OW  HW  HW  OW  HW  HW  OW  HW  HW  OW  
HW  HW  OW  HW  HW  OW  HW  HW  OW  HW  HW  OW  HW  HW  OW  HW  HW  OW  HW  HW  
OW  HW  HW  OW  HW  HW  OW  HW  HW  OW  HW  HW  OW  HW  HW  OW  HW  HW  OW  HW  
HW  OW  HW  HW  OW  HW  HW  OW  HW  HW  OW  HW  HW  OW  HW  HW  OW  HW  HW  OW  
HW  HW  OW  HW  HW  OW  HW  HW  OW  HW  HW  OW  HW  HW  OW  HW  HW  OW  HW  HW  
OW  HW  HW  OW  HW  HW  OW  HW  HW  OW  HW  HW  OW  HW  HW  OW  HW  HW  OW  HW  
HW  OW  HW  HW  OW  HW  HW  OW  HW  HW  OW  HW  HW  OW  HW  HW  OW  HW  HW  OW  
HW  HW  OW  HW  HW  OW  HW  HW  OW  HW  HW  OW  HW  HW  OW  HW  HW  OW  HW  HW  
OW  HW  HW  OW  HW  HW  OW  HW  HW  OW  HW  HW  OW  HW  HW  OW  HW  HW  OW  HW  
HW  OW  HW  HW  OW  HW  HW  OW  HW  HW  OW  HW  HW  OW  HW  HW  OW  HW  HW  OW  
HW  HW  OW  HW  HW  OW  HW  HW  OW  HW  HW  OW  HW  HW  OW  HW  HW  OW  HW  HW  
OW  HW  HW  OW  HW  HW  OW  HW  HW  OW  HW  HW  OW  HW  HW  OW  HW  HW  OW  HW  
HW  OW  HW  HW  OW  HW  HW  OW  HW  HW  OW  HW  HW  OW  HW  HW  OW  HW  HW  OW  
HW  HW  OW  HW  HW  OW  HW  HW  OW  HW  HW  OW  HW  HW  OW  HW  HW  OW  HW  HW  
OW  HW  HW  OW  HW  HW  OW  HW  HW  OW  HW  HW  OW  HW  HW  OW  HW  HW  OW  HW  
HW  OW  HW  HW  OW  HW  HW  OW  HW  HW  OW  HW  HW  OW  HW  HW  OW  HW  HW  OW  
HW  HW  OW  HW  HW  OW  HW  HW  OW  HW  HW  OW  HW  HW  OW  HW  HW  OW  HW  HW  
OW  HW  HW  OW  HW  HW  OW  HW  HW  OW  HW  HW  OW  HW  HW  OW  HW  HW  OW  HW  
HW  OW  HW  HW  OW  HW  HW  OW  HW  HW  OW  HW  HW  OW  HW  HW  OW  HW  HW  OW  
HW  HW  OW  HW  HW  OW  HW  HW  OW  HW  HW  OW  HW  HW  OW  HW  HW  OW  HW  HW  
OW  HW  HW  OW  HW  HW  OW  HW  HW  OW  HW  HW  OW  HW  HW  OW  HW  HW  OW  HW  
HW  OW  HW  HW  OW  HW  HW  OW  HW  HW  OW  HW  HW  OW  HW  HW  OW  HW  HW  OW  
HW  HW  OW  HW  HW  OW  HW  HW  OW  HW  HW  OW  HW  HW  OW  HW  HW  OW  HW  HW  
OW  HW  HW  OW  HW  HW  OW  HW  HW  OW  HW  HW  OW  HW  HW  OW  HW  HW  OW  HW  
HW  OW  HW  HW  OW  HW  HW  OW  HW  HW  OW  HW  HW  OW  HW  HW  OW  HW  HW  OW  
HW  HW  OW  HW  HW  OW  HW  HW  OW  HW  HW  OW  HW  HW  OW  HW  HW  OW  HW  HW  
OW  HW  HW  OW  HW  HW  OW  HW  HW  OW  HW  HW  OW  HW  HW  OW  HW  HW  OW  HW  
HW  OW  HW  HW  OW  HW  HW  OW  HW  HW  OW  HW  HW  OW  HW  HW  OW  HW  HW  OW  
HW  HW  OW  HW  HW  OW  HW  HW  OW  HW  HW  OW  HW  HW  OW  HW  HW  OW  HW  HW  
OW  HW  HW  OW  HW  HW  OW  HW  HW  OW  HW  HW  OW  HW  HW  OW  HW  HW  OW  HW  
HW  OW  HW  HW  OW  HW  HW  OW  HW  HW  OW  HW  HW  OW  HW  HW  OW  HW  HW  OW  
HW  HW  OW  HW  HW  OW  HW  HW  OW  HW  HW  OW  HW  HW  OW  HW  HW  OW  HW  HW  
OW  HW  HW  OW  HW  HW  OW  HW  HW  OW  HW  HW  OW  HW  HW  OW  HW  HW  OW  HW  
HW  OW  HW  HW  OW  HW  HW  OW  HW  HW  OW  HW  HW  OW  HW  HW  OW  HW  HW  OW  
HW  HW  OW  HW  HW  OW  HW  HW  OW  HW  HW  OW  HW  HW  OW  HW  HW  OW  HW  HW  
OW  HW  HW  OW  HW  HW  OW  HW  HW  OW  HW  HW  OW  HW  HW  OW  HW  HW  OW  HW  
HW  OW  HW  HW  OW  HW  HW  OW  HW  HW  OW  HW  HW  OW  HW  HW  OW  HW  HW  OW  
HW  HW  OW  HW  HW  OW  HW  HW  OW  HW  HW  OW  HW  HW  OW  HW  HW  OW  HW  HW  
OW  HW  HW  OW  HW  HW  OW  HW  HW  OW  HW  HW  OW  HW  HW  OW  HW  HW  OW  HW  
HW  OW  HW  HW  OW  HW  HW  OW  HW  HW  OW  HW  HW  OW  HW  HW  OW  HW  HW  OW  
HW  HW  OW  HW  HW  OW  HW  HW  OW  HW  HW  OW  HW  HW  OW  HW  HW  OW  HW  HW  
OW  HW  HW  OW  HW  HW  OW  HW  HW  OW  HW  HW  OW  HW  HW  OW  HW  HW  OW  HW  
HW  OW  HW  HW  OW  HW  HW  OW  HW  HW  OW  HW  HW  OW  HW  HW  OW  HW  HW  OW  
HW  HW  OW  HW  HW  OW  HW  HW  OW  HW  HW  OW  HW  HW  OW  HW  HW  OW  HW  HW  
OW  HW  HW  OW  HW  HW  OW  HW  HW  OW  HW  HW  OW  HW  HW  OW  HW  HW  OW  HW  
HW  OW  HW  HW  OW  HW  HW  OW  HW  HW  OW  HW  HW  OW  HW  HW  OW  HW  HW  OW  
HW  HW  OW  HW  HW  OW  HW  HW  OW  HW  HW  OW  HW  HW  OW  HW  HW  OW  HW  HW  
OW  HW  HW  OW  HW  HW  OW  HW  HW  OW  HW  HW  OW  HW  HW  OW  HW  HW  OW  HW  
HW  OW  HW  HW  OW  HW  HW  OW  HW  HW  OW  HW  HW  OW  HW  HW  OW  HW  HW  OW  
HW  HW  OW  HW  HW  OW  HW  HW  OW  HW  HW  OW  HW  HW  OW  HW  HW  OW  HW  HW  
OW  HW  HW  OW  HW  HW  OW  HW  HW  OW  HW  HW  OW  HW  HW  OW  HW  HW  OW  HW  
HW  OW  HW  HW  OW  HW  HW  OW  HW  HW  OW  HW  HW  OW  HW  HW  OW  HW  HW  OW  
HW  HW  OW  HW  HW  OW  HW  HW  OW  HW  HW  OW  HW  HW  OW  HW  HW  OW  HW  HW  
OW  HW  HW  OW  HW  HW  OW  HW  HW  OW  HW  HW  OW  HW  HW  OW  HW  HW  OW  HW  
HW  OW  HW  HW  OW  HW  HW  OW  HW  HW  OW  HW  HW  OW  HW  HW  OW  HW  HW  OW  
HW  HW  OW  HW  HW  OW  HW  HW  OW  HW  HW  OW  HW  HW  OW  HW  HW  OW  HW  HW  
OW  HW  HW  OW  HW  HW  OW  HW  HW  OW  HW  HW  OW  HW  HW  OW  HW  HW  OW  HW  
HW  OW  HW  HW  OW  HW  HW  OW  HW  HW  OW  HW  HW  OW  HW  HW  OW  HW  HW  OW  
HW  HW  OW  HW  HW  OW  HW  HW  OW  HW  HW  OW  HW  HW  OW  HW  HW  OW  HW  HW  
OW  HW  HW  OW  HW  HW  OW  HW  HW  OW  HW  HW  OW  HW  HW  OW  HW  HW  OW  HW  
HW  OW  HW  HW  OW  HW  HW  OW  HW  HW  OW  HW  HW  OW  HW  HW  OW  HW  HW  OW  
HW  HW  OW  HW  HW  OW  HW  HW  OW  HW  HW  OW  HW  HW  OW  HW  HW  OW  HW  HW  
OW  HW  HW  OW  HW  HW  OW  HW  HW  OW  HW  HW  OW  HW  HW  OW  HW  HW  OW  HW  
HW  OW  HW  HW  OW  HW  HW  OW  HW  HW  OW  HW  HW  OW  HW  HW  OW  HW  HW  OW  
HW  HW  OW  HW  HW  OW  HW  HW  OW  HW  HW  OW  HW  HW  OW  HW  HW  OW  HW  HW  
OW  HW  HW  OW  HW  HW  OW  HW  HW  OW  HW  HW  OW  HW  HW  OW  HW  HW  OW  HW  
HW  OW  HW  HW  OW  HW  HW  OW  HW  HW  OW  HW  HW  OW  HW  HW  OW  HW  HW  OW  
HW  HW  OW  HW  HW  OW  HW  HW  OW  HW  HW  OW  HW  HW  OW  HW  HW  OW  HW  HW  
OW  HW  HW  OW  HW  HW  OW  HW  HW  OW  HW  HW  OW  HW  HW  OW  HW  HW  OW  HW  
HW  OW  HW  HW  OW  HW  HW  OW  HW  HW  OW  HW  HW  OW  HW  HW  OW  HW  HW  OW  
HW  HW  OW  HW  HW  OW  HW  HW  OW  HW  HW  OW  HW  HW  OW  HW  HW  OW  HW  HW  
OW  HW  HW  OW  HW  HW  OW  HW  HW  OW  HW  HW  OW  HW  HW  OW  HW  HW  OW  HW  
HW  OW  HW  HW  OW  HW  HW  OW  HW  HW  OW  HW  HW  OW  HW  HW  OW  HW  HW  OW  
HW  HW  OW  HW  HW  OW  HW  HW  OW  HW  HW  OW  HW  HW  OW  HW  HW  OW  HW  HW  
OW  HW  HW  OW  HW  HW  OW  HW  HW  OW  HW  HW  OW  HW  HW  OW  HW  HW  OW  HW  
HW  OW  HW  HW  OW  HW  HW  OW  HW  HW  OW  HW  HW  OW  HW  HW  OW  HW  HW  OW  
HW  HW  OW  HW  HW  OW  HW  HW  OW  HW  HW  OW  HW  HW  OW  HW  HW  OW  HW  HW  
OW  HW  HW  OW  HW  HW  OW  HW  HW  OW  HW  HW  OW  HW  HW  OW  HW  HW  OW  HW  
HW  OW  HW  HW  OW  HW  HW  OW  HW  HW  OW  HW  HW  OW  HW  HW  OW  HW  HW  OW  
HW  HW  OW  HW  HW  OW  HW  HW  OW  HW  HW  OW  HW  HW  OW  HW  HW  OW  HW  HW  
OW  HW  HW  OW  HW  HW  OW  HW  HW  OW  HW  HW  OW  HW  HW  OW  HW  HW  OW  HW  
HW  OW  HW  HW  OW  HW  HW  OW  HW  HW  OW  HW  HW  OW  HW  HW  OW  HW  HW  OW  
HW  HW  OW  HW  HW  OW  HW  HW  OW  HW  HW  OW  HW  HW  OW  HW  HW  OW  HW  HW  
OW  HW  HW  OW  HW  HW  OW  HW  HW  OW  HW  HW  OW  HW  HW  OW  HW  HW  OW  HW  
HW  OW  HW  HW  OW  HW  HW  OW  HW  HW  OW  HW  HW  OW  HW  HW  OW  HW  HW  OW  
HW  HW  OW  HW  HW  OW  HW  HW  OW  HW  HW  OW  HW  HW  OW  HW  HW  OW  HW  HW  
OW  HW  HW  OW  HW  HW  OW  HW  HW  OW  HW  HW  OW  HW  HW  OW  HW  HW  OW  HW  
HW  OW  HW  HW  OW  HW  HW  OW  HW  HW  OW  HW  HW  OW  HW  HW  OW  HW  HW  OW  
HW  HW  OW  HW  HW  OW  HW  HW  OW  HW  HW  OW  HW  HW  OW  HW  HW  OW  HW  HW  
OW  HW  HW  OW  HW  HW  OW  HW  HW  OW  HW  HW  OW  HW  HW  OW  HW  HW  OW  HW  
HW  OW  HW  HW  OW  HW  HW  OW  HW  HW  OW  HW  HW  OW  HW  HW  OW  HW  HW  OW  
HW  HW  OW  HW  HW  OW  HW  HW  OW  HW  HW  OW  HW  HW  OW  HW  HW  OW  HW  HW  
OW  HW  HW  OW  HW  HW  OW  HW  HW  OW  HW  HW  OW  HW  HW  OW  HW  HW  OW  HW  
HW  OW  HW  HW  OW  HW  HW  OW  HW  HW  OW  HW  HW  OW  HW  HW  OW  HW  HW  OW  
HW  HW  OW  HW  HW  OW  HW  HW  OW  HW  HW  OW  HW  HW  OW  HW  HW  OW  HW  HW  
OW  HW  HW  OW  HW  HW  OW  HW  HW  OW  HW  HW  OW  HW  HW  OW  HW  HW  OW  HW  
HW  OW  HW  HW  OW  HW  HW  OW  HW  HW  OW  HW  HW  OW  HW  HW  OW  HW  HW  OW  
HW  HW  OW  HW  HW  OW  HW  HW  OW  HW  HW  OW  HW  HW  OW  HW  HW  OW  HW  HW  
OW  HW  HW  OW  HW  HW  OW  HW  HW  OW  HW  HW  OW  HW  HW  OW  HW  HW  OW  HW  
HW  OW  HW  HW  OW  HW  HW  OW  HW  HW  OW  HW  HW  OW  HW  HW  OW  HW  HW  OW  
HW  HW  OW  HW  HW  OW  HW  HW  OW  HW  HW  OW  HW  HW  OW  HW  HW  OW  HW  HW  
OW  HW  HW  OW  HW  HW  OW  HW  HW  OW  HW  HW  OW  HW  HW  OW  HW  HW  OW  HW  
HW  OW  HW  HW  OW  HW  HW  OW  HW  HW  OW  HW  HW  OW  HW  HW  OW  HW  HW  OW  
HW  HW  OW  HW  HW  OW  HW  HW  OW  HW  HW  OW  HW  HW  OW  HW  HW  OW  HW  HW  
OW  HW  HW  OW  HW  HW  OW  HW  HW  OW  HW  HW  OW  HW  HW  OW  HW  HW  OW  HW  
HW  OW  HW  HW  OW  HW  HW  OW  HW  HW  OW  HW  HW  OW  HW  HW  OW  HW  HW  OW  
HW  HW  OW  HW  HW  OW  HW  HW  OW  HW  HW  OW  HW  HW  OW  HW  HW  OW  HW  HW  
OW  HW  HW  OW  HW  HW  OW  HW  HW  OW  HW  HW  OW  HW  HW  OW  HW  HW  OW  HW  
HW  OW  HW  HW  OW  HW  HW  OW  HW  HW  OW  HW  HW  OW  HW  HW  OW  HW  HW  OW  
HW  HW  OW  HW  HW  OW  HW  HW  OW  HW  HW  OW  HW  HW  OW  HW  HW  OW  HW  HW  
OW  HW  HW  OW  HW  HW  OW  HW  HW  OW  HW  HW  OW  HW  HW  OW  HW  HW  OW  HW  
HW  OW  HW  HW  OW  HW  HW  OW  HW  HW  OW  HW  HW  OW  HW  HW  OW  HW  HW  OW  
HW  HW  OW  HW  HW  OW  HW  HW  OW  HW  HW  OW  HW  HW  OW  HW  HW  OW  HW  HW  
OW  HW  HW  OW  HW  HW  OW  HW  HW  OW  HW  HW  OW  HW  HW  OW  HW  HW  OW  HW  
HW  OW  HW  HW  OW  HW  HW  OW  HW  HW  OW  HW  HW  OW  HW  HW  OW  HW  HW  OW  
HW  HW  OW  HW  HW  OW  HW  HW  OW  HW  HW  OW  HW  HW  OW  HW  HW  OW  HW  HW  
OW  HW  HW  OW  HW  HW  OW  HW  HW  OW  HW  HW  OW  HW  HW  OW  HW  HW  OW  HW  
HW  OW  HW  HW  OW  HW  HW  OW  HW  HW  OW  HW  HW  OW  HW  HW  OW  HW  HW  OW  
HW  HW  OW  HW  HW  OW  HW  HW  OW  HW  HW  OW  HW  HW  OW  HW  HW  OW  HW  HW  
OW  HW  HW  OW  HW  HW  OW  HW  HW  OW  HW  HW  OW  HW  HW  OW  HW  HW  OW  HW  
HW  OW  HW  HW  OW  HW  HW  OW  HW  HW  OW  HW  HW  OW  HW  HW  OW  HW  HW  OW  
HW  HW  OW  HW  HW  OW  HW  HW  OW  HW  HW  OW  HW  HW  OW  HW  HW  OW  HW  HW  
OW  HW  HW  OW  HW  HW  OW  HW  HW  OW  HW  HW  OW  HW  HW  OW  HW  HW  OW  HW  
HW  OW  HW  HW  OW  HW  HW  OW  HW  HW  OW  HW  HW  OW  HW  HW  OW  HW  HW  OW  
HW  HW  OW  HW  HW  OW  HW  HW  OW  HW  HW  OW  HW  HW  OW  HW  HW  OW  HW  HW  
OW  HW  HW  OW  HW  HW  OW  HW  HW  OW  HW  HW  OW  HW  HW  OW  HW  HW  OW  HW  
HW  OW  HW  HW  OW  HW  HW  OW  HW  HW  OW  HW  HW  OW  HW  HW  OW  HW  HW  OW  
HW  HW  OW  HW  HW  OW  HW  HW  OW  HW  HW  OW  HW  HW  OW  HW  HW  OW  HW  HW  
OW  HW  HW  OW  HW  HW  OW  HW  HW  OW  HW  HW  OW  HW  HW  OW  HW  HW  OW  HW  
HW  OW  HW  HW  OW  HW  HW  OW  HW  HW  OW  HW  HW  OW  HW  HW  OW  HW  HW  OW  
HW  HW  OW  HW  HW  OW  HW  HW  OW  HW  HW  OW  HW  HW  OW  HW  HW  OW  HW  HW  
OW  HW  HW  OW  HW  HW  OW  HW  HW  OW  HW  HW  OW  HW  HW  OW  HW  HW  OW  HW  
HW  OW  HW  HW  OW  HW  HW  OW  HW  HW  OW  HW  HW  OW  HW  HW  OW  HW  HW  OW  
HW  HW  OW  HW  HW  OW  HW  HW  OW  HW  HW  OW  HW  HW  OW  HW  HW  OW  HW  HW  
OW  HW  HW  OW  HW  HW  OW  HW  HW  OW  HW  HW  OW  HW  HW  OW  HW  HW  OW  HW  
HW  OW  HW  HW  OW  HW  HW  OW  HW  HW  OW  HW  HW  OW  HW  HW  OW  HW  HW  OW  
HW  HW  OW  HW  HW  OW  HW  HW  OW  HW  HW  OW  HW  HW  OW  HW  HW  OW  HW  HW  
OW  HW  HW  OW  HW  HW  OW  HW  HW  OW  HW  HW  OW  HW  HW  OW  HW  HW  OW  HW  
HW  OW  HW  HW  OW  HW  HW  OW  HW  HW  OW  HW  HW  OW  HW  HW  OW  HW  HW  OW  
HW  HW  OW  HW  HW  OW  HW  HW  OW  HW  HW  OW  HW  HW  OW  HW  HW  OW  HW  HW  
OW  HW  HW  OW  HW  HW  OW  HW  HW  OW  HW  HW  OW  HW  HW  OW  HW  HW  OW  HW  
HW  OW  HW  HW  OW  HW  HW  OW  HW  HW  OW  HW  HW  OW  HW  HW  OW  HW  HW  OW  
HW  HW  OW  HW  HW  OW  HW  HW  OW  HW  HW  OW  HW  HW  OW  HW  HW  OW  HW  HW  
OW  HW  HW  OW  HW  HW  OW  HW  HW  OW  HW  HW  OW  HW  HW  OW  HW  HW  OW  HW  
HW  OW  HW  HW  OW  HW  HW  OW  HW  HW  OW  HW  HW  OW  HW  HW  OW  HW  HW  OW  
HW  HW  OW  HW  HW  OW  HW  HW  OW  HW  HW  OW  HW  HW  OW  HW  HW  OW  HW  HW  
OW  HW  HW  OW  HW  HW  OW  HW  HW  OW  HW  HW  OW  HW  HW  OW  HW  HW  OW  HW  
HW  OW  HW  HW  OW  HW  HW  OW  HW  HW  OW  HW  HW  OW  HW  HW  OW  HW  HW  OW  
HW  HW  OW  HW  HW  OW  HW  HW  OW  HW  HW  OW  HW  HW  OW  HW  HW  OW  HW  HW  
OW  HW  HW  OW  HW  HW  OW  HW  HW  OW  HW  HW  OW  HW  HW  OW  HW  HW  OW  HW  
HW  OW  HW  HW  OW  HW  HW  OW  HW  HW  OW  HW  HW  OW  HW  HW  OW  HW  HW  OW  
HW  HW  OW  HW  HW  OW  HW  HW  OW  HW  HW  OW  HW  HW  OW  HW  HW  OW  HW  HW  
OW  HW  HW  OW  HW  HW  OW  HW  HW  OW  HW  HW  OW  HW  HW  OW  HW  HW  OW  HW  
HW  OW  HW  HW  OW  HW  HW  OW  HW  HW  OW  HW  HW  OW  HW  HW  OW  HW  HW  OW  
HW  HW  OW  HW  HW  OW  HW  HW  OW  HW  HW  OW  HW  HW  OW  HW  HW  OW  HW  HW  
OW  HW  HW  OW  HW  HW  OW  HW  HW  OW  HW  HW  OW  HW  HW  OW  HW  HW  OW  HW  
HW  OW  HW  HW  OW  HW  HW  OW  HW  HW  OW  HW  HW  OW  HW  HW  OW  HW  HW  OW  
HW  HW  OW  HW  HW  OW  HW  HW  OW  HW  HW  OW  HW  HW  OW  HW  HW  OW  HW  HW  
OW  HW  HW  OW  HW  HW  OW  HW  HW  OW  HW  HW  OW  HW  HW  OW  HW  HW  OW  HW  
HW  OW  HW  HW  OW  HW  HW  OW  HW  HW  OW  HW  HW  OW  HW  HW  OW  HW  HW  OW  
HW  HW  OW  HW  HW  OW  HW  HW  OW  HW  HW  OW  HW  HW  OW  HW  HW  OW  HW  HW  
OW  HW  HW  OW  HW  HW  OW  HW  HW  OW  HW  HW  OW  HW  HW  OW  HW  HW  OW  HW  
HW  OW  HW  HW  OW  HW  HW  OW  HW  HW  OW  HW  HW  OW  HW  HW  OW  HW  HW  OW  
HW  HW  OW  HW  HW  OW  HW  HW  OW  HW  HW  OW  HW  HW  OW  HW  HW  OW  HW  HW  
OW  HW  HW  OW  HW  HW  OW  HW  HW  OW  HW  HW  OW  HW  HW  OW  HW  HW  OW  HW  
HW  OW  HW  HW  OW  HW  HW  OW  HW  HW  OW  HW  HW  OW  HW  HW  OW  HW  HW  OW  
HW  HW  OW  HW  HW  OW  HW  HW  OW  HW  HW  OW  HW  HW  OW  HW  HW  OW  HW  HW  
OW  HW  HW  OW  HW  HW  OW  HW  HW  OW  HW  HW  OW  HW  HW  OW  HW  HW  OW  HW  
HW  OW  HW  HW  OW  HW  HW  OW  HW  HW  OW  HW  HW  OW  HW  HW  OW  HW  HW  OW  
HW  HW  OW  HW  HW  OW  HW  HW  OW  HW  HW  OW  HW  HW  OW  HW  HW  OW  HW  HW  
OW  HW  HW  OW  HW  HW  OW  HW  HW  OW  HW  HW  OW  HW  HW  OW  HW  HW  OW  HW  
HW  OW  HW  HW  OW  HW  HW  OW  HW  HW  OW  HW  HW  OW  HW  HW  OW  HW  HW  OW  
HW  HW  OW  HW  HW  OW  HW  HW  OW  HW  HW  OW  HW  HW  OW  HW  HW  OW  HW  HW  
OW  HW  HW  OW  HW  HW  OW  HW  HW  OW  HW  HW  OW  HW  HW  OW  HW  HW  OW  HW  
HW  OW  HW  HW  OW  HW  HW  OW  HW  HW  OW  HW  HW  OW  HW  HW  OW  HW  HW  OW  
HW  HW  OW  HW  HW  OW  HW  HW  OW  HW  HW  OW  HW  HW  OW  HW  HW  OW  HW  HW  
OW  HW  HW  OW  HW  HW  OW  HW  HW  OW  HW  HW  OW  HW  HW  OW  HW  HW  OW  HW  
HW  OW  HW  HW  OW  HW  HW  OW  HW  HW  OW  HW  HW  OW  HW  HW  OW  HW  HW  OW  
HW  HW  OW  HW  HW  OW  HW  HW  OW  HW  HW  OW  HW  HW  OW  HW  HW  OW  HW  HW  
OW  HW  HW  OW  HW  HW  OW  HW  HW  OW  HW  HW  OW  HW  HW  OW  HW  HW  OW  HW  
HW  OW  HW  HW  OW  HW  HW  OW  HW  HW  OW  HW  HW  OW  HW  HW  OW  HW  HW  OW  
HW  HW  OW  HW  HW  OW  HW  HW  OW  HW  HW  OW  HW  HW  OW  HW  HW  OW  HW  HW  
OW  HW  HW  OW  HW  HW  OW  HW  HW  OW  HW  HW  OW  HW  HW  OW  HW  HW  OW  HW  
HW  OW  HW  HW  OW  HW  HW  OW  HW  HW  OW  HW  HW  OW  HW  HW  OW  HW  HW  OW  
HW  HW  OW  HW  HW  OW  HW  HW  OW  HW  HW  OW  HW  HW  OW  HW  HW  OW  HW  HW  
OW  HW  HW  OW  HW  HW  OW  HW  HW  OW  HW  HW  OW  HW  HW  OW  HW  HW  OW  HW  
HW  OW  HW  HW  OW  HW  HW  OW  HW  HW  OW  HW  HW  OW  HW  HW  OW  HW  HW  OW  
HW  HW  OW  HW  HW  OW  HW  HW  OW  HW  HW  OW  HW  HW  OW  HW  HW  OW  HW  HW  
OW  HW  HW  OW  HW  HW  OW  HW  HW  OW  HW  HW  OW  HW  HW  OW  HW  HW  OW  HW  
HW  OW  HW  HW  OW  HW  HW  OW  HW  HW  OW  HW  HW  OW  HW  HW  OW  HW  HW  OW  
HW  HW  OW  HW  HW  OW  HW  HW  OW  HW  HW  OW  HW  HW  OW  HW  HW  OW  HW  HW  
OW  HW  HW  OW  HW  HW  OW  HW  HW  OW  HW  HW  OW  HW  HW  OW  HW  HW  OW  HW  
HW  OW  HW  HW  OW  HW  HW  OW  HW  HW  OW  HW  HW  OW  HW  HW  OW  HW  HW  OW  
HW  HW  OW  HW  HW  OW  HW  HW  OW  HW  HW  OW  HW  HW  OW  HW  HW  OW  HW  HW  
OW  HW  HW  OW  HW  HW  OW  HW  HW  OW  HW  HW  OW  HW  HW  OW  HW  HW  OW  HW  
HW  OW  HW  HW  OW  HW  HW  OW  HW  HW  OW  HW  HW  OW  HW  HW  OW  HW  HW  OW  
HW  HW  OW  HW  HW  OW  HW  HW  OW  HW  HW  OW  HW  HW  OW  HW  HW  OW  HW  HW  
OW  HW  HW  OW  HW  HW  OW  HW  HW  OW  HW  HW  OW  HW  HW  OW  HW  HW  OW  HW  
HW  OW  HW  HW  OW  HW  HW  OW  HW  HW  OW  HW  HW  OW  HW  HW  OW  HW  HW  OW  
HW  HW  OW  HW  HW  OW  HW  HW  OW  HW  HW  OW  HW  HW  OW  HW  HW  OW  HW  HW  
OW  HW  HW  OW  HW  HW  OW  HW  HW  OW  HW  HW  OW  HW  HW  OW  HW  HW  OW  HW  
HW  OW  HW  HW  OW  HW  HW  OW  HW  HW  OW  HW  HW  OW  HW  HW  OW  HW  HW  OW  
HW  HW  OW  HW  HW  OW  HW  HW  OW  HW  HW  OW  HW  HW  OW  HW  HW  OW  HW  HW  
OW  HW  HW  OW  HW  HW  OW  HW  HW  OW  HW  HW  OW  HW  HW  OW  HW  HW  OW  HW  
HW  OW  HW  HW  OW  HW  HW  OW  HW  HW  OW  HW  HW  OW  HW  HW  OW  HW  HW  OW  
HW  HW  OW  HW  HW  OW  HW  HW  OW  HW  HW  OW  HW  HW  OW  HW  HW  OW  HW  HW  
OW  HW  HW  OW  HW  HW  OW  HW  HW  OW  HW  HW  OW  HW  HW  OW  HW  HW  OW  HW  
HW  OW  HW  HW  OW  HW  HW  OW  HW  HW  OW  HW  HW  OW  HW  HW  OW  HW  HW  OW  
HW  HW  OW  HW  HW  OW  HW  HW  OW  HW  HW  OW  HW  HW  OW  HW  HW  OW  HW  HW  
OW  HW  HW  OW  HW  HW  OW  HW  HW  OW  HW  HW  OW  HW  HW  OW  HW  HW  OW  HW  
HW  OW  HW  HW  OW  HW  HW  OW  HW  HW  OW  HW  HW  OW  HW  HW  OW  HW  HW  OW  
HW  HW  OW  HW  HW  OW  HW  HW  OW  HW  HW  OW  HW  HW  OW  HW  HW  OW  HW  HW  
OW  HW  HW  OW  HW  HW  OW  HW  HW  OW  HW  HW  OW  HW  HW  OW  HW  HW  OW  HW  
HW  OW  HW  HW  OW  HW  HW  OW  HW  HW  OW  HW  HW  OW  HW  HW  OW  HW  HW  OW  
HW  HW  OW  HW  HW  OW  HW  HW  OW  HW  HW  OW  HW  HW  OW  HW  HW  OW  HW  HW  
OW  HW  HW  OW  HW  HW  OW  HW  HW  OW  HW  HW  OW  HW  HW  OW  HW  HW  OW  HW  
HW  OW  HW  HW  OW  HW  HW  OW  HW  HW  OW  HW  HW  OW  HW  HW  OW  HW  HW  OW  
HW  HW  OW  HW  HW  OW  HW  HW  OW  HW  HW  OW  HW  HW  OW  HW  HW  OW  HW  HW  
OW  HW  HW  OW  HW  HW  OW  HW  HW  OW  HW  HW  OW  HW  HW  OW  HW  HW  OW  HW  
HW  OW  HW  HW  OW  HW  HW  OW  HW  HW  OW  HW  HW  OW  HW  HW  OW  HW  HW  OW  
HW  HW  OW  HW  HW  OW  HW  HW  OW  HW  HW  OW  HW  HW  OW  HW  HW  OW  HW  HW  
OW  HW  HW  OW  HW  HW  OW  HW  HW  OW  HW  HW  OW  HW  HW  OW  HW  HW  OW  HW  
HW  OW  HW  HW  OW  HW  HW  OW  HW  HW  OW  HW  HW  OW  HW  HW  OW  HW  HW  OW  
HW  HW  OW  HW  HW  OW  HW  HW  OW  HW  HW  OW  HW  HW  OW  HW  HW  OW  HW  HW  
OW  HW  HW  OW  HW  HW  OW  HW  HW  OW  HW  HW  OW  HW  HW  OW  HW  HW  OW  HW  
HW  OW  HW  HW  OW  HW  HW  OW  HW  HW  OW  HW  HW  OW  HW  HW  OW  HW  HW  OW  
HW  HW  OW  HW  HW  OW  HW  HW  OW  HW  HW  OW  HW  HW  OW  HW  HW  OW  HW  HW  
OW  HW  HW  OW  HW  HW  OW  HW  HW  OW  HW  HW  OW  HW  HW  OW  HW  HW  OW  HW  
HW  OW  HW  HW  OW  HW  HW  OW  HW  HW  OW  HW  HW  OW  HW  HW  OW  HW  HW  OW  
HW  HW  OW  HW  HW  OW  HW  HW  OW  HW  HW  OW  HW  HW  OW  HW  HW  OW  HW  HW  
OW  HW  HW  OW  HW  HW  OW  HW  HW  OW  HW  HW  OW  HW  HW  OW  HW  HW  OW  HW  
HW  OW  HW  HW  OW  HW  HW  OW  HW  HW  OW  HW  HW  OW  HW  HW  OW  HW  HW  OW  
HW  HW  OW  HW  HW  OW  HW  HW  OW  HW  HW  OW  HW  HW  OW  HW  HW  OW  HW  HW  
OW  HW  HW  OW  HW  HW  OW  HW  HW  OW  HW  HW  OW  HW  HW  OW  HW  HW  OW  HW  
HW  OW  HW  HW  OW  HW  HW  OW  HW  HW  OW  HW  HW  OW  HW  HW  OW  HW  HW  OW  
HW  HW  OW  HW  HW  OW  HW  HW  OW  HW  HW  OW  HW  HW  OW  HW  HW  OW  HW  HW  
OW  HW  HW  OW  HW  HW  OW  HW  HW  OW  HW  HW  OW  HW  HW  OW  HW  HW  OW  HW  
HW  OW  HW  HW  OW  HW  HW  OW  HW  HW  OW  HW  HW  OW  HW  HW  OW  HW  HW  OW  
HW  HW  OW  HW  HW  OW  HW  HW  OW  HW  HW  OW  HW  HW  OW  HW  HW  OW  HW  HW  
OW  HW  HW  OW  HW  HW  OW  HW  HW  OW  HW  HW  OW  HW  HW  OW  HW  HW  OW  HW  
HW  OW  HW  HW  OW  HW  HW  OW  HW  HW  OW  HW  HW  OW  HW  HW  OW  HW  HW  OW  
HW  HW  OW  HW  HW  OW  HW  HW  OW  HW  HW  OW  HW  HW  OW  HW  HW  OW  HW  HW  
OW  HW  HW  OW  HW  HW  OW  HW  HW  OW  HW  HW  OW  HW  HW  OW  HW  HW  OW  HW  
HW  OW  HW  HW  OW  HW  HW  OW  HW  HW  OW  HW  HW  OW  HW  HW  OW  HW  HW  OW  
HW  HW  OW  HW  HW  OW  HW  HW  OW  HW  HW  OW  HW  HW  OW  HW  HW  OW  HW  HW  
OW  HW  HW  OW  HW  HW  OW  HW  HW  OW  HW  HW  OW  HW  HW  OW  HW  HW  OW  HW  
HW  OW  HW  HW  OW  HW  HW  OW  HW  HW  OW  HW  HW  OW  HW  HW  OW  HW  HW  OW  
HW  HW  OW  HW  HW  OW  HW  HW  OW  HW  HW  OW  HW  HW  OW  HW  HW  OW  HW  HW  
OW  HW  HW  OW  HW  HW  OW  HW  HW  OW  HW  HW  OW  HW  HW  OW  HW  HW  OW  HW  
HW  OW  HW  HW  OW  HW  HW  OW  HW  HW  OW  HW  HW  OW  HW  HW  OW  HW  HW  OW  
HW  HW  OW  HW  HW  OW  HW  HW  OW  HW  HW  OW  HW  HW  OW  HW  HW  OW  HW  HW  
OW  HW  HW  OW  HW  HW  OW  HW  HW  OW  HW  HW  OW  HW  HW  OW  HW  HW  OW  HW  
HW  OW  HW  HW  OW  HW  HW  OW  HW  HW  OW  HW  HW  OW  HW  HW  OW  HW  HW  OW  
HW  HW  OW  HW  HW  OW  HW  HW  OW  HW  HW  OW  HW  HW  OW  HW  HW  OW  HW  HW  
OW  HW  HW  OW  HW  HW  OW  HW  HW  OW  HW  HW  OW  HW  HW  OW  HW  HW  OW  HW  
HW  OW  HW  HW  OW  HW  HW  OW  HW  HW  OW  HW  HW  OW  HW  HW  OW  HW  HW  OW  
HW  HW  OW  HW  HW  OW  HW  HW  OW  HW  HW  OW  HW  HW  OW  HW  HW  OW  HW  HW  
OW  HW  HW  OW  HW  HW  OW  HW  HW  OW  HW  HW  OW  HW  HW  OW  HW  HW  OW  HW  
HW  OW  HW  HW  OW  HW  HW  OW  HW  HW  OW  HW  HW  OW  HW  HW  OW  HW  HW  OW  
HW  HW  OW  HW  HW  OW  HW  HW  OW  HW  HW  OW  HW  HW  OW  HW  HW  OW  HW  HW  
OW  HW  HW  OW  HW  HW  OW  HW  HW  OW  HW  HW  OW  HW  HW  OW  HW  HW  OW  HW  
HW  OW  HW  HW  OW  HW  HW  OW  HW  HW  OW  HW  HW  OW  HW  HW  OW  HW  HW  OW  
HW  HW  OW  HW  HW  OW  HW  HW  OW  HW  HW  OW  HW  HW  OW  HW  HW  OW  HW  HW  
OW  HW  HW  OW  HW  HW  OW  HW  HW  OW  HW  HW  OW  HW  HW  OW  HW  HW  OW  HW  
HW  OW  HW  HW  OW  HW  HW  OW  HW  HW  OW  HW  HW  OW  HW  HW  OW  HW  HW  OW  
HW  HW  OW  HW  HW  OW  HW  HW  OW  HW  HW  OW  HW  HW  OW  HW  HW  OW  HW  HW  
OW  HW  HW  OW  HW  HW  OW  HW  HW  OW  HW  HW  OW  HW  HW  OW  HW  HW  OW  HW  
HW  OW  HW  HW  OW  HW  HW  OW  HW  HW  OW  HW  HW  OW  HW  HW  OW  HW  HW  OW  
HW  HW  OW  HW  HW  OW  HW  HW  OW  HW  HW  OW  HW  HW  OW  HW  HW  OW  HW  HW  
OW  HW  HW  OW  HW  HW  OW  HW  HW  OW  HW  HW  OW  HW  HW  OW  HW  HW  OW  HW  
HW  OW  HW  HW  OW  HW  HW  OW  HW  HW  OW  HW  HW  OW  HW  HW  OW  HW  HW  OW  
HW  HW  OW  HW  HW  OW  HW  HW  OW  HW  HW  OW  HW  HW  OW  HW  HW  OW  HW  HW  
OW  HW  HW  OW  HW  HW  OW  HW  HW  OW  HW  HW  OW  HW  HW  OW  HW  HW  OW  HW  
HW  OW  HW  HW  OW  HW  HW  OW  HW  HW  OW  HW  HW  OW  HW  HW  OW  HW  HW  OW  
HW  HW  OW  HW  HW  OW  HW  HW  OW  HW  HW  OW  HW  HW  OW  HW  HW  OW  HW  HW  
OW  HW  HW  OW  HW  HW  OW  HW  HW  OW  HW  HW  OW  HW  HW  OW  HW  HW  OW  HW  
HW  OW  HW  HW  OW  HW  HW  OW  HW  HW  OW  HW  HW  OW  HW  HW  OW  HW  HW  OW  
HW  HW  OW  HW  HW  OW  HW  HW  OW  HW  HW  OW  HW  HW  OW  HW  HW  OW  HW  HW  
OW  HW  HW  OW  HW  HW  OW  HW  HW  OW  HW  HW  OW  HW  HW  OW  HW  HW  OW  HW  
HW  OW  HW  HW  OW  HW  HW  OW  HW  HW  OW  HW  HW  OW  HW  HW  OW  HW  HW  OW  
HW  HW  OW  HW  HW  OW  HW  HW  OW  HW  HW  OW  HW  HW  OW  HW  HW  OW  HW  HW  
OW  HW  HW  OW  HW  HW  OW  HW  HW  OW  HW  HW  OW  HW  HW  OW  HW  HW  OW  HW  
HW  OW  HW  HW  OW  HW  HW  OW  HW  HW  OW  HW  HW  OW  HW  HW  OW  HW  HW  OW  
HW  HW  OW  HW  HW  OW  HW  HW  OW  HW  HW  OW  HW  HW  OW  HW  HW  OW  HW  HW  
OW  HW  HW  OW  HW  HW  OW  HW  HW  OW  HW  HW  OW  HW  HW  OW  HW  HW  OW  HW  
HW  OW  HW  HW  OW  HW  HW  OW  HW  HW  OW  HW  HW  OW  HW  HW  OW  HW  HW  OW  
HW  HW  OW  HW  HW  OW  HW  HW  OW  HW  HW  OW  HW  HW  OW  HW  HW  OW  HW  HW  
OW  HW  HW  OW  HW  HW  OW  HW  HW  OW  HW  HW  OW  HW  HW  OW  HW  HW  OW  HW  
HW  OW  HW  HW  OW  HW  HW  OW  HW  HW  OW  HW  HW  OW  HW  HW  OW  HW  HW  OW  
HW  HW  OW  HW  HW  OW  HW  HW  OW  HW  HW  OW  HW  HW  OW  HW  HW  OW  HW  HW  
OW  HW  HW  OW  HW  HW  OW  HW  HW  OW  HW  HW  OW  HW  HW  OW  HW  HW  OW  HW  
HW  OW  HW  HW  OW  HW  HW  OW  HW  HW  OW  HW  HW  OW  HW  HW  OW  HW  HW  OW  
HW  HW  OW  HW  HW  OW  HW  HW  OW  HW  HW  OW  HW  HW  OW  HW  HW  OW  HW  HW  
OW  HW  HW  OW  HW  HW  OW  HW  HW  OW  HW  HW  OW  HW  HW  OW  HW  HW  OW  HW  
HW  OW  HW  HW  OW  HW  HW  OW  HW  HW  OW  HW  HW  OW  HW  HW  OW  HW  HW  OW  
HW  HW  OW  HW  HW  OW  HW  HW  OW  HW  HW  OW  HW  HW  OW  HW  HW  OW  HW  HW  
OW  HW  HW  OW  HW  HW  OW  HW  HW  OW  HW  HW  OW  HW  HW  OW  HW  HW  OW  HW  
HW  OW  HW  HW  OW  HW  HW  OW  HW  HW  OW  HW  HW  OW  HW  HW  OW  HW  HW  OW  
HW  HW  OW  HW  HW  OW  HW  HW  OW  HW  HW  OW  HW  HW  OW  HW  HW  OW  HW  HW  
OW  HW  HW  OW  HW  HW  OW  HW  HW  OW  HW  HW  OW  HW  HW  OW  HW  HW  OW  HW  
HW  OW  HW  HW  OW  HW  HW  OW  HW  HW  OW  HW  HW  OW  HW  HW  OW  HW  HW  OW  
HW  HW  OW  HW  HW  OW  HW  HW  OW  HW  HW  OW  HW  HW  OW  HW  HW  OW  HW  HW  
OW  HW  HW  OW  HW  HW  OW  HW  HW  OW  HW  HW  OW  HW  HW  OW  HW  HW  OW  HW  
HW  OW  HW  HW  OW  HW  HW  OW  HW  HW  OW  HW  HW  OW  HW  HW  OW  HW  HW  OW  
HW  HW  OW  HW  HW  OW  HW  HW  OW  HW  HW  OW  HW  HW  OW  HW  HW  OW  HW  HW  
OW  HW  HW  OW  HW  HW  OW  HW  HW  OW  HW  HW  OW  HW  HW  OW  HW  HW  OW  HW  
HW  OW  HW  HW  OW  HW  HW  OW  HW  HW  OW  HW  HW  OW  HW  HW  OW  HW  HW  OW  
HW  HW  OW  HW  HW  OW  HW  HW  OW  HW  HW  OW  HW  HW  OW  HW  HW  OW  HW  HW  
OW  HW  HW  OW  HW  HW  OW  HW  HW  OW  HW  HW  OW  HW  HW  OW  HW  HW  OW  HW  
HW  OW  HW  HW  OW  HW  HW  OW  HW  HW  OW  HW  HW  OW  HW  HW  OW  HW  HW  OW  
HW  HW  OW  HW  HW  OW  HW  HW  OW  HW  HW  OW  HW  HW  OW  HW  HW  OW  HW  HW  
OW  HW  HW  OW  HW  HW  OW  HW  HW  OW  HW  HW  OW  HW  HW  OW  HW  HW  OW  HW  
HW  OW  HW  HW  OW  HW  HW  OW  HW  HW  OW  HW  HW  OW  HW  HW  OW  HW  HW  OW  
HW  HW  OW  HW  HW  OW  HW  HW  OW  HW  HW  OW  HW  HW  OW  HW  HW  OW  HW  HW  
OW  HW  HW  OW  HW  HW  OW  HW  HW  OW  HW  HW  OW  HW  HW  OW  HW  HW  OW  HW  
HW  OW  HW  HW  OW  HW  HW  OW  HW  HW  OW  HW  HW  OW  HW  HW  OW  HW  HW  OW  
HW  HW  OW  HW  HW  OW  HW  HW  OW  HW  HW  OW  HW  HW  OW  HW  HW  OW  HW  HW  
OW  HW  HW  OW  HW  HW  OW  HW  HW  OW  HW  HW  OW  HW  HW  OW  HW  HW  OW  HW  
HW  OW  HW  HW  OW  HW  HW  OW  HW  HW  OW  HW  HW  OW  HW  HW  OW  HW  HW  OW  
HW  HW  OW  HW  HW  OW  HW  HW  OW  HW  HW  OW  HW  HW  OW  HW  HW  OW  HW  HW  
OW  HW  HW  OW  HW  HW  OW  HW  HW  OW  HW  HW  OW  HW  HW  OW  HW  HW  OW  HW  
HW  OW  HW  HW  OW  HW  HW  OW  HW  HW  OW  HW  HW  OW  HW  HW  OW  HW  HW  OW  
HW  HW  OW  HW  HW  OW  HW  HW  OW  HW  HW  OW  HW  HW  OW  HW  HW  OW  HW  HW  
OW  HW  HW  OW  HW  HW  OW  HW  HW  OW  HW  HW  OW  HW  HW  OW  HW  HW  OW  HW  
HW  OW  HW  HW  OW  HW  HW  OW  HW  HW  OW  HW  HW  OW  HW  HW  OW  HW  HW  OW  
HW  HW  OW  HW  HW  OW  HW  HW  OW  HW  HW  OW  HW  HW  OW  HW  HW  OW  HW  HW  
OW  HW  HW  OW  HW  HW  OW  HW  HW  OW  HW  HW  OW  HW  HW  OW  HW  HW  OW  HW  
HW  OW  HW  HW  OW  HW  HW  OW  HW  HW  OW  HW  HW  OW  HW  HW  OW  HW  HW  OW  
HW  HW  OW  HW  HW  OW  HW  HW  OW  HW  HW  OW  HW  HW  OW  HW  HW  OW  HW  HW  
OW  HW  HW  OW  HW  HW  OW  HW  HW  OW  HW  HW  OW  HW  HW  OW  HW  HW  OW  HW  
HW  OW  HW  HW  OW  HW  HW  OW  HW  HW  OW  HW  HW  OW  HW  HW  OW  HW  HW  OW  
HW  HW  OW  HW  HW  OW  HW  HW  OW  HW  HW  OW  HW  HW  OW  HW  HW  OW  HW  HW  
OW  HW  HW  OW  HW  HW  OW  HW  HW  OW  HW  HW  OW  HW  HW  OW  HW  HW  OW  HW  
HW  OW  HW  HW  OW  HW  HW  OW  HW  HW  OW  HW  HW  OW  HW  HW  OW  HW  HW  OW  
HW  HW  OW  HW  HW  OW  HW  HW  OW  HW  HW  OW  HW  HW  OW  HW  HW  OW  HW  HW  
OW  HW  HW  OW  HW  HW  OW  HW  HW  OW  HW  HW  OW  HW  HW  OW  HW  HW  OW  HW  
HW  OW  HW  HW  OW  HW  HW  OW  HW  HW  OW  HW  HW  OW  HW  HW  OW  HW  HW  OW  
HW  HW  OW  HW  HW  OW  HW  HW  OW  HW  HW  OW  HW  HW  OW  HW  HW  OW  HW  HW  
OW  HW  HW  OW  HW  HW  OW  HW  HW  OW  HW  HW  OW  HW  HW  OW  HW  HW  OW  HW  
HW  OW  HW  HW  OW  HW  HW  OW  HW  HW  OW  HW  HW  OW  HW  HW  OW  HW  HW  OW  
HW  HW  OW  HW  HW  OW  HW  HW  OW  HW  HW  OW  HW  HW  OW  HW  HW  OW  HW  HW  
OW  HW  HW  OW  HW  HW  OW  HW  HW  OW  HW  HW  OW  HW  HW  OW  HW  HW  OW  HW  
HW  OW  HW  HW  OW  HW  HW  OW  HW  HW  OW  HW  HW  OW  HW  HW  OW  HW  HW  OW  
HW  HW  OW  HW  HW  OW  HW  HW  OW  HW  HW  OW  HW  HW  OW  HW  HW  OW  HW  HW  
OW  HW  HW  OW  HW  HW  OW  HW  HW  OW  HW  HW  OW  HW  HW  OW  HW  HW  OW  HW  
HW  OW  HW  HW  OW  HW  HW  OW  HW  HW  OW  HW  HW  OW  HW  HW  OW  HW  HW  OW  
HW  HW  OW  HW  HW  OW  HW  HW  OW  HW  HW  OW  HW  HW  OW  HW  HW  OW  HW  HW  
OW  HW  HW  OW  HW  HW  OW  HW  HW  OW  HW  HW  OW  HW  HW  OW  HW  HW  OW  HW  
HW  OW  HW  HW  OW  HW  HW  OW  HW  HW  OW  HW  HW  OW  HW  HW  OW  HW  HW  OW  
HW  HW  OW  HW  HW  OW  HW  HW  OW  HW  HW  OW  HW  HW  OW  HW  HW  OW  HW  HW  
OW  HW  HW  OW  HW  HW  OW  HW  HW  OW  HW  HW  OW  HW  HW  OW  HW  HW  OW  HW  
HW  OW  HW  HW  OW  HW  HW  OW  HW  HW  OW  HW  HW  OW  HW  HW  OW  HW  HW  OW  
HW  HW  OW  HW  HW  OW  HW  HW  OW  HW  HW  OW  HW  HW  OW  HW  HW  OW  HW  HW  
OW  HW  HW  OW  HW  HW  OW  HW  HW  OW  HW  HW  OW  HW  HW  OW  HW  HW  OW  HW  
HW  OW  HW  HW  OW  HW  HW  OW  HW  HW  OW  HW  HW  OW  HW  HW  OW  HW  HW  OW  
HW  HW  OW  HW  HW  OW  HW  HW  OW  HW  HW  OW  HW  HW  OW  HW  HW  OW  HW  HW  
OW  HW  HW  OW  HW  HW  OW  HW  HW  OW  HW  HW  OW  HW  HW  OW  HW  HW  OW  HW  
HW  OW  HW  HW  OW  HW  HW  OW  HW  HW  OW  HW  HW  OW  HW  HW  OW  HW  HW  OW  
HW  HW  OW  HW  HW  OW  HW  HW  OW  HW  HW  OW  HW  HW  OW  HW  HW  OW  HW  HW  
OW  HW  HW  OW  HW  HW  OW  HW  HW  OW  HW  HW  OW  HW  HW  OW  HW  HW  OW  HW  
HW  OW  HW  HW  OW  HW  HW  OW  HW  HW  OW  HW  HW  OW  HW  HW  OW  HW  HW  OW  
HW  HW  OW  HW  HW  OW  HW  HW  OW  HW  HW  OW  HW  HW  OW  HW  HW  OW  HW  HW  
OW  HW  HW  OW  HW  HW  OW  HW  HW  OW  HW  HW  OW  HW  HW  OW  HW  HW  OW  HW  
HW  OW  HW  HW  OW  HW  HW  OW  HW  HW  OW  HW  HW  OW  HW  HW  OW  HW  HW  OW  
HW  HW  OW  HW  HW  OW  HW  HW  OW  HW  HW  OW  HW  HW  OW  HW  HW  OW  HW  HW  
OW  HW  HW  OW  HW  HW  OW  HW  HW  OW  HW  HW  OW  HW  HW  OW  HW  HW  OW  HW  
HW  OW  HW  HW  OW  HW  HW  OW  HW  HW  OW  HW  HW  OW  HW  HW  OW  HW  HW  OW  
HW  HW  OW  HW  HW  OW  HW  HW  OW  HW  HW  OW  HW  HW  OW  HW  HW  OW  HW  HW  
OW  HW  HW  OW  HW  HW  OW  HW  HW  
%FLAG TREE_CHAIN_CLASSIFICATION                                                 
%FORMAT(20a4)                                                                   
BLA BLA BLA BLA BLA BLA BLA BLA BLA BLA BLA BLA BLA BLA BLA BLA BLA BLA BLA BLA 
BLA BLA BLA BLA BLA BLA BLA BLA BLA BLA BLA BLA BLA BLA BLA BLA BLA BLA BLA BLA 
BLA BLA BLA BLA BLA BLA BLA BLA BLA BLA BLA BLA BLA BLA BLA BLA BLA BLA BLA BLA 
BLA BLA BLA BLA BLA BLA BLA BLA BLA BLA BLA BLA BLA BLA BLA BLA BLA BLA BLA BLA 
BLA BLA BLA BLA BLA BLA BLA BLA BLA BLA BLA BLA BLA BLA BLA BLA BLA BLA BLA BLA 
BLA BLA BLA BLA BLA BLA BLA BLA BLA BLA BLA BLA BLA BLA BLA BLA BLA BLA BLA BLA 
BLA BLA BLA BLA BLA BLA BLA BLA BLA BLA BLA BLA BLA BLA BLA BLA BLA BLA BLA BLA 
BLA BLA BLA BLA BLA BLA BLA BLA BLA BLA BLA BLA BLA BLA BLA BLA BLA BLA BLA BLA 
BLA BLA BLA BLA BLA BLA BLA BLA BLA BLA BLA BLA BLA BLA BLA BLA BLA BLA BLA BLA 
BLA BLA BLA BLA BLA BLA BLA BLA BLA BLA BLA BLA BLA BLA BLA BLA BLA BLA BLA BLA 
BLA BLA BLA BLA BLA BLA BLA BLA BLA BLA BLA BLA BLA BLA BLA BLA BLA BLA BLA BLA 
BLA BLA BLA BLA BLA BLA BLA BLA BLA BLA BLA BLA BLA BLA BLA BLA BLA BLA BLA BLA 
BLA BLA BLA BLA BLA BLA BLA BLA BLA BLA BLA BLA BLA BLA BLA BLA BLA BLA BLA BLA 
BLA BLA BLA BLA BLA BLA BLA BLA BLA BLA BLA BLA BLA BLA BLA BLA BLA BLA BLA BLA 
BLA BLA BLA BLA BLA BLA BLA BLA BLA BLA BLA BLA BLA BLA BLA BLA BLA BLA BLA BLA 
BLA BLA BLA BLA BLA BLA BLA BLA BLA BLA BLA BLA BLA BLA BLA BLA BLA BLA BLA BLA 
BLA BLA BLA BLA BLA BLA BLA BLA BLA BLA BLA BLA BLA BLA BLA BLA BLA BLA BLA BLA 
BLA BLA BLA BLA BLA BLA BLA BLA BLA BLA BLA BLA BLA BLA BLA BLA BLA BLA BLA BLA 
BLA BLA BLA BLA BLA BLA BLA BLA BLA BLA BLA BLA BLA BLA BLA BLA BLA BLA BLA BLA 
BLA BLA BLA BLA BLA BLA BLA BLA BLA BLA BLA BLA BLA BLA BLA BLA BLA BLA BLA BLA 
BLA BLA BLA BLA BLA BLA BLA BLA BLA BLA BLA BLA BLA BLA BLA BLA BLA BLA BLA BLA 
BLA BLA BLA BLA BLA BLA BLA BLA BLA BLA BLA BLA BLA BLA BLA BLA BLA BLA BLA BLA 
BLA BLA BLA BLA BLA BLA BLA BLA BLA BLA BLA BLA BLA BLA BLA BLA BLA BLA BLA BLA 
BLA BLA BLA BLA BLA BLA BLA BLA BLA BLA BLA BLA BLA BLA BLA BLA BLA BLA BLA BLA 
BLA BLA BLA BLA BLA BLA BLA BLA BLA BLA BLA BLA BLA BLA BLA BLA BLA BLA BLA BLA 
BLA BLA BLA BLA BLA BLA BLA BLA BLA BLA BLA BLA BLA BLA BLA BLA BLA BLA BLA BLA 
BLA BLA BLA BLA BLA BLA BLA BLA BLA BLA BLA BLA BLA BLA BLA BLA BLA BLA BLA BLA 
BLA BLA BLA BLA BLA BLA BLA BLA BLA BLA BLA BLA BLA BLA BLA BLA BLA BLA BLA BLA 
BLA BLA BLA BLA BLA BLA BLA BLA BLA BLA BLA BLA BLA BLA BLA BLA BLA BLA BLA BLA 
BLA BLA BLA BLA BLA BLA BLA BLA BLA BLA BLA BLA BLA BLA BLA BLA BLA BLA BLA BLA 
BLA BLA BLA BLA BLA BLA BLA BLA BLA BLA BLA BLA BLA BLA BLA BLA BLA BLA BLA BLA 
BLA BLA BLA BLA BLA BLA BLA BLA BLA BLA BLA BLA BLA BLA BLA BLA BLA BLA BLA BLA 
BLA BLA BLA BLA BLA BLA BLA BLA BLA BLA BLA BLA BLA BLA BLA BLA BLA BLA BLA BLA 
BLA BLA BLA BLA BLA BLA BLA BLA BLA BLA BLA BLA BLA BLA BLA BLA BLA BLA BLA BLA 
BLA BLA BLA BLA BLA BLA BLA BLA BLA BLA BLA BLA BLA BLA BLA BLA BLA BLA BLA BLA 
BLA BLA BLA BLA BLA BLA BLA BLA BLA BLA BLA BLA BLA BLA BLA BLA BLA BLA BLA BLA 
BLA BLA BLA BLA BLA BLA BLA BLA BLA BLA BLA BLA BLA BLA BLA BLA BLA BLA BLA BLA 
BLA BLA BLA BLA BLA BLA BLA BLA BLA BLA BLA BLA BLA BLA BLA BLA BLA BLA BLA BLA 
BLA BLA BLA BLA BLA BLA BLA BLA BLA BLA BLA BLA BLA BLA BLA BLA BLA BLA BLA BLA 
BLA BLA BLA BLA BLA BLA BLA BLA BLA BLA BLA BLA BLA BLA BLA BLA BLA BLA BLA BLA 
BLA BLA BLA BLA BLA BLA BLA BLA BLA BLA BLA BLA BLA BLA BLA BLA BLA BLA BLA BLA 
BLA BLA BLA BLA BLA BLA BLA BLA BLA BLA BLA BLA BLA BLA BLA BLA BLA BLA BLA BLA 
BLA BLA BLA BLA BLA BLA BLA BLA BLA BLA BLA BLA BLA BLA BLA BLA BLA BLA BLA BLA 
BLA BLA BLA BLA BLA BLA BLA BLA BLA BLA BLA BLA BLA BLA BLA BLA BLA BLA BLA BLA 
BLA BLA BLA BLA BLA BLA BLA BLA BLA BLA BLA BLA BLA BLA BLA BLA BLA BLA BLA BLA 
BLA BLA BLA BLA BLA BLA BLA BLA BLA BLA BLA BLA BLA BLA BLA BLA BLA BLA BLA BLA 
BLA BLA BLA BLA BLA BLA BLA BLA BLA BLA BLA BLA BLA BLA BLA BLA BLA BLA BLA BLA 
BLA BLA BLA BLA BLA BLA BLA BLA BLA BLA BLA BLA BLA BLA BLA BLA BLA BLA BLA BLA 
BLA BLA BLA BLA BLA BLA BLA BLA BLA BLA BLA BLA BLA BLA BLA BLA BLA BLA BLA BLA 
BLA BLA BLA BLA BLA BLA BLA BLA BLA BLA BLA BLA BLA BLA BLA BLA BLA BLA BLA BLA 
BLA BLA BLA BLA BLA BLA BLA BLA BLA BLA BLA BLA BLA BLA BLA BLA BLA BLA BLA BLA 
BLA BLA BLA BLA BLA BLA BLA BLA BLA BLA BLA BLA BLA BLA BLA BLA BLA BLA BLA BLA 
BLA BLA BLA BLA BLA BLA BLA BLA BLA BLA BLA BLA BLA BLA BLA BLA BLA BLA BLA BLA 
BLA BLA BLA BLA BLA BLA BLA BLA BLA BLA BLA BLA BLA BLA BLA BLA BLA BLA BLA BLA 
BLA BLA BLA BLA BLA BLA BLA BLA BLA BLA BLA BLA BLA BLA BLA BLA BLA BLA BLA BLA 
BLA BLA BLA BLA BLA BLA BLA BLA BLA BLA BLA BLA BLA BLA BLA BLA BLA BLA BLA BLA 
BLA BLA BLA BLA BLA BLA BLA BLA BLA BLA BLA BLA BLA BLA BLA BLA BLA BLA BLA BLA 
BLA BLA BLA BLA BLA BLA BLA BLA BLA BLA BLA BLA BLA BLA BLA BLA BLA BLA BLA BLA 
BLA BLA BLA BLA BLA BLA BLA BLA BLA BLA BLA BLA BLA BLA BLA BLA BLA BLA BLA BLA 
BLA BLA BLA BLA BLA BLA BLA BLA BLA BLA BLA BLA BLA BLA BLA BLA BLA BLA BLA BLA 
BLA BLA BLA BLA BLA BLA BLA BLA BLA BLA BLA BLA BLA BLA BLA BLA BLA BLA BLA BLA 
BLA BLA BLA BLA BLA BLA BLA BLA BLA BLA BLA BLA BLA BLA BLA BLA BLA BLA BLA BLA 
BLA BLA BLA BLA BLA BLA BLA BLA BLA BLA BLA BLA BLA BLA BLA BLA BLA BLA BLA BLA 
BLA BLA BLA BLA BLA BLA BLA BLA BLA BLA BLA BLA BLA BLA BLA BLA BLA BLA BLA BLA 
BLA BLA BLA BLA BLA BLA BLA BLA BLA BLA BLA BLA BLA BLA BLA BLA BLA BLA BLA BLA 
BLA BLA BLA BLA BLA BLA BLA BLA BLA BLA BLA BLA BLA BLA BLA BLA BLA BLA BLA BLA 
BLA BLA BLA BLA BLA BLA BLA BLA BLA BLA BLA BLA BLA BLA BLA BLA BLA BLA BLA BLA 
BLA BLA BLA BLA BLA BLA BLA BLA BLA BLA BLA BLA BLA BLA BLA BLA BLA BLA BLA BLA 
BLA BLA BLA BLA BLA BLA BLA BLA BLA BLA BLA BLA BLA BLA BLA BLA BLA BLA BLA BLA 
BLA BLA BLA BLA BLA BLA BLA BLA BLA BLA BLA BLA BLA BLA BLA BLA BLA BLA BLA BLA 
BLA BLA BLA BLA BLA BLA BLA BLA BLA BLA BLA BLA BLA BLA BLA BLA BLA BLA BLA BLA 
BLA BLA BLA BLA BLA BLA BLA BLA BLA BLA BLA BLA BLA BLA BLA BLA BLA BLA BLA BLA 
BLA BLA BLA BLA BLA BLA BLA BLA BLA BLA BLA BLA BLA BLA BLA BLA BLA BLA BLA BLA 
BLA BLA BLA BLA BLA BLA BLA BLA BLA BLA BLA BLA BLA BLA BLA BLA BLA BLA BLA BLA 
BLA BLA BLA BLA BLA BLA BLA BLA BLA BLA BLA BLA BLA BLA BLA BLA BLA BLA BLA BLA 
BLA BLA BLA BLA BLA BLA BLA BLA BLA BLA BLA BLA BLA BLA BLA BLA BLA BLA BLA BLA 
BLA BLA BLA BLA BLA BLA BLA BLA BLA BLA BLA BLA BLA BLA BLA BLA BLA BLA BLA BLA 
BLA BLA BLA BLA BLA BLA BLA BLA BLA BLA BLA BLA BLA BLA BLA BLA BLA BLA BLA BLA 
BLA BLA BLA BLA BLA BLA BLA BLA BLA BLA BLA BLA BLA BLA BLA BLA BLA BLA BLA BLA 
BLA BLA BLA BLA BLA BLA BLA BLA BLA BLA BLA BLA BLA BLA BLA BLA BLA BLA BLA BLA 
BLA BLA BLA BLA BLA BLA BLA BLA BLA BLA BLA BLA BLA BLA BLA BLA BLA BLA BLA BLA 
BLA BLA BLA BLA BLA BLA BLA BLA BLA BLA BLA BLA BLA BLA BLA BLA BLA BLA BLA BLA 
BLA BLA BLA BLA BLA BLA BLA BLA BLA BLA BLA BLA BLA BLA BLA BLA BLA BLA BLA BLA 
BLA BLA BLA BLA BLA BLA BLA BLA BLA BLA BLA BLA BLA BLA BLA BLA BLA BLA BLA BLA 
BLA BLA BLA BLA BLA BLA BLA BLA BLA BLA BLA BLA BLA BLA BLA BLA BLA BLA BLA BLA 
BLA BLA BLA BLA BLA BLA BLA BLA BLA BLA BLA BLA BLA BLA BLA BLA BLA BLA BLA BLA 
BLA BLA BLA BLA BLA BLA BLA BLA BLA BLA BLA BLA BLA BLA BLA BLA BLA BLA BLA BLA 
BLA BLA BLA BLA BLA BLA BLA BLA BLA BLA BLA BLA BLA BLA BLA BLA BLA BLA BLA BLA 
BLA BLA BLA BLA BLA BLA BLA BLA BLA BLA BLA BLA BLA BLA BLA BLA BLA BLA BLA BLA 
BLA BLA BLA BLA BLA BLA BLA BLA BLA BLA BLA BLA BLA BLA BLA BLA BLA BLA BLA BLA 
BLA BLA BLA BLA BLA BLA BLA BLA BLA BLA BLA BLA BLA BLA BLA BLA BLA BLA BLA BLA 
BLA BLA BLA BLA BLA BLA BLA BLA BLA BLA BLA BLA BLA BLA BLA BLA BLA BLA BLA BLA 
BLA BLA BLA BLA BLA BLA BLA BLA BLA BLA BLA BLA BLA BLA BLA BLA BLA BLA BLA BLA 
BLA BLA BLA BLA BLA BLA BLA BLA BLA BLA BLA BLA BLA BLA BLA BLA BLA BLA BLA BLA 
BLA BLA BLA BLA BLA BLA BLA BLA BLA BLA BLA BLA BLA BLA BLA BLA BLA BLA BLA BLA 
BLA BLA BLA BLA BLA BLA BLA BLA BLA BLA BLA BLA BLA BLA BLA BLA BLA BLA BLA BLA 
BLA BLA BLA BLA BLA BLA BLA BLA BLA BLA BLA BLA BLA BLA BLA BLA BLA BLA BLA BLA 
BLA BLA BLA BLA BLA BLA BLA BLA BLA BLA BLA BLA BLA BLA BLA BLA BLA BLA BLA BLA 
BLA BLA BLA BLA BLA BLA BLA BLA BLA BLA BLA BLA BLA BLA BLA BLA BLA BLA BLA BLA 
BLA BLA BLA BLA BLA BLA BLA BLA BLA BLA BLA BLA BLA BLA BLA BLA BLA BLA BLA BLA 
BLA BLA BLA BLA BLA BLA BLA BLA BLA BLA BLA BLA BLA BLA BLA BLA BLA BLA BLA BLA 
BLA BLA BLA BLA BLA BLA BLA BLA BLA BLA BLA BLA BLA BLA BLA BLA BLA BLA BLA BLA 
BLA BLA BLA BLA BLA BLA BLA BLA BLA BLA BLA BLA BLA BLA BLA BLA BLA BLA BLA BLA 
BLA BLA BLA BLA BLA BLA BLA BLA BLA BLA BLA BLA BLA BLA BLA BLA BLA BLA BLA BLA 
BLA BLA BLA BLA BLA BLA BLA BLA BLA BLA BLA BLA BLA BLA BLA BLA BLA BLA BLA BLA 
BLA BLA BLA BLA BLA BLA BLA BLA BLA BLA BLA BLA BLA BLA BLA BLA BLA BLA BLA BLA 
BLA BLA BLA BLA BLA BLA BLA BLA BLA BLA BLA BLA BLA BLA BLA BLA BLA BLA BLA BLA 
BLA BLA BLA BLA BLA BLA BLA BLA BLA BLA BLA BLA BLA BLA BLA BLA BLA BLA BLA BLA 
BLA BLA BLA BLA BLA BLA BLA BLA BLA BLA BLA BLA BLA BLA BLA BLA BLA BLA BLA BLA 
BLA BLA BLA BLA BLA BLA BLA BLA BLA BLA BLA BLA BLA BLA BLA BLA BLA BLA BLA BLA 
BLA BLA BLA BLA BLA BLA BLA BLA BLA BLA BLA BLA BLA BLA BLA BLA BLA BLA BLA BLA 
BLA BLA BLA BLA BLA BLA BLA BLA BLA BLA BLA BLA BLA BLA BLA BLA BLA BLA BLA BLA 
BLA BLA BLA BLA BLA BLA BLA BLA BLA BLA BLA BLA BLA BLA BLA BLA BLA BLA BLA BLA 
BLA BLA BLA BLA BLA BLA BLA BLA BLA BLA BLA BLA BLA BLA BLA BLA BLA BLA BLA BLA 
BLA BLA BLA BLA BLA BLA BLA BLA BLA BLA BLA BLA BLA BLA BLA BLA BLA BLA BLA BLA 
BLA BLA BLA BLA BLA BLA BLA BLA BLA BLA BLA BLA BLA BLA BLA BLA BLA BLA BLA BLA 
BLA BLA BLA BLA BLA BLA BLA BLA BLA BLA BLA BLA BLA BLA BLA BLA BLA BLA BLA BLA 
BLA BLA BLA BLA BLA BLA BLA BLA BLA BLA BLA BLA BLA BLA BLA BLA BLA BLA BLA BLA 
BLA BLA BLA BLA BLA BLA BLA BLA BLA BLA BLA BLA BLA BLA BLA BLA BLA BLA BLA BLA 
BLA BLA BLA BLA BLA BLA BLA BLA BLA BLA BLA BLA BLA BLA BLA BLA BLA BLA BLA BLA 
BLA BLA BLA BLA BLA BLA BLA BLA BLA BLA BLA BLA BLA BLA BLA BLA BLA BLA BLA BLA 
BLA BLA BLA BLA BLA BLA BLA BLA BLA BLA BLA BLA BLA BLA BLA BLA BLA BLA BLA BLA 
BLA BLA BLA BLA BLA BLA BLA BLA BLA BLA BLA BLA BLA BLA BLA BLA BLA BLA BLA BLA 
BLA BLA BLA BLA BLA BLA BLA BLA BLA BLA BLA BLA BLA BLA BLA BLA BLA BLA BLA BLA 
BLA BLA BLA BLA BLA BLA BLA BLA BLA BLA BLA BLA BLA BLA BLA BLA BLA BLA BLA BLA 
BLA BLA BLA BLA BLA BLA BLA BLA BLA BLA BLA BLA BLA BLA BLA BLA BLA BLA BLA BLA 
BLA BLA BLA BLA BLA BLA BLA BLA BLA BLA BLA BLA BLA BLA BLA BLA BLA BLA BLA BLA 
BLA BLA BLA BLA BLA BLA BLA BLA BLA BLA BLA BLA BLA BLA BLA BLA BLA BLA BLA BLA 
BLA BLA BLA BLA BLA BLA BLA BLA BLA BLA BLA BLA BLA BLA BLA BLA BLA BLA BLA BLA 
BLA BLA BLA BLA BLA BLA BLA BLA BLA BLA BLA BLA BLA BLA BLA BLA BLA BLA BLA BLA 
BLA BLA BLA BLA BLA BLA BLA BLA BLA BLA BLA BLA BLA BLA BLA BLA BLA BLA BLA BLA 
BLA BLA BLA BLA BLA BLA BLA BLA BLA BLA BLA BLA BLA BLA BLA BLA BLA BLA BLA BLA 
BLA BLA BLA BLA BLA BLA BLA BLA BLA BLA BLA BLA BLA BLA BLA BLA BLA BLA BLA BLA 
BLA BLA BLA BLA BLA BLA BLA BLA BLA BLA BLA BLA BLA BLA BLA BLA BLA BLA BLA BLA 
BLA BLA BLA BLA BLA BLA BLA BLA BLA BLA BLA BLA BLA BLA BLA BLA BLA BLA BLA BLA 
BLA BLA BLA BLA BLA BLA BLA BLA BLA BLA BLA BLA BLA BLA BLA BLA BLA BLA BLA BLA 
BLA BLA BLA BLA BLA BLA BLA BLA BLA BLA BLA BLA BLA BLA BLA BLA BLA BLA BLA BLA 
BLA BLA BLA BLA BLA BLA BLA BLA BLA BLA BLA BLA BLA BLA BLA BLA BLA BLA BLA BLA 
BLA BLA BLA BLA BLA BLA BLA BLA BLA BLA BLA BLA BLA BLA BLA BLA BLA BLA BLA BLA 
BLA BLA BLA BLA BLA BLA BLA BLA BLA BLA BLA BLA BLA BLA BLA BLA BLA BLA BLA BLA 
BLA BLA BLA BLA BLA BLA BLA BLA BLA BLA BLA BLA BLA BLA BLA BLA BLA BLA BLA BLA 
BLA BLA BLA BLA BLA BLA BLA BLA BLA BLA BLA BLA BLA BLA BLA BLA BLA BLA BLA BLA 
BLA BLA BLA BLA BLA BLA BLA BLA BLA BLA BLA BLA BLA BLA BLA BLA BLA BLA BLA BLA 
BLA BLA BLA BLA BLA BLA BLA BLA BLA BLA BLA BLA BLA BLA BLA BLA BLA BLA BLA BLA 
BLA BLA BLA BLA BLA BLA BLA BLA BLA BLA BLA BLA BLA BLA BLA BLA BLA BLA BLA BLA 
BLA BLA BLA BLA BLA BLA BLA BLA BLA BLA BLA BLA BLA BLA BLA BLA BLA BLA BLA BLA 
BLA BLA BLA BLA BLA BLA BLA BLA BLA BLA BLA BLA BLA BLA BLA BLA BLA BLA BLA BLA 
BLA BLA BLA BLA BLA BLA BLA BLA BLA BLA BLA BLA BLA BLA BLA BLA BLA BLA BLA BLA 
BLA BLA BLA BLA BLA BLA BLA BLA BLA BLA BLA BLA BLA BLA BLA BLA BLA BLA BLA BLA 
BLA BLA BLA BLA BLA BLA BLA BLA BLA BLA BLA BLA BLA BLA BLA BLA BLA BLA BLA BLA 
BLA BLA BLA BLA BLA BLA BLA BLA BLA BLA BLA BLA BLA BLA BLA BLA BLA BLA BLA BLA 
BLA BLA BLA BLA BLA BLA BLA BLA BLA BLA BLA BLA BLA BLA BLA BLA BLA BLA BLA BLA 
BLA BLA BLA BLA BLA BLA BLA BLA BLA BLA BLA BLA BLA BLA BLA BLA BLA BLA BLA BLA 
BLA BLA BLA BLA BLA BLA BLA BLA BLA BLA BLA BLA BLA BLA BLA BLA BLA BLA BLA BLA 
BLA BLA BLA BLA BLA BLA BLA BLA BLA BLA BLA BLA BLA BLA BLA BLA BLA BLA BLA BLA 
BLA BLA BLA BLA BLA BLA BLA BLA BLA BLA BLA BLA BLA BLA BLA BLA BLA BLA BLA BLA 
BLA BLA BLA BLA BLA BLA BLA BLA BLA BLA BLA BLA BLA BLA BLA BLA BLA BLA BLA BLA 
BLA BLA BLA BLA BLA BLA BLA BLA BLA BLA BLA BLA BLA BLA BLA BLA BLA BLA BLA BLA 
BLA BLA BLA BLA BLA BLA BLA BLA BLA BLA BLA BLA BLA BLA BLA BLA BLA BLA BLA BLA 
BLA BLA BLA BLA BLA BLA BLA BLA BLA BLA BLA BLA BLA BLA BLA BLA BLA BLA BLA BLA 
BLA BLA BLA BLA BLA BLA BLA BLA BLA BLA BLA BLA BLA BLA BLA BLA BLA BLA BLA BLA 
BLA BLA BLA BLA BLA BLA BLA BLA BLA BLA BLA BLA BLA BLA BLA BLA BLA BLA BLA BLA 
BLA BLA BLA BLA BLA BLA BLA BLA BLA BLA BLA BLA BLA BLA BLA BLA BLA BLA BLA BLA 
BLA BLA BLA BLA BLA BLA BLA BLA BLA BLA BLA BLA BLA BLA BLA BLA BLA BLA BLA BLA 
BLA BLA BLA BLA BLA BLA BLA BLA BLA BLA BLA BLA BLA BLA BLA BLA BLA BLA BLA BLA 
BLA BLA BLA BLA BLA BLA BLA BLA BLA BLA BLA BLA BLA BLA BLA BLA BLA BLA BLA BLA 
BLA BLA BLA BLA BLA BLA BLA BLA BLA BLA BLA BLA BLA BLA BLA BLA BLA BLA BLA BLA 
BLA BLA BLA BLA BLA BLA BLA BLA BLA BLA BLA BLA BLA BLA BLA BLA BLA BLA BLA BLA 
BLA BLA BLA BLA BLA BLA BLA BLA BLA BLA BLA BLA BLA BLA BLA BLA BLA BLA BLA BLA 
BLA BLA BLA BLA BLA BLA BLA BLA BLA BLA BLA BLA BLA BLA BLA BLA BLA BLA BLA BLA 
BLA BLA BLA BLA BLA BLA BLA BLA BLA BLA BLA BLA BLA BLA BLA BLA BLA BLA BLA BLA 
BLA BLA BLA BLA BLA BLA BLA BLA BLA BLA BLA BLA BLA BLA BLA BLA BLA BLA BLA BLA 
BLA BLA BLA BLA BLA BLA BLA BLA BLA BLA BLA BLA BLA BLA BLA BLA BLA BLA BLA BLA 
BLA BLA BLA BLA BLA BLA BLA BLA BLA BLA BLA BLA BLA BLA BLA BLA BLA BLA BLA BLA 
BLA BLA BLA BLA BLA BLA BLA BLA BLA BLA BLA BLA BLA BLA BLA BLA BLA BLA BLA BLA 
BLA BLA BLA BLA BLA BLA BLA BLA BLA BLA BLA BLA BLA BLA BLA BLA BLA BLA BLA BLA 
BLA BLA BLA BLA BLA BLA BLA BLA BLA BLA BLA BLA BLA BLA BLA BLA BLA BLA BLA BLA 
BLA BLA BLA BLA BLA BLA BLA BLA BLA BLA BLA BLA BLA BLA BLA BLA BLA BLA BLA BLA 
BLA BLA BLA BLA BLA BLA BLA BLA BLA BLA BLA BLA BLA BLA BLA BLA BLA BLA BLA BLA 
BLA BLA BLA BLA BLA BLA BLA BLA BLA BLA BLA BLA BLA BLA BLA BLA BLA BLA BLA BLA 
BLA BLA BLA BLA BLA BLA BLA BLA BLA BLA BLA BLA BLA BLA BLA BLA BLA BLA BLA BLA 
BLA BLA BLA BLA BLA BLA BLA BLA BLA BLA BLA BLA BLA BLA BLA BLA BLA BLA BLA BLA 
BLA BLA BLA BLA BLA BLA BLA BLA BLA BLA BLA BLA BLA BLA BLA BLA BLA BLA BLA BLA 
BLA BLA BLA BLA BLA BLA BLA BLA BLA BLA BLA BLA BLA BLA BLA BLA BLA BLA BLA BLA 
BLA BLA BLA BLA BLA BLA BLA BLA BLA BLA BLA BLA BLA BLA BLA BLA BLA BLA BLA BLA 
BLA BLA BLA BLA BLA BLA BLA BLA BLA BLA BLA BLA BLA BLA BLA BLA BLA BLA BLA BLA 
BLA BLA BLA BLA BLA BLA BLA BLA BLA BLA BLA BLA BLA BLA BLA BLA BLA BLA BLA BLA 
BLA BLA BLA BLA BLA BLA BLA BLA BLA BLA BLA BLA BLA BLA BLA BLA BLA BLA BLA BLA 
BLA BLA BLA BLA BLA BLA BLA BLA BLA BLA BLA BLA BLA BLA BLA BLA BLA BLA BLA BLA 
BLA BLA BLA BLA BLA BLA BLA BLA BLA BLA BLA BLA BLA BLA BLA BLA BLA BLA BLA BLA 
BLA BLA BLA BLA BLA BLA BLA BLA BLA BLA BLA BLA BLA BLA BLA BLA BLA BLA BLA BLA 
BLA BLA BLA BLA BLA BLA BLA BLA BLA BLA BLA BLA BLA BLA BLA BLA BLA BLA BLA BLA 
BLA BLA BLA BLA BLA BLA BLA BLA BLA BLA BLA BLA BLA BLA BLA BLA BLA BLA BLA BLA 
BLA BLA BLA BLA BLA BLA BLA BLA BLA BLA BLA BLA BLA BLA BLA BLA BLA BLA BLA BLA 
BLA BLA BLA BLA BLA BLA BLA BLA BLA BLA BLA BLA BLA BLA BLA BLA BLA BLA BLA BLA 
BLA BLA BLA BLA BLA BLA BLA BLA BLA BLA BLA BLA BLA BLA BLA BLA BLA BLA BLA BLA 
BLA BLA BLA BLA BLA BLA BLA BLA BLA BLA BLA BLA BLA BLA BLA BLA BLA BLA BLA BLA 
BLA BLA BLA BLA BLA BLA BLA BLA BLA BLA BLA BLA BLA BLA BLA BLA BLA BLA BLA BLA 
BLA BLA BLA BLA BLA BLA BLA BLA BLA BLA BLA BLA BLA BLA BLA BLA BLA BLA BLA BLA 
BLA BLA BLA BLA BLA BLA BLA BLA BLA BLA BLA BLA BLA BLA BLA BLA BLA BLA BLA BLA 
BLA BLA BLA BLA BLA BLA BLA BLA BLA BLA BLA BLA BLA BLA BLA BLA BLA BLA BLA BLA 
BLA BLA BLA BLA BLA BLA BLA BLA BLA BLA BLA BLA BLA BLA BLA BLA BLA BLA BLA BLA 
BLA BLA BLA BLA BLA BLA BLA BLA BLA BLA BLA BLA BLA BLA BLA BLA BLA BLA BLA BLA 
BLA BLA BLA BLA BLA BLA BLA BLA BLA BLA BLA BLA BLA BLA BLA BLA BLA BLA BLA BLA 
BLA BLA BLA BLA BLA BLA BLA BLA BLA BLA BLA BLA BLA BLA BLA BLA BLA BLA BLA BLA 
BLA BLA BLA BLA BLA BLA BLA BLA BLA BLA BLA BLA BLA BLA BLA BLA BLA BLA BLA BLA 
BLA BLA BLA BLA BLA BLA BLA BLA BLA BLA BLA BLA BLA BLA BLA BLA BLA BLA BLA BLA 
BLA BLA BLA BLA BLA BLA BLA BLA BLA BLA BLA BLA BLA BLA BLA BLA BLA BLA BLA BLA 
BLA BLA BLA BLA BLA BLA BLA BLA BLA BLA BLA BLA BLA BLA BLA BLA BLA BLA BLA BLA 
BLA BLA BLA BLA BLA BLA BLA BLA BLA BLA BLA BLA BLA BLA BLA BLA BLA BLA BLA BLA 
BLA BLA BLA BLA BLA BLA BLA BLA BLA BLA BLA BLA BLA BLA BLA BLA BLA BLA BLA BLA 
BLA BLA BLA BLA BLA BLA BLA BLA BLA BLA BLA BLA BLA BLA BLA BLA BLA BLA BLA BLA 
BLA BLA BLA BLA BLA BLA BLA BLA BLA BLA BLA BLA BLA BLA BLA BLA BLA BLA BLA BLA 
BLA BLA BLA BLA BLA BLA BLA BLA BLA BLA BLA BLA BLA BLA BLA BLA BLA BLA BLA BLA 
BLA BLA BLA BLA BLA BLA BLA BLA BLA BLA BLA BLA BLA BLA BLA BLA BLA BLA BLA BLA 
BLA BLA BLA BLA BLA BLA BLA BLA BLA BLA BLA BLA BLA BLA BLA BLA BLA BLA BLA BLA 
BLA BLA BLA BLA BLA BLA BLA BLA BLA BLA BLA BLA BLA BLA BLA BLA BLA BLA BLA BLA 
BLA BLA BLA BLA BLA BLA BLA BLA BLA BLA BLA BLA BLA BLA BLA BLA BLA BLA BLA BLA 
BLA BLA BLA BLA BLA BLA BLA BLA BLA BLA BLA BLA BLA BLA BLA BLA BLA BLA BLA BLA 
BLA BLA BLA BLA BLA BLA BLA BLA BLA BLA BLA BLA BLA BLA BLA BLA BLA BLA BLA BLA 
BLA BLA BLA BLA BLA BLA BLA BLA BLA BLA BLA BLA BLA BLA BLA BLA BLA BLA BLA BLA 
BLA BLA BLA BLA BLA BLA BLA BLA BLA BLA BLA BLA BLA BLA BLA BLA BLA BLA BLA BLA 
BLA BLA BLA BLA BLA BLA BLA BLA BLA BLA BLA BLA BLA BLA BLA BLA BLA BLA BLA BLA 
BLA BLA BLA BLA BLA BLA BLA BLA BLA BLA BLA BLA BLA BLA BLA BLA BLA BLA BLA BLA 
BLA BLA BLA BLA BLA BLA BLA BLA BLA BLA BLA BLA BLA BLA BLA BLA BLA BLA BLA BLA 
BLA BLA BLA BLA BLA BLA BLA BLA BLA BLA BLA BLA BLA BLA BLA BLA BLA BLA BLA BLA 
BLA BLA BLA BLA BLA BLA BLA BLA BLA BLA BLA BLA BLA BLA BLA BLA BLA BLA BLA BLA 
BLA BLA BLA BLA BLA BLA BLA BLA BLA BLA BLA BLA BLA BLA BLA BLA BLA BLA BLA BLA 
BLA BLA BLA BLA BLA BLA BLA BLA BLA BLA BLA BLA BLA BLA BLA BLA BLA BLA BLA BLA 
BLA BLA BLA BLA BLA BLA BLA BLA BLA BLA BLA BLA BLA BLA BLA BLA BLA BLA BLA BLA 
BLA BLA BLA BLA BLA BLA BLA BLA BLA BLA BLA BLA BLA BLA BLA BLA BLA BLA BLA BLA 
BLA BLA BLA BLA BLA BLA BLA BLA BLA BLA BLA BLA BLA BLA BLA BLA BLA BLA BLA BLA 
BLA BLA BLA BLA BLA BLA BLA BLA BLA BLA BLA BLA BLA BLA BLA BLA BLA BLA BLA BLA 
BLA BLA BLA BLA BLA BLA BLA BLA BLA BLA BLA BLA BLA BLA BLA BLA BLA BLA BLA BLA 
BLA BLA BLA BLA BLA BLA BLA BLA BLA BLA BLA BLA BLA BLA BLA BLA BLA BLA BLA BLA 
BLA BLA BLA BLA BLA BLA BLA BLA BLA BLA BLA BLA BLA BLA BLA BLA BLA BLA BLA BLA 
BLA BLA BLA BLA BLA BLA BLA BLA BLA BLA BLA BLA BLA BLA BLA BLA BLA BLA BLA BLA 
BLA BLA BLA BLA BLA BLA BLA BLA BLA BLA BLA BLA BLA BLA BLA BLA BLA BLA BLA BLA 
BLA BLA BLA BLA BLA BLA BLA BLA BLA BLA BLA BLA BLA BLA BLA BLA BLA BLA BLA BLA 
BLA BLA BLA BLA BLA BLA BLA BLA BLA BLA BLA BLA BLA BLA BLA BLA BLA BLA BLA BLA 
BLA BLA BLA BLA BLA BLA BLA BLA BLA BLA BLA BLA BLA BLA BLA BLA BLA BLA BLA BLA 
BLA BLA BLA BLA BLA BLA BLA BLA BLA BLA BLA BLA BLA BLA BLA BLA BLA BLA BLA BLA 
BLA BLA BLA BLA BLA BLA BLA BLA BLA BLA BLA BLA BLA BLA BLA BLA BLA BLA BLA BLA 
BLA BLA BLA BLA BLA BLA BLA BLA BLA BLA BLA BLA BLA BLA BLA BLA BLA BLA BLA BLA 
BLA BLA BLA BLA BLA BLA BLA BLA BLA BLA BLA BLA BLA BLA BLA BLA BLA BLA BLA BLA 
BLA BLA BLA BLA BLA BLA BLA BLA BLA BLA BLA BLA BLA BLA BLA BLA BLA BLA BLA BLA 
BLA BLA BLA BLA BLA BLA BLA BLA BLA BLA BLA BLA BLA BLA BLA BLA BLA BLA BLA BLA 
BLA BLA BLA BLA BLA BLA BLA BLA BLA BLA BLA BLA BLA BLA BLA BLA BLA BLA BLA BLA 
BLA BLA BLA BLA BLA BLA BLA BLA BLA BLA BLA BLA BLA BLA BLA BLA BLA BLA BLA BLA 
BLA BLA BLA BLA BLA BLA BLA BLA BLA BLA BLA BLA BLA BLA BLA BLA BLA BLA BLA BLA 
BLA BLA BLA BLA BLA BLA BLA BLA BLA BLA BLA BLA BLA BLA BLA BLA BLA BLA BLA BLA 
BLA BLA BLA BLA BLA BLA BLA BLA BLA BLA BLA BLA BLA BLA BLA BLA BLA BLA BLA BLA 
BLA BLA BLA BLA BLA BLA BLA BLA BLA BLA BLA BLA BLA BLA BLA BLA BLA BLA BLA BLA 
BLA BLA BLA BLA BLA BLA BLA BLA BLA BLA BLA BLA BLA BLA BLA BLA BLA BLA BLA BLA 
BLA BLA BLA BLA BLA BLA BLA BLA BLA BLA BLA BLA BLA BLA BLA BLA BLA BLA BLA BLA 
BLA BLA BLA BLA BLA BLA BLA BLA BLA BLA BLA BLA BLA BLA BLA BLA BLA BLA BLA BLA 
BLA BLA BLA BLA BLA BLA BLA BLA BLA BLA BLA BLA BLA BLA BLA BLA BLA BLA BLA BLA 
BLA BLA BLA BLA BLA BLA BLA BLA BLA BLA BLA BLA BLA BLA BLA BLA BLA BLA BLA BLA 
BLA BLA BLA BLA BLA BLA BLA BLA BLA BLA BLA BLA BLA BLA BLA BLA BLA BLA BLA BLA 
BLA BLA BLA BLA BLA BLA BLA BLA BLA BLA BLA BLA BLA BLA BLA BLA BLA BLA BLA BLA 
BLA BLA BLA BLA BLA BLA BLA BLA BLA BLA BLA BLA BLA BLA BLA BLA BLA BLA BLA BLA 
BLA BLA BLA BLA BLA BLA BLA BLA BLA BLA BLA BLA BLA BLA BLA BLA BLA BLA BLA BLA 
BLA BLA BLA BLA BLA BLA BLA BLA BLA BLA BLA BLA BLA BLA BLA BLA BLA BLA BLA BLA 
BLA BLA BLA BLA BLA BLA BLA BLA BLA BLA BLA BLA BLA BLA BLA BLA BLA BLA BLA BLA 
BLA BLA BLA BLA BLA BLA BLA BLA BLA BLA BLA BLA BLA BLA BLA BLA BLA BLA BLA BLA 
BLA BLA BLA BLA BLA BLA BLA BLA BLA BLA BLA BLA BLA BLA BLA BLA BLA BLA BLA BLA 
BLA BLA BLA BLA BLA BLA BLA BLA BLA BLA BLA BLA BLA BLA BLA BLA BLA BLA BLA BLA 
BLA BLA BLA BLA BLA BLA BLA BLA BLA BLA BLA BLA BLA BLA BLA BLA BLA BLA BLA BLA 
BLA BLA BLA BLA BLA BLA BLA BLA BLA BLA BLA BLA BLA BLA BLA BLA BLA BLA BLA BLA 
BLA BLA BLA BLA BLA BLA BLA BLA BLA BLA BLA BLA BLA BLA BLA BLA BLA BLA BLA BLA 
BLA BLA BLA BLA BLA BLA BLA BLA BLA BLA BLA BLA BLA BLA BLA BLA BLA BLA BLA BLA 
BLA BLA BLA BLA BLA BLA BLA BLA BLA BLA BLA BLA BLA BLA BLA BLA BLA BLA BLA BLA 
BLA BLA BLA BLA BLA BLA BLA BLA BLA BLA BLA BLA BLA BLA BLA BLA BLA BLA BLA BLA 
BLA BLA BLA BLA BLA BLA BLA BLA BLA BLA BLA BLA BLA BLA BLA BLA BLA BLA BLA BLA 
BLA BLA BLA BLA BLA BLA BLA BLA BLA BLA BLA BLA BLA BLA BLA BLA BLA BLA BLA BLA 
BLA BLA BLA BLA BLA BLA BLA BLA BLA BLA BLA BLA BLA BLA BLA BLA BLA BLA BLA BLA 
BLA BLA BLA BLA BLA BLA BLA BLA BLA BLA BLA BLA BLA BLA BLA BLA BLA BLA BLA BLA 
BLA BLA BLA BLA BLA BLA BLA BLA BLA BLA BLA BLA BLA BLA BLA BLA BLA BLA BLA BLA 
BLA BLA BLA BLA BLA BLA BLA BLA BLA BLA BLA BLA BLA BLA BLA BLA BLA BLA BLA BLA 
BLA BLA BLA BLA BLA BLA BLA BLA BLA BLA BLA BLA BLA BLA BLA BLA BLA BLA BLA BLA 
BLA BLA BLA BLA BLA BLA BLA BLA BLA BLA BLA BLA BLA BLA BLA BLA BLA BLA BLA BLA 
BLA BLA BLA BLA BLA BLA BLA BLA BLA BLA BLA BLA BLA BLA BLA BLA BLA BLA BLA BLA 
BLA BLA BLA BLA BLA BLA BLA BLA BLA BLA BLA BLA BLA BLA BLA BLA BLA BLA BLA BLA 
BLA BLA BLA BLA BLA BLA BLA BLA BLA BLA BLA BLA BLA BLA BLA BLA BLA BLA BLA BLA 
BLA BLA BLA BLA BLA BLA BLA BLA BLA BLA BLA BLA BLA BLA BLA BLA BLA BLA BLA BLA 
BLA BLA BLA BLA BLA BLA BLA BLA BLA BLA BLA BLA BLA BLA BLA BLA BLA BLA BLA BLA 
BLA BLA BLA BLA BLA BLA BLA BLA BLA BLA BLA BLA BLA BLA BLA BLA BLA BLA BLA BLA 
BLA BLA BLA BLA BLA BLA BLA BLA BLA BLA BLA BLA BLA BLA BLA BLA BLA BLA BLA BLA 
BLA BLA BLA BLA BLA BLA BLA BLA BLA BLA BLA BLA BLA BLA BLA BLA BLA BLA BLA BLA 
BLA BLA BLA BLA BLA BLA BLA BLA BLA BLA BLA BLA BLA BLA BLA BLA BLA BLA BLA BLA 
BLA BLA BLA BLA BLA BLA BLA BLA BLA BLA BLA BLA BLA BLA BLA BLA BLA BLA BLA BLA 
BLA BLA BLA BLA BLA BLA BLA BLA BLA BLA BLA BLA BLA BLA BLA BLA BLA BLA BLA BLA 
BLA BLA BLA BLA BLA BLA BLA BLA BLA BLA BLA BLA BLA BLA BLA BLA BLA BLA BLA BLA 
BLA BLA BLA BLA BLA BLA BLA BLA BLA BLA BLA BLA BLA BLA BLA BLA BLA BLA BLA BLA 
BLA BLA BLA BLA BLA BLA BLA BLA BLA BLA BLA BLA BLA BLA BLA BLA BLA BLA BLA BLA 
BLA BLA BLA BLA BLA BLA BLA BLA BLA BLA BLA BLA BLA BLA BLA BLA BLA BLA BLA BLA 
BLA BLA BLA BLA BLA BLA BLA BLA BLA BLA BLA BLA BLA BLA BLA BLA BLA BLA BLA BLA 
BLA BLA BLA BLA BLA BLA BLA BLA BLA BLA BLA BLA BLA BLA BLA BLA BLA BLA BLA BLA 
BLA BLA BLA BLA BLA BLA BLA BLA BLA BLA BLA BLA BLA BLA BLA BLA BLA BLA BLA BLA 
BLA BLA BLA BLA BLA BLA BLA BLA BLA BLA BLA BLA BLA BLA BLA BLA BLA BLA BLA BLA 
BLA BLA BLA BLA BLA BLA BLA BLA BLA BLA BLA BLA BLA BLA BLA BLA BLA BLA BLA BLA 
BLA BLA BLA BLA BLA BLA BLA BLA BLA BLA BLA BLA BLA BLA BLA BLA BLA BLA BLA BLA 
BLA BLA BLA BLA BLA BLA BLA BLA BLA BLA BLA BLA BLA BLA BLA BLA BLA BLA BLA BLA 
BLA BLA BLA BLA BLA BLA BLA BLA BLA BLA BLA BLA BLA BLA BLA BLA BLA BLA BLA BLA 
BLA BLA BLA BLA BLA BLA BLA BLA BLA BLA BLA BLA BLA BLA BLA BLA BLA BLA BLA BLA 
BLA BLA BLA BLA BLA BLA BLA BLA BLA BLA BLA BLA BLA BLA BLA BLA BLA BLA BLA BLA 
BLA BLA BLA BLA BLA BLA BLA BLA BLA BLA BLA BLA BLA BLA BLA BLA BLA BLA BLA BLA 
BLA BLA BLA BLA BLA BLA BLA BLA BLA BLA BLA BLA BLA BLA BLA BLA BLA BLA BLA BLA 
BLA BLA BLA BLA BLA BLA BLA BLA BLA BLA BLA BLA BLA BLA BLA BLA BLA BLA BLA BLA 
BLA BLA BLA BLA BLA BLA BLA BLA BLA BLA BLA BLA BLA BLA BLA BLA BLA BLA BLA BLA 
BLA BLA BLA BLA BLA BLA BLA BLA BLA BLA BLA BLA BLA BLA BLA BLA BLA BLA BLA BLA 
BLA BLA BLA BLA BLA BLA BLA BLA BLA BLA BLA BLA BLA BLA BLA BLA BLA BLA BLA BLA 
BLA BLA BLA BLA BLA BLA BLA BLA BLA BLA BLA BLA BLA BLA BLA BLA BLA BLA BLA BLA 
BLA BLA BLA BLA BLA BLA BLA BLA BLA BLA BLA BLA BLA BLA BLA BLA BLA BLA BLA BLA 
BLA BLA BLA BLA BLA BLA BLA BLA BLA BLA BLA BLA BLA BLA BLA BLA BLA BLA BLA BLA 
BLA BLA BLA BLA BLA BLA BLA BLA BLA BLA BLA BLA BLA BLA BLA BLA BLA BLA BLA BLA 
BLA BLA BLA BLA BLA BLA BLA BLA BLA BLA BLA BLA BLA BLA BLA BLA BLA BLA BLA BLA 
BLA BLA BLA BLA BLA BLA BLA BLA BLA BLA BLA BLA BLA BLA BLA BLA BLA BLA BLA BLA 
BLA BLA BLA BLA BLA BLA BLA BLA BLA BLA BLA BLA BLA BLA BLA BLA BLA BLA BLA BLA 
BLA BLA BLA BLA BLA BLA BLA BLA BLA BLA BLA BLA BLA BLA BLA BLA BLA BLA BLA BLA 
BLA BLA BLA BLA BLA BLA BLA BLA BLA BLA BLA BLA BLA BLA BLA BLA BLA BLA BLA BLA 
BLA BLA BLA BLA BLA BLA BLA BLA BLA BLA BLA BLA BLA BLA BLA BLA BLA BLA BLA BLA 
BLA BLA BLA BLA BLA BLA BLA BLA BLA BLA BLA BLA BLA BLA BLA BLA BLA BLA BLA BLA 
BLA BLA BLA BLA BLA BLA BLA BLA BLA BLA BLA BLA BLA BLA BLA BLA BLA BLA BLA BLA 
BLA BLA BLA BLA BLA BLA BLA BLA BLA BLA BLA BLA BLA BLA BLA BLA BLA BLA BLA BLA 
BLA BLA BLA BLA BLA BLA BLA BLA BLA BLA BLA BLA BLA BLA BLA BLA BLA BLA BLA BLA 
BLA BLA BLA BLA BLA BLA BLA BLA BLA BLA BLA BLA BLA BLA BLA BLA BLA BLA BLA BLA 
BLA BLA BLA BLA BLA BLA BLA BLA BLA BLA BLA BLA BLA BLA BLA BLA BLA BLA BLA BLA 
BLA BLA BLA BLA BLA BLA BLA BLA BLA BLA BLA BLA BLA BLA BLA BLA BLA BLA BLA BLA 
BLA BLA BLA BLA BLA BLA BLA BLA BLA BLA BLA BLA BLA BLA BLA BLA BLA BLA BLA BLA 
BLA BLA BLA BLA BLA BLA BLA BLA BLA BLA BLA BLA BLA BLA BLA BLA BLA BLA BLA BLA 
BLA BLA BLA BLA BLA BLA BLA BLA BLA BLA BLA BLA BLA BLA BLA BLA BLA BLA BLA BLA 
BLA BLA BLA BLA BLA BLA BLA BLA BLA BLA BLA BLA BLA BLA BLA BLA BLA BLA BLA BLA 
BLA BLA BLA BLA BLA BLA BLA BLA BLA BLA BLA BLA BLA BLA BLA BLA BLA BLA BLA BLA 
BLA BLA BLA BLA BLA BLA BLA BLA BLA BLA BLA BLA BLA BLA BLA BLA BLA BLA BLA BLA 
BLA BLA BLA BLA BLA BLA BLA BLA BLA BLA BLA BLA BLA BLA BLA BLA BLA BLA BLA BLA 
BLA BLA BLA BLA BLA BLA BLA BLA BLA BLA BLA BLA BLA BLA BLA BLA BLA BLA BLA BLA 
BLA BLA BLA BLA BLA BLA BLA BLA BLA BLA BLA BLA BLA BLA BLA BLA BLA BLA BLA BLA 
BLA BLA BLA BLA BLA BLA BLA BLA BLA BLA BLA BLA BLA BLA BLA BLA BLA BLA BLA BLA 
BLA BLA BLA BLA BLA BLA BLA BLA BLA BLA BLA BLA BLA BLA BLA BLA BLA BLA BLA BLA 
BLA BLA BLA BLA BLA BLA BLA BLA BLA BLA BLA BLA BLA BLA BLA BLA BLA BLA BLA BLA 
BLA BLA BLA BLA BLA BLA BLA BLA BLA BLA BLA BLA BLA BLA BLA BLA BLA BLA BLA BLA 
BLA BLA BLA BLA BLA BLA BLA BLA BLA BLA BLA BLA BLA BLA BLA BLA BLA BLA BLA BLA 
BLA BLA BLA BLA BLA BLA BLA BLA BLA BLA BLA BLA BLA BLA BLA BLA BLA BLA BLA BLA 
BLA BLA BLA BLA BLA BLA BLA BLA BLA BLA BLA BLA BLA BLA BLA BLA BLA BLA BLA BLA 
BLA BLA BLA BLA BLA BLA BLA BLA BLA BLA BLA BLA BLA BLA BLA BLA BLA BLA BLA BLA 
BLA BLA BLA BLA BLA BLA BLA BLA BLA BLA BLA BLA BLA BLA BLA BLA BLA BLA BLA BLA 
BLA BLA BLA BLA BLA BLA BLA BLA BLA BLA BLA BLA BLA BLA BLA BLA BLA BLA BLA BLA 
BLA BLA BLA BLA BLA BLA BLA BLA BLA BLA BLA BLA BLA BLA BLA BLA BLA BLA BLA BLA 
BLA BLA BLA BLA BLA BLA BLA BLA BLA BLA BLA BLA BLA BLA BLA BLA BLA BLA BLA BLA 
BLA BLA BLA BLA BLA BLA BLA BLA BLA BLA BLA BLA BLA BLA BLA BLA BLA BLA BLA BLA 
BLA BLA BLA BLA BLA BLA BLA BLA BLA BLA BLA BLA BLA BLA BLA BLA BLA BLA BLA BLA 
BLA BLA BLA BLA BLA BLA BLA BLA BLA BLA BLA BLA BLA BLA BLA BLA BLA BLA BLA BLA 
BLA BLA BLA BLA BLA BLA BLA BLA BLA BLA BLA BLA BLA BLA BLA BLA BLA BLA BLA BLA 
BLA BLA BLA BLA BLA BLA BLA BLA BLA BLA BLA BLA BLA BLA BLA BLA BLA BLA BLA BLA 
BLA BLA BLA BLA BLA BLA BLA BLA BLA BLA BLA BLA BLA BLA BLA BLA BLA BLA BLA BLA 
BLA BLA BLA BLA BLA BLA BLA BLA BLA BLA BLA BLA BLA BLA BLA BLA BLA BLA BLA BLA 
BLA BLA BLA BLA BLA BLA BLA BLA BLA BLA BLA BLA BLA BLA BLA BLA BLA BLA BLA BLA 
BLA BLA BLA BLA BLA BLA BLA BLA BLA BLA BLA BLA BLA BLA BLA BLA BLA BLA BLA BLA 
BLA BLA BLA BLA BLA BLA BLA BLA BLA BLA BLA BLA BLA BLA BLA BLA BLA BLA BLA BLA 
BLA BLA BLA BLA BLA BLA BLA BLA BLA BLA BLA BLA BLA BLA BLA BLA BLA BLA BLA BLA 
BLA BLA BLA BLA BLA BLA BLA BLA BLA BLA BLA BLA BLA BLA BLA BLA BLA BLA BLA BLA 
BLA BLA BLA BLA BLA BLA BLA BLA BLA BLA BLA BLA BLA BLA BLA BLA BLA BLA BLA BLA 
BLA BLA BLA BLA BLA BLA BLA BLA BLA BLA BLA BLA BLA BLA BLA BLA BLA BLA BLA BLA 
BLA BLA BLA BLA BLA BLA BLA BLA BLA BLA BLA BLA BLA BLA BLA BLA BLA BLA BLA BLA 
BLA BLA BLA BLA BLA BLA BLA BLA BLA BLA BLA BLA BLA BLA BLA BLA BLA BLA BLA BLA 
BLA BLA BLA BLA BLA BLA BLA BLA BLA BLA BLA BLA BLA BLA BLA BLA BLA BLA BLA BLA 
BLA BLA BLA BLA BLA BLA BLA BLA BLA BLA BLA BLA BLA BLA BLA BLA BLA BLA BLA BLA 
BLA BLA BLA BLA BLA BLA BLA BLA BLA BLA BLA BLA BLA BLA BLA BLA BLA BLA BLA BLA 
BLA BLA BLA BLA BLA BLA BLA BLA BLA BLA BLA BLA BLA BLA BLA BLA BLA BLA BLA BLA 
BLA BLA BLA BLA BLA BLA BLA BLA BLA BLA BLA BLA BLA BLA BLA BLA BLA BLA BLA BLA 
BLA BLA BLA BLA BLA BLA BLA BLA BLA BLA BLA BLA BLA BLA BLA BLA BLA BLA BLA BLA 
BLA BLA BLA BLA BLA BLA BLA BLA BLA BLA BLA BLA BLA BLA BLA BLA BLA BLA BLA BLA 
BLA BLA BLA BLA BLA BLA BLA BLA BLA BLA BLA BLA BLA BLA BLA BLA BLA BLA BLA BLA 
BLA BLA BLA BLA BLA BLA BLA BLA BLA BLA BLA BLA BLA BLA BLA BLA BLA BLA BLA BLA 
BLA BLA BLA BLA BLA BLA BLA BLA BLA BLA BLA BLA BLA BLA BLA BLA BLA BLA BLA BLA 
BLA BLA BLA BLA BLA BLA BLA BLA BLA BLA BLA BLA BLA BLA BLA BLA BLA BLA BLA BLA 
BLA BLA BLA BLA BLA BLA BLA BLA BLA BLA BLA BLA BLA BLA BLA BLA BLA BLA BLA BLA 
BLA BLA BLA BLA BLA BLA BLA BLA BLA BLA BLA BLA BLA BLA BLA BLA BLA BLA BLA BLA 
BLA BLA BLA BLA BLA BLA BLA BLA BLA BLA BLA BLA BLA BLA BLA BLA BLA BLA BLA BLA 
BLA BLA BLA BLA BLA BLA BLA BLA BLA BLA BLA BLA BLA BLA BLA BLA BLA BLA BLA BLA 
BLA BLA BLA BLA BLA BLA BLA BLA BLA BLA BLA BLA BLA BLA BLA BLA BLA BLA BLA BLA 
BLA BLA BLA BLA BLA BLA BLA BLA BLA BLA BLA BLA BLA BLA BLA BLA BLA BLA BLA BLA 
BLA BLA BLA BLA BLA BLA BLA BLA BLA BLA BLA BLA BLA BLA BLA BLA BLA BLA BLA BLA 
BLA BLA BLA BLA BLA BLA BLA BLA BLA BLA BLA BLA BLA BLA BLA BLA BLA BLA BLA BLA 
BLA BLA BLA BLA BLA BLA BLA BLA BLA BLA BLA BLA BLA BLA BLA BLA BLA BLA BLA BLA 
BLA BLA BLA BLA BLA BLA BLA BLA BLA BLA BLA BLA BLA BLA BLA BLA BLA BLA BLA BLA 
BLA BLA BLA BLA BLA BLA BLA BLA BLA BLA BLA BLA BLA BLA BLA BLA BLA BLA BLA BLA 
BLA BLA BLA BLA BLA BLA BLA BLA BLA BLA BLA BLA BLA BLA BLA BLA BLA BLA BLA BLA 
BLA BLA BLA BLA BLA BLA BLA BLA BLA BLA BLA BLA BLA BLA BLA BLA BLA BLA BLA BLA 
BLA BLA BLA BLA BLA BLA BLA BLA BLA BLA BLA BLA BLA BLA BLA BLA BLA BLA BLA BLA 
BLA BLA BLA BLA BLA BLA BLA BLA BLA BLA BLA BLA BLA BLA BLA BLA BLA BLA BLA BLA 
BLA BLA BLA BLA BLA BLA BLA BLA BLA BLA BLA BLA BLA BLA BLA BLA BLA BLA BLA BLA 
BLA BLA BLA BLA BLA BLA BLA BLA BLA BLA BLA BLA BLA BLA BLA BLA BLA BLA BLA BLA 
BLA BLA BLA BLA BLA BLA BLA BLA BLA BLA BLA BLA BLA BLA BLA BLA BLA BLA BLA BLA 
BLA BLA BLA BLA BLA BLA BLA BLA BLA BLA BLA BLA BLA BLA BLA BLA BLA BLA BLA BLA 
BLA BLA BLA BLA BLA BLA BLA BLA BLA BLA BLA BLA BLA BLA BLA BLA BLA BLA BLA BLA 
BLA BLA BLA BLA BLA BLA BLA BLA BLA BLA BLA BLA BLA BLA BLA BLA BLA BLA BLA BLA 
BLA BLA BLA BLA BLA BLA BLA BLA BLA BLA BLA BLA BLA BLA BLA BLA BLA BLA BLA BLA 
BLA BLA BLA BLA BLA BLA BLA BLA BLA BLA BLA BLA BLA BLA BLA BLA BLA BLA BLA BLA 
BLA BLA BLA BLA BLA BLA BLA BLA BLA BLA BLA BLA BLA BLA BLA BLA BLA BLA BLA BLA 
BLA BLA BLA BLA BLA BLA BLA BLA BLA BLA BLA BLA BLA BLA BLA BLA BLA BLA BLA BLA 
BLA BLA BLA BLA BLA BLA BLA BLA BLA BLA BLA BLA BLA BLA BLA BLA BLA BLA BLA BLA 
BLA BLA BLA BLA BLA BLA BLA BLA BLA BLA BLA BLA BLA BLA BLA BLA BLA BLA BLA BLA 
BLA BLA BLA BLA BLA BLA BLA BLA BLA BLA BLA BLA BLA BLA BLA BLA BLA BLA BLA BLA 
BLA BLA BLA BLA BLA BLA BLA BLA BLA BLA BLA BLA BLA BLA BLA BLA BLA BLA BLA BLA 
BLA BLA BLA BLA BLA BLA BLA BLA BLA BLA BLA BLA BLA BLA BLA BLA BLA BLA BLA BLA 
BLA BLA BLA BLA BLA BLA BLA BLA BLA BLA BLA BLA BLA BLA BLA BLA BLA BLA BLA BLA 
BLA BLA BLA BLA BLA BLA BLA BLA BLA BLA BLA BLA BLA BLA BLA BLA BLA BLA BLA BLA 
BLA BLA BLA BLA BLA BLA BLA BLA BLA BLA BLA BLA BLA BLA BLA BLA BLA BLA BLA BLA 
BLA BLA BLA BLA BLA BLA BLA BLA BLA BLA BLA BLA BLA BLA BLA BLA BLA BLA BLA BLA 
BLA BLA BLA BLA BLA BLA BLA BLA BLA BLA BLA BLA BLA BLA BLA BLA BLA BLA BLA BLA 
BLA BLA BLA BLA BLA BLA BLA BLA BLA BLA BLA BLA BLA BLA BLA BLA BLA BLA BLA BLA 
BLA BLA BLA BLA BLA BLA BLA BLA BLA BLA BLA BLA BLA BLA BLA BLA BLA BLA BLA BLA 
BLA BLA BLA BLA BLA BLA BLA BLA BLA BLA BLA BLA BLA BLA BLA BLA BLA BLA BLA BLA 
BLA BLA BLA BLA BLA BLA BLA BLA BLA BLA BLA BLA BLA BLA BLA BLA BLA BLA BLA BLA 
BLA BLA BLA BLA BLA BLA BLA BLA BLA BLA BLA BLA BLA BLA BLA BLA BLA BLA BLA BLA 
BLA BLA BLA BLA BLA BLA BLA BLA BLA BLA BLA BLA BLA BLA BLA BLA BLA BLA BLA BLA 
BLA BLA BLA BLA BLA BLA BLA BLA BLA BLA BLA BLA BLA BLA BLA BLA BLA BLA BLA BLA 
BLA BLA BLA BLA BLA BLA BLA BLA BLA BLA BLA BLA BLA BLA BLA BLA BLA BLA BLA BLA 
BLA BLA BLA BLA BLA BLA BLA BLA BLA BLA BLA BLA BLA BLA BLA BLA BLA BLA BLA BLA 
BLA BLA BLA BLA BLA BLA BLA BLA BLA BLA BLA BLA BLA BLA BLA BLA BLA BLA BLA BLA 
BLA BLA BLA BLA BLA BLA BLA BLA BLA BLA BLA BLA BLA BLA BLA BLA BLA BLA BLA BLA 
BLA BLA BLA BLA BLA BLA BLA BLA BLA BLA BLA BLA BLA BLA BLA BLA BLA BLA BLA BLA 
BLA BLA BLA BLA BLA BLA BLA BLA BLA BLA BLA BLA BLA BLA BLA BLA BLA BLA BLA BLA 
BLA BLA BLA BLA BLA BLA BLA BLA BLA BLA BLA BLA BLA BLA BLA BLA BLA BLA BLA BLA 
BLA BLA BLA BLA BLA BLA BLA BLA BLA BLA BLA BLA BLA BLA BLA BLA BLA BLA BLA BLA 
BLA BLA BLA BLA BLA BLA BLA BLA BLA BLA BLA BLA BLA BLA BLA BLA BLA BLA BLA BLA 
BLA BLA BLA BLA BLA BLA BLA BLA BLA BLA BLA BLA BLA BLA BLA BLA BLA BLA BLA BLA 
BLA BLA BLA BLA BLA BLA BLA BLA BLA BLA BLA BLA BLA BLA BLA BLA BLA BLA BLA BLA 
BLA BLA BLA BLA BLA BLA BLA BLA BLA BLA BLA BLA BLA BLA BLA BLA BLA BLA BLA BLA 
BLA BLA BLA BLA BLA BLA BLA BLA BLA BLA BLA BLA BLA BLA BLA BLA BLA BLA BLA BLA 
BLA BLA BLA BLA BLA BLA BLA BLA BLA BLA BLA BLA BLA BLA BLA BLA BLA BLA BLA BLA 
BLA BLA BLA BLA BLA BLA BLA BLA BLA BLA BLA BLA BLA BLA BLA BLA BLA BLA BLA BLA 
BLA BLA BLA BLA BLA BLA BLA BLA BLA BLA BLA BLA BLA BLA BLA BLA BLA BLA BLA BLA 
BLA BLA BLA BLA BLA BLA BLA BLA BLA BLA BLA BLA BLA BLA BLA BLA BLA BLA BLA BLA 
BLA BLA BLA BLA BLA BLA BLA BLA BLA BLA BLA BLA BLA BLA BLA BLA BLA BLA BLA BLA 
BLA BLA BLA BLA BLA BLA BLA BLA BLA BLA BLA BLA BLA BLA BLA BLA BLA BLA BLA BLA 
BLA BLA BLA BLA BLA BLA BLA BLA BLA BLA BLA BLA BLA BLA BLA BLA BLA BLA BLA BLA 
BLA BLA BLA BLA BLA BLA BLA BLA BLA BLA BLA BLA BLA BLA BLA BLA BLA BLA BLA BLA 
BLA BLA BLA BLA BLA BLA BLA BLA BLA BLA BLA BLA BLA BLA BLA BLA BLA BLA BLA BLA 
BLA BLA BLA BLA BLA BLA BLA BLA BLA BLA BLA BLA BLA BLA BLA BLA BLA BLA BLA BLA 
BLA BLA BLA BLA BLA BLA BLA BLA BLA BLA BLA BLA BLA BLA BLA BLA BLA BLA BLA BLA 
BLA BLA BLA BLA BLA BLA BLA BLA BLA BLA BLA BLA BLA BLA BLA BLA BLA BLA BLA BLA 
BLA BLA BLA BLA BLA BLA BLA BLA BLA BLA BLA BLA BLA BLA BLA BLA BLA BLA BLA BLA 
BLA BLA BLA BLA BLA BLA BLA BLA BLA BLA BLA BLA BLA BLA BLA BLA BLA BLA BLA BLA 
BLA BLA BLA BLA BLA BLA BLA BLA BLA BLA BLA BLA BLA BLA BLA BLA BLA BLA BLA BLA 
BLA BLA BLA BLA BLA BLA BLA BLA BLA BLA BLA BLA BLA BLA BLA BLA BLA BLA BLA BLA 
BLA BLA BLA BLA BLA BLA BLA BLA BLA BLA BLA BLA BLA BLA BLA BLA BLA BLA BLA BLA 
BLA BLA BLA BLA BLA BLA BLA BLA BLA BLA BLA BLA BLA BLA BLA BLA BLA BLA BLA BLA 
BLA BLA BLA BLA BLA BLA BLA BLA BLA BLA BLA BLA BLA BLA BLA BLA BLA BLA BLA BLA 
BLA BLA BLA BLA BLA BLA BLA BLA BLA BLA BLA BLA BLA BLA BLA BLA BLA BLA BLA BLA 
BLA BLA BLA BLA BLA BLA BLA BLA BLA BLA BLA BLA BLA BLA BLA BLA BLA BLA BLA BLA 
BLA BLA BLA BLA BLA BLA BLA BLA BLA BLA BLA BLA BLA BLA BLA BLA BLA BLA BLA BLA 
BLA BLA BLA BLA BLA BLA BLA BLA BLA BLA BLA BLA BLA BLA BLA BLA BLA BLA BLA BLA 
BLA BLA BLA BLA BLA BLA BLA BLA BLA BLA BLA BLA BLA BLA BLA BLA BLA BLA BLA BLA 
BLA BLA BLA BLA BLA BLA BLA BLA BLA BLA BLA BLA BLA BLA BLA BLA BLA BLA BLA BLA 
BLA BLA BLA BLA BLA BLA BLA BLA BLA BLA BLA BLA BLA BLA BLA BLA BLA BLA BLA BLA 
BLA BLA BLA BLA BLA BLA BLA BLA BLA BLA BLA BLA BLA BLA BLA BLA BLA BLA BLA BLA 
BLA BLA BLA BLA BLA BLA BLA BLA BLA BLA BLA BLA BLA BLA BLA BLA BLA BLA BLA BLA 
BLA BLA BLA BLA BLA BLA BLA BLA BLA BLA BLA BLA BLA BLA BLA BLA BLA BLA BLA BLA 
BLA BLA BLA BLA BLA BLA BLA BLA BLA BLA BLA BLA BLA BLA BLA BLA BLA BLA BLA BLA 
BLA BLA BLA BLA BLA BLA BLA BLA BLA BLA BLA BLA BLA BLA BLA BLA BLA BLA BLA BLA 
BLA BLA BLA BLA BLA BLA BLA BLA BLA BLA BLA BLA BLA BLA BLA BLA BLA BLA BLA BLA 
BLA BLA BLA BLA BLA BLA BLA BLA BLA BLA BLA BLA BLA BLA BLA BLA BLA BLA BLA BLA 
BLA BLA BLA BLA BLA BLA BLA BLA BLA BLA BLA BLA BLA BLA BLA BLA BLA BLA BLA BLA 
BLA BLA BLA BLA BLA BLA BLA BLA BLA BLA BLA BLA BLA BLA BLA BLA BLA BLA BLA BLA 
BLA BLA BLA BLA BLA BLA BLA BLA BLA BLA BLA BLA BLA BLA BLA BLA BLA BLA BLA BLA 
BLA BLA BLA BLA BLA BLA BLA BLA BLA BLA BLA BLA BLA BLA BLA BLA BLA BLA BLA BLA 
BLA BLA BLA BLA BLA BLA BLA BLA BLA BLA BLA BLA BLA BLA BLA BLA BLA BLA BLA BLA 
BLA BLA BLA BLA BLA BLA BLA BLA BLA BLA BLA BLA BLA BLA BLA BLA BLA BLA BLA BLA 
BLA BLA BLA BLA BLA BLA BLA BLA BLA BLA BLA BLA BLA BLA BLA BLA BLA BLA BLA BLA 
BLA BLA BLA BLA BLA BLA BLA BLA BLA BLA BLA BLA BLA BLA BLA BLA BLA BLA BLA BLA 
BLA BLA BLA BLA BLA BLA BLA BLA BLA BLA BLA BLA BLA BLA BLA BLA BLA BLA BLA BLA 
BLA BLA BLA BLA BLA BLA BLA BLA BLA BLA BLA BLA BLA BLA BLA BLA BLA BLA BLA BLA 
BLA BLA BLA BLA BLA BLA BLA BLA BLA BLA BLA BLA BLA BLA BLA BLA BLA BLA BLA BLA 
BLA BLA BLA BLA BLA BLA BLA BLA BLA BLA BLA BLA BLA BLA BLA BLA BLA BLA BLA BLA 
BLA BLA BLA BLA BLA BLA BLA BLA BLA BLA BLA BLA BLA BLA BLA BLA BLA BLA BLA BLA 
BLA BLA BLA BLA BLA BLA BLA BLA BLA BLA BLA BLA BLA BLA BLA BLA BLA BLA BLA BLA 
BLA BLA BLA BLA BLA BLA BLA BLA BLA BLA BLA BLA BLA BLA BLA BLA BLA BLA BLA BLA 
BLA BLA BLA BLA BLA BLA BLA BLA BLA BLA BLA BLA BLA BLA BLA BLA BLA BLA BLA BLA 
BLA BLA BLA BLA BLA BLA BLA BLA BLA BLA BLA BLA BLA BLA BLA BLA BLA BLA BLA BLA 
BLA BLA BLA BLA BLA BLA BLA BLA BLA BLA BLA BLA BLA BLA BLA BLA BLA BLA BLA BLA 
BLA BLA BLA BLA BLA BLA BLA BLA BLA BLA BLA BLA BLA BLA BLA BLA BLA BLA BLA BLA 
BLA BLA BLA BLA BLA BLA BLA BLA BLA BLA BLA BLA BLA BLA BLA BLA BLA BLA BLA BLA 
BLA BLA BLA BLA BLA BLA BLA BLA BLA BLA BLA BLA BLA BLA BLA BLA BLA BLA BLA BLA 
BLA BLA BLA BLA BLA BLA BLA BLA BLA BLA BLA BLA BLA BLA BLA BLA BLA BLA BLA BLA 
BLA BLA BLA BLA BLA BLA BLA BLA BLA BLA BLA BLA BLA BLA BLA BLA BLA BLA BLA BLA 
BLA BLA BLA BLA BLA BLA BLA BLA BLA BLA BLA BLA BLA BLA BLA BLA BLA BLA BLA BLA 
BLA BLA BLA BLA BLA BLA BLA BLA BLA BLA BLA BLA BLA BLA BLA BLA BLA BLA BLA BLA 
BLA BLA BLA BLA BLA BLA BLA BLA BLA BLA BLA BLA BLA BLA BLA BLA BLA BLA BLA BLA 
BLA BLA BLA BLA BLA BLA BLA BLA BLA BLA BLA BLA BLA BLA BLA BLA BLA BLA BLA BLA 
BLA BLA BLA BLA BLA BLA BLA BLA BLA BLA BLA BLA BLA BLA BLA BLA BLA BLA BLA BLA 
BLA BLA BLA BLA BLA BLA BLA BLA BLA BLA BLA BLA BLA BLA BLA BLA BLA BLA BLA BLA 
BLA BLA BLA BLA BLA BLA BLA BLA BLA BLA BLA BLA BLA BLA BLA BLA BLA BLA BLA BLA 
BLA BLA BLA BLA BLA BLA BLA BLA BLA BLA BLA BLA BLA BLA BLA BLA BLA BLA BLA BLA 
BLA BLA BLA BLA BLA BLA BLA BLA BLA BLA BLA BLA BLA BLA BLA BLA BLA BLA BLA BLA 
BLA BLA BLA BLA BLA BLA BLA BLA BLA BLA BLA BLA BLA BLA BLA BLA BLA BLA BLA BLA 
BLA BLA BLA BLA BLA BLA BLA BLA BLA BLA BLA BLA BLA BLA BLA BLA BLA BLA BLA BLA 
BLA BLA BLA BLA BLA BLA BLA BLA BLA BLA BLA BLA BLA BLA BLA BLA BLA BLA BLA BLA 
BLA BLA BLA BLA BLA BLA BLA BLA BLA BLA BLA BLA BLA BLA BLA BLA BLA BLA BLA BLA 
BLA BLA BLA BLA BLA BLA BLA BLA BLA BLA BLA BLA BLA BLA BLA BLA BLA BLA BLA BLA 
BLA BLA BLA BLA BLA BLA BLA BLA BLA BLA BLA BLA BLA BLA BLA BLA BLA BLA BLA BLA 
BLA BLA BLA BLA BLA BLA BLA BLA BLA BLA BLA BLA BLA BLA BLA BLA BLA BLA BLA BLA 
BLA BLA BLA BLA BLA BLA BLA BLA BLA BLA BLA BLA BLA BLA BLA BLA BLA BLA BLA BLA 
BLA BLA BLA BLA BLA BLA BLA BLA BLA BLA BLA BLA BLA BLA BLA BLA BLA BLA BLA BLA 
BLA BLA BLA BLA BLA BLA BLA BLA BLA BLA BLA BLA BLA BLA BLA BLA BLA BLA BLA BLA 
BLA BLA BLA BLA BLA BLA BLA BLA BLA BLA BLA BLA BLA BLA BLA BLA BLA BLA BLA BLA 
BLA BLA BLA BLA BLA BLA BLA BLA BLA BLA BLA BLA BLA BLA BLA BLA BLA BLA BLA BLA 
BLA BLA BLA BLA BLA BLA BLA BLA BLA BLA BLA BLA BLA BLA BLA BLA BLA BLA BLA BLA 
BLA BLA BLA BLA BLA BLA BLA BLA BLA BLA BLA BLA BLA BLA BLA BLA BLA BLA BLA BLA 
BLA BLA BLA BLA BLA BLA BLA BLA BLA BLA BLA BLA BLA BLA BLA BLA BLA BLA BLA BLA 
BLA BLA BLA BLA BLA BLA BLA BLA BLA BLA BLA BLA BLA BLA BLA BLA BLA BLA BLA BLA 
BLA BLA BLA BLA BLA BLA BLA BLA BLA BLA BLA BLA BLA BLA BLA BLA BLA BLA BLA BLA 
BLA BLA BLA BLA BLA BLA BLA BLA BLA BLA BLA BLA BLA BLA BLA BLA BLA BLA BLA BLA 
BLA BLA BLA BLA BLA BLA BLA BLA BLA BLA BLA BLA BLA BLA BLA BLA BLA BLA BLA BLA 
BLA BLA BLA BLA BLA BLA BLA BLA BLA BLA BLA BLA BLA BLA BLA BLA BLA BLA BLA BLA 
BLA BLA BLA BLA BLA BLA BLA BLA BLA BLA BLA BLA BLA BLA BLA BLA BLA BLA BLA BLA 
BLA BLA BLA BLA BLA BLA BLA BLA BLA BLA BLA BLA BLA BLA BLA BLA BLA BLA BLA BLA 
BLA BLA BLA BLA BLA BLA BLA BLA BLA BLA BLA BLA BLA BLA BLA BLA BLA BLA BLA BLA 
BLA BLA BLA BLA BLA BLA BLA BLA BLA BLA BLA BLA BLA BLA BLA BLA BLA BLA BLA BLA 
BLA BLA BLA BLA BLA BLA BLA BLA BLA BLA BLA BLA BLA BLA BLA BLA BLA BLA BLA BLA 
BLA BLA BLA BLA BLA BLA BLA BLA BLA BLA BLA BLA BLA BLA BLA BLA BLA BLA BLA BLA 
BLA BLA BLA BLA BLA BLA BLA BLA BLA BLA BLA BLA BLA BLA BLA BLA BLA BLA BLA BLA 
BLA BLA BLA BLA BLA BLA BLA BLA BLA BLA BLA BLA BLA BLA BLA BLA BLA BLA BLA BLA 
BLA BLA BLA BLA BLA BLA BLA BLA BLA BLA BLA BLA BLA BLA BLA BLA BLA BLA BLA BLA 
BLA BLA BLA BLA BLA BLA BLA BLA BLA BLA BLA BLA BLA BLA BLA BLA BLA BLA BLA BLA 
BLA BLA BLA BLA BLA BLA BLA BLA BLA BLA BLA BLA BLA BLA BLA BLA BLA BLA BLA BLA 
BLA BLA BLA BLA BLA BLA BLA BLA BLA BLA BLA BLA BLA BLA BLA BLA BLA BLA BLA BLA 
BLA BLA BLA BLA BLA BLA BLA BLA BLA BLA BLA BLA BLA BLA BLA BLA BLA BLA BLA BLA 
BLA BLA BLA BLA BLA BLA BLA BLA BLA BLA BLA BLA BLA BLA BLA BLA BLA BLA BLA BLA 
BLA BLA BLA BLA BLA BLA BLA BLA BLA BLA BLA BLA BLA BLA BLA BLA BLA BLA BLA BLA 
BLA BLA BLA BLA BLA BLA BLA BLA BLA BLA BLA BLA BLA BLA BLA BLA BLA BLA BLA BLA 
BLA BLA BLA BLA BLA BLA BLA BLA BLA BLA BLA BLA BLA BLA BLA BLA BLA BLA BLA BLA 
BLA BLA BLA BLA BLA BLA BLA BLA BLA BLA BLA BLA BLA BLA BLA BLA BLA BLA BLA BLA 
BLA BLA BLA BLA BLA BLA BLA BLA BLA BLA BLA BLA BLA BLA BLA BLA BLA BLA BLA BLA 
BLA BLA BLA BLA BLA BLA BLA BLA BLA BLA BLA BLA BLA BLA BLA BLA BLA BLA BLA BLA 
BLA BLA BLA BLA BLA BLA BLA BLA BLA BLA BLA BLA BLA BLA BLA BLA BLA BLA BLA BLA 
BLA BLA BLA BLA BLA BLA BLA BLA BLA BLA BLA BLA BLA BLA BLA BLA BLA BLA BLA BLA 
BLA BLA BLA BLA BLA BLA BLA BLA BLA BLA BLA BLA BLA BLA BLA BLA BLA BLA BLA BLA 
BLA BLA BLA BLA BLA BLA BLA BLA BLA BLA BLA BLA BLA BLA BLA BLA BLA BLA BLA BLA 
BLA BLA BLA BLA BLA BLA BLA BLA BLA BLA BLA BLA BLA BLA BLA BLA BLA BLA BLA BLA 
BLA BLA BLA BLA BLA BLA BLA BLA BLA BLA BLA BLA BLA BLA BLA BLA BLA BLA BLA BLA 
BLA BLA BLA BLA BLA BLA BLA BLA BLA BLA BLA BLA BLA BLA BLA BLA BLA BLA BLA BLA 
BLA BLA BLA BLA BLA BLA BLA BLA BLA BLA BLA BLA BLA BLA BLA BLA BLA BLA BLA BLA 
BLA BLA BLA BLA BLA BLA BLA BLA BLA BLA BLA BLA BLA BLA BLA BLA BLA BLA BLA BLA 
BLA BLA BLA BLA BLA BLA BLA BLA BLA BLA BLA BLA BLA BLA BLA BLA BLA BLA BLA BLA 
BLA BLA BLA BLA BLA BLA BLA BLA BLA BLA BLA BLA BLA BLA BLA BLA BLA BLA BLA BLA 
BLA BLA BLA BLA BLA BLA BLA BLA BLA BLA BLA BLA BLA BLA BLA BLA BLA BLA BLA BLA 
BLA BLA BLA BLA BLA BLA BLA BLA BLA BLA BLA BLA BLA BLA BLA BLA BLA BLA BLA BLA 
BLA BLA BLA BLA BLA BLA BLA BLA BLA BLA BLA BLA BLA BLA BLA BLA BLA BLA BLA BLA 
BLA BLA BLA BLA BLA BLA BLA BLA BLA BLA BLA BLA BLA BLA BLA BLA BLA BLA BLA BLA 
BLA BLA BLA BLA BLA BLA BLA BLA BLA BLA BLA BLA BLA BLA BLA BLA BLA BLA BLA BLA 
BLA BLA BLA BLA BLA BLA BLA BLA BLA BLA BLA BLA BLA BLA BLA BLA BLA BLA BLA BLA 
BLA BLA BLA BLA BLA BLA BLA BLA BLA BLA BLA BLA BLA BLA BLA BLA BLA BLA BLA BLA 
BLA BLA BLA BLA BLA BLA BLA BLA BLA BLA BLA BLA BLA BLA BLA BLA BLA BLA BLA BLA 
BLA BLA BLA BLA BLA BLA BLA BLA BLA BLA BLA BLA BLA BLA BLA BLA BLA BLA BLA BLA 
BLA BLA BLA BLA BLA BLA BLA BLA BLA BLA BLA BLA BLA BLA BLA BLA BLA BLA BLA BLA 
BLA BLA BLA BLA BLA BLA BLA BLA BLA BLA BLA BLA BLA BLA BLA BLA BLA BLA BLA BLA 
BLA BLA BLA BLA BLA BLA BLA BLA BLA BLA BLA BLA BLA BLA BLA BLA BLA BLA BLA BLA 
BLA BLA BLA BLA BLA BLA BLA BLA BLA BLA BLA BLA BLA BLA BLA BLA BLA BLA BLA BLA 
BLA BLA BLA BLA BLA BLA BLA BLA BLA BLA BLA BLA BLA BLA BLA BLA BLA BLA BLA BLA 
BLA BLA BLA BLA BLA BLA BLA BLA BLA BLA BLA BLA BLA BLA BLA BLA BLA BLA BLA BLA 
BLA BLA BLA BLA BLA BLA BLA BLA BLA BLA BLA BLA BLA BLA BLA BLA BLA BLA BLA BLA 
BLA BLA BLA BLA BLA BLA BLA BLA BLA BLA BLA BLA BLA BLA BLA BLA BLA BLA BLA BLA 
BLA BLA BLA BLA BLA BLA BLA BLA BLA BLA BLA BLA BLA BLA BLA BLA BLA BLA BLA BLA 
BLA BLA BLA BLA BLA BLA BLA BLA BLA BLA BLA BLA BLA BLA BLA BLA BLA BLA BLA BLA 
BLA BLA BLA BLA BLA BLA BLA BLA BLA BLA BLA BLA BLA BLA BLA BLA BLA BLA BLA BLA 
BLA BLA BLA BLA BLA BLA BLA BLA BLA BLA BLA BLA BLA BLA BLA BLA BLA BLA BLA BLA 
BLA BLA BLA BLA BLA BLA BLA BLA BLA BLA BLA BLA BLA BLA BLA BLA BLA BLA BLA BLA 
BLA BLA BLA BLA BLA BLA BLA BLA BLA BLA BLA BLA BLA BLA BLA BLA BLA BLA BLA BLA 
BLA BLA BLA BLA BLA BLA BLA BLA BLA BLA BLA BLA BLA BLA BLA BLA BLA BLA BLA BLA 
BLA BLA BLA BLA BLA BLA BLA BLA BLA BLA BLA BLA BLA BLA BLA BLA BLA BLA BLA BLA 
BLA BLA BLA BLA BLA BLA BLA BLA BLA BLA BLA BLA BLA BLA BLA BLA BLA BLA BLA BLA 
BLA BLA BLA BLA BLA BLA BLA BLA BLA BLA BLA BLA BLA BLA BLA BLA BLA BLA BLA BLA 
BLA BLA BLA BLA BLA BLA BLA BLA BLA BLA BLA BLA BLA BLA BLA BLA BLA BLA BLA BLA 
BLA BLA BLA BLA BLA BLA BLA BLA BLA BLA BLA BLA BLA BLA BLA BLA BLA BLA BLA BLA 
BLA BLA BLA BLA BLA BLA BLA BLA BLA BLA BLA BLA BLA BLA BLA BLA BLA BLA BLA BLA 
BLA BLA BLA BLA BLA BLA BLA BLA BLA BLA BLA BLA BLA BLA BLA BLA BLA BLA BLA BLA 
BLA BLA BLA BLA BLA BLA BLA BLA BLA BLA BLA BLA BLA BLA BLA BLA BLA BLA BLA BLA 
BLA BLA BLA BLA BLA BLA BLA BLA BLA BLA BLA BLA BLA BLA BLA BLA BLA BLA BLA BLA 
BLA BLA BLA BLA BLA BLA BLA BLA BLA BLA BLA BLA BLA BLA BLA BLA BLA BLA BLA BLA 
BLA BLA BLA BLA BLA BLA BLA BLA BLA BLA BLA BLA BLA BLA BLA BLA BLA BLA BLA BLA 
BLA BLA BLA BLA BLA BLA BLA BLA BLA BLA BLA BLA BLA BLA BLA BLA BLA BLA BLA BLA 
BLA BLA BLA BLA BLA BLA BLA BLA BLA BLA BLA BLA BLA BLA BLA BLA BLA BLA BLA BLA 
BLA BLA BLA BLA BLA BLA BLA BLA BLA BLA BLA BLA BLA BLA BLA BLA BLA BLA BLA BLA 
BLA BLA BLA BLA BLA BLA BLA BLA BLA BLA BLA BLA BLA BLA BLA BLA BLA BLA BLA BLA 
BLA BLA BLA BLA BLA BLA BLA BLA BLA BLA BLA BLA BLA BLA BLA BLA BLA BLA BLA BLA 
BLA BLA BLA BLA BLA BLA BLA BLA BLA BLA BLA BLA BLA BLA BLA BLA BLA BLA BLA BLA 
BLA BLA BLA BLA BLA BLA BLA BLA BLA BLA BLA BLA BLA BLA BLA BLA BLA BLA BLA BLA 
BLA BLA BLA BLA BLA BLA BLA BLA BLA BLA BLA BLA BLA BLA BLA BLA BLA BLA BLA BLA 
BLA BLA BLA BLA BLA BLA BLA BLA BLA BLA BLA BLA BLA BLA BLA BLA BLA BLA BLA BLA 
BLA BLA BLA BLA BLA BLA BLA BLA BLA BLA BLA BLA BLA BLA BLA BLA BLA BLA BLA BLA 
BLA BLA BLA BLA BLA BLA BLA BLA BLA BLA BLA BLA BLA BLA BLA BLA BLA BLA BLA BLA 
BLA BLA BLA BLA BLA BLA BLA BLA BLA BLA BLA BLA BLA BLA BLA BLA BLA BLA BLA BLA 
BLA BLA BLA BLA BLA BLA BLA BLA BLA BLA BLA BLA BLA BLA BLA BLA BLA BLA BLA BLA 
BLA BLA BLA BLA BLA BLA BLA BLA BLA BLA BLA BLA BLA BLA BLA BLA BLA BLA BLA BLA 
BLA BLA BLA BLA BLA BLA BLA BLA BLA BLA BLA BLA BLA BLA BLA BLA BLA BLA BLA BLA 
BLA BLA BLA BLA BLA BLA BLA BLA BLA BLA BLA BLA BLA BLA BLA BLA BLA BLA BLA BLA 
BLA BLA BLA BLA BLA BLA BLA BLA BLA BLA BLA BLA BLA BLA BLA BLA BLA BLA BLA BLA 
BLA BLA BLA BLA BLA BLA BLA BLA BLA BLA BLA BLA BLA BLA BLA BLA BLA BLA BLA BLA 
BLA BLA BLA BLA BLA BLA BLA BLA BLA BLA BLA BLA BLA BLA BLA BLA BLA BLA BLA BLA 
BLA BLA BLA BLA BLA BLA BLA BLA BLA BLA BLA BLA BLA BLA BLA BLA BLA BLA BLA BLA 
BLA BLA BLA BLA BLA BLA BLA BLA BLA BLA BLA BLA BLA BLA BLA BLA BLA BLA BLA BLA 
BLA BLA BLA BLA BLA BLA BLA BLA BLA BLA BLA BLA BLA BLA BLA BLA BLA BLA BLA BLA 
BLA BLA BLA BLA BLA BLA BLA BLA BLA BLA BLA BLA BLA BLA BLA BLA BLA BLA BLA BLA 
BLA BLA BLA BLA BLA BLA BLA BLA BLA BLA BLA BLA BLA BLA BLA BLA BLA BLA BLA BLA 
BLA BLA BLA BLA BLA BLA BLA BLA BLA BLA BLA BLA BLA BLA BLA BLA BLA BLA BLA BLA 
BLA BLA BLA BLA BLA BLA BLA BLA BLA BLA BLA BLA BLA BLA BLA BLA BLA BLA BLA BLA 
BLA BLA BLA BLA BLA BLA BLA BLA BLA BLA BLA BLA BLA BLA BLA BLA BLA BLA BLA BLA 
BLA BLA BLA BLA BLA BLA BLA BLA BLA BLA BLA BLA BLA BLA BLA BLA BLA BLA BLA BLA 
BLA BLA BLA BLA BLA BLA BLA BLA BLA BLA BLA BLA BLA BLA BLA BLA BLA BLA BLA BLA 
BLA BLA BLA BLA BLA BLA BLA BLA BLA BLA BLA BLA BLA BLA BLA BLA BLA BLA BLA BLA 
BLA BLA BLA BLA BLA BLA BLA BLA BLA BLA BLA BLA BLA BLA BLA BLA BLA BLA BLA BLA 
BLA BLA BLA BLA BLA BLA BLA BLA BLA BLA BLA BLA BLA BLA BLA BLA BLA BLA BLA BLA 
BLA BLA BLA BLA BLA BLA BLA BLA BLA BLA BLA BLA BLA BLA BLA BLA BLA BLA BLA BLA 
BLA BLA BLA BLA BLA BLA BLA BLA BLA BLA BLA BLA BLA BLA BLA BLA BLA BLA BLA BLA 
BLA BLA BLA BLA BLA BLA BLA BLA BLA BLA BLA BLA BLA BLA BLA BLA BLA BLA BLA BLA 
BLA BLA BLA BLA BLA BLA BLA BLA BLA BLA BLA BLA BLA BLA BLA BLA BLA BLA BLA BLA 
BLA BLA BLA BLA BLA BLA BLA BLA BLA BLA BLA BLA BLA BLA BLA BLA BLA BLA BLA BLA 
BLA BLA BLA BLA BLA BLA BLA BLA BLA BLA BLA BLA BLA BLA BLA BLA BLA BLA BLA BLA 
BLA BLA BLA BLA BLA BLA BLA BLA BLA BLA BLA BLA BLA BLA BLA BLA BLA BLA BLA BLA 
BLA BLA BLA BLA BLA BLA BLA BLA BLA BLA BLA BLA BLA BLA BLA BLA BLA BLA BLA BLA 
BLA BLA BLA BLA BLA BLA BLA BLA BLA BLA BLA BLA BLA BLA BLA BLA BLA BLA BLA BLA 
BLA BLA BLA BLA BLA BLA BLA BLA BLA BLA BLA BLA BLA BLA BLA BLA BLA BLA BLA BLA 
BLA BLA BLA BLA BLA BLA BLA BLA BLA BLA BLA BLA BLA BLA BLA BLA BLA BLA BLA BLA 
BLA BLA BLA BLA BLA BLA BLA BLA BLA BLA BLA BLA BLA BLA BLA BLA BLA BLA BLA BLA 
BLA BLA BLA BLA BLA BLA BLA BLA BLA BLA BLA BLA BLA BLA BLA BLA BLA BLA BLA BLA 
BLA BLA BLA BLA BLA BLA BLA BLA BLA BLA BLA BLA BLA BLA BLA BLA BLA BLA BLA BLA 
BLA BLA BLA BLA BLA BLA BLA BLA BLA BLA BLA BLA BLA BLA BLA BLA BLA BLA BLA BLA 
BLA BLA BLA BLA BLA BLA BLA BLA BLA BLA BLA BLA BLA BLA BLA BLA BLA BLA BLA BLA 
BLA BLA BLA BLA BLA BLA BLA BLA BLA BLA BLA BLA BLA BLA BLA BLA BLA BLA BLA BLA 
BLA BLA BLA BLA BLA BLA BLA BLA BLA BLA BLA BLA BLA BLA BLA BLA BLA BLA BLA BLA 
BLA BLA BLA BLA BLA BLA BLA BLA BLA BLA BLA BLA BLA BLA BLA BLA BLA BLA BLA BLA 
BLA BLA BLA BLA BLA BLA BLA BLA BLA BLA BLA BLA BLA BLA BLA BLA BLA BLA BLA BLA 
BLA BLA BLA BLA BLA BLA BLA BLA BLA BLA BLA BLA BLA BLA BLA BLA BLA BLA BLA BLA 
BLA BLA BLA BLA BLA BLA BLA BLA BLA BLA BLA BLA BLA BLA BLA BLA BLA BLA BLA BLA 
BLA BLA BLA BLA BLA BLA BLA BLA BLA BLA BLA BLA BLA BLA BLA BLA BLA BLA BLA BLA 
BLA BLA BLA BLA BLA BLA BLA BLA BLA BLA BLA BLA BLA BLA BLA BLA BLA BLA BLA BLA 
BLA BLA BLA BLA BLA BLA BLA BLA BLA BLA BLA BLA BLA BLA BLA BLA BLA BLA BLA BLA 
BLA BLA BLA BLA BLA BLA BLA BLA BLA BLA BLA BLA BLA BLA BLA BLA BLA BLA BLA BLA 
BLA BLA BLA BLA BLA BLA BLA BLA BLA BLA BLA BLA BLA BLA BLA BLA BLA BLA BLA BLA 
BLA BLA BLA BLA BLA BLA BLA BLA BLA BLA BLA BLA BLA BLA BLA BLA BLA BLA BLA BLA 
BLA BLA BLA BLA BLA BLA BLA BLA BLA BLA BLA BLA BLA BLA BLA BLA BLA BLA BLA BLA 
BLA BLA BLA BLA BLA BLA BLA BLA BLA BLA BLA BLA BLA BLA BLA BLA BLA BLA BLA BLA 
BLA BLA BLA BLA BLA BLA BLA BLA BLA BLA BLA BLA BLA BLA BLA BLA BLA BLA BLA BLA 
BLA BLA BLA BLA BLA BLA BLA BLA BLA BLA BLA BLA BLA BLA BLA BLA BLA BLA BLA BLA 
BLA BLA BLA BLA BLA BLA BLA BLA BLA BLA BLA BLA BLA BLA BLA BLA BLA BLA BLA BLA 
BLA BLA BLA BLA BLA BLA BLA BLA BLA BLA BLA BLA BLA BLA BLA BLA BLA BLA BLA BLA 
BLA BLA BLA BLA BLA BLA BLA BLA BLA BLA BLA BLA BLA BLA BLA BLA BLA BLA BLA BLA 
BLA BLA BLA BLA BLA BLA BLA BLA BLA BLA BLA BLA BLA BLA BLA BLA BLA BLA BLA BLA 
BLA BLA BLA BLA BLA BLA BLA BLA BLA BLA BLA BLA BLA BLA BLA BLA BLA BLA BLA BLA 
BLA BLA BLA BLA BLA BLA BLA BLA BLA BLA BLA BLA BLA BLA BLA BLA BLA BLA BLA BLA 
BLA BLA BLA BLA BLA BLA BLA BLA BLA BLA BLA BLA BLA BLA BLA BLA BLA BLA BLA BLA 
BLA BLA BLA BLA BLA BLA BLA BLA BLA BLA BLA BLA BLA BLA BLA BLA BLA BLA BLA BLA 
BLA BLA BLA BLA BLA BLA BLA BLA BLA BLA BLA BLA BLA BLA BLA BLA BLA BLA BLA BLA 
BLA BLA BLA BLA BLA BLA BLA BLA BLA BLA BLA BLA BLA BLA BLA BLA BLA BLA BLA BLA 
BLA BLA BLA BLA BLA BLA BLA BLA BLA BLA BLA BLA BLA BLA BLA BLA BLA BLA BLA BLA 
BLA BLA BLA BLA BLA BLA BLA BLA BLA BLA BLA BLA BLA BLA BLA BLA BLA BLA BLA BLA 
BLA BLA BLA BLA BLA BLA BLA BLA BLA BLA BLA BLA BLA BLA BLA BLA BLA BLA BLA BLA 
BLA BLA BLA BLA BLA BLA BLA BLA BLA BLA BLA BLA BLA BLA BLA BLA BLA BLA BLA BLA 
BLA BLA BLA BLA BLA BLA BLA BLA BLA BLA BLA BLA BLA BLA BLA BLA BLA BLA BLA BLA 
BLA BLA BLA BLA BLA BLA BLA BLA BLA BLA BLA BLA BLA BLA BLA BLA BLA BLA BLA BLA 
BLA BLA BLA BLA BLA BLA BLA BLA BLA BLA BLA BLA BLA BLA BLA BLA BLA BLA BLA BLA 
BLA BLA BLA BLA BLA BLA BLA BLA BLA BLA BLA BLA BLA BLA BLA BLA BLA BLA BLA BLA 
BLA BLA BLA BLA BLA BLA BLA BLA BLA BLA BLA BLA BLA BLA BLA BLA BLA BLA BLA BLA 
BLA BLA BLA BLA BLA BLA BLA BLA BLA BLA BLA BLA BLA BLA BLA BLA BLA BLA BLA BLA 
BLA BLA BLA BLA BLA BLA BLA BLA BLA BLA BLA BLA BLA BLA BLA BLA BLA BLA BLA BLA 
BLA BLA BLA BLA BLA BLA BLA BLA BLA BLA BLA BLA BLA BLA BLA BLA BLA BLA BLA BLA 
BLA BLA BLA BLA BLA BLA BLA BLA BLA BLA BLA BLA BLA BLA BLA BLA BLA BLA BLA BLA 
BLA BLA BLA BLA BLA BLA BLA BLA BLA BLA BLA BLA BLA BLA BLA BLA BLA BLA BLA BLA 
BLA BLA BLA BLA BLA BLA BLA BLA BLA BLA BLA BLA BLA BLA BLA BLA BLA BLA BLA BLA 
BLA BLA BLA BLA BLA BLA BLA BLA BLA BLA BLA BLA BLA BLA BLA BLA BLA BLA BLA BLA 
BLA BLA BLA BLA BLA BLA BLA BLA BLA BLA BLA BLA BLA BLA BLA BLA BLA BLA BLA BLA 
BLA BLA BLA BLA BLA BLA BLA BLA BLA BLA BLA BLA BLA BLA BLA BLA BLA BLA BLA BLA 
BLA BLA BLA BLA BLA BLA BLA BLA BLA BLA BLA BLA BLA BLA BLA BLA BLA BLA BLA BLA 
BLA BLA BLA BLA BLA BLA BLA BLA BLA BLA BLA BLA BLA BLA BLA BLA BLA BLA BLA BLA 
BLA BLA BLA BLA BLA BLA BLA BLA BLA BLA BLA BLA BLA BLA BLA BLA BLA BLA BLA BLA 
BLA BLA BLA BLA BLA BLA BLA BLA BLA BLA BLA BLA BLA BLA BLA BLA BLA BLA BLA BLA 
BLA BLA BLA BLA BLA BLA BLA BLA BLA BLA BLA BLA BLA BLA BLA BLA BLA BLA BLA BLA 
BLA BLA BLA BLA BLA BLA BLA BLA BLA BLA BLA BLA BLA BLA BLA BLA BLA BLA BLA BLA 
BLA BLA BLA BLA BLA BLA BLA BLA BLA BLA BLA BLA BLA BLA BLA BLA BLA BLA BLA BLA 
BLA BLA BLA BLA BLA BLA BLA BLA BLA BLA BLA BLA BLA BLA BLA BLA BLA BLA BLA BLA 
BLA BLA BLA BLA BLA BLA BLA BLA BLA BLA BLA BLA BLA BLA BLA BLA BLA BLA BLA BLA 
BLA BLA BLA BLA BLA BLA BLA BLA BLA BLA BLA BLA BLA BLA BLA BLA BLA BLA BLA BLA 
BLA BLA BLA BLA BLA BLA BLA BLA BLA BLA BLA BLA BLA BLA BLA BLA BLA BLA BLA BLA 
BLA BLA BLA BLA BLA BLA BLA BLA BLA BLA BLA BLA BLA BLA BLA BLA BLA BLA BLA BLA 
BLA BLA BLA BLA BLA BLA BLA BLA BLA BLA BLA BLA BLA BLA BLA BLA BLA BLA BLA BLA 
BLA BLA BLA BLA BLA BLA BLA BLA BLA BLA BLA BLA BLA BLA BLA BLA BLA BLA BLA BLA 
BLA BLA BLA BLA BLA BLA BLA BLA BLA BLA BLA BLA BLA BLA BLA BLA BLA BLA BLA BLA 
BLA BLA BLA BLA BLA BLA BLA BLA BLA BLA BLA BLA BLA BLA BLA BLA BLA BLA BLA BLA 
BLA BLA BLA BLA BLA BLA BLA BLA BLA BLA BLA BLA BLA BLA BLA BLA BLA BLA BLA BLA 
BLA BLA BLA BLA BLA BLA BLA BLA BLA BLA BLA BLA BLA BLA BLA BLA BLA BLA BLA BLA 
BLA BLA BLA BLA BLA BLA BLA BLA BLA BLA BLA BLA BLA BLA BLA BLA BLA BLA BLA BLA 
BLA BLA BLA BLA BLA BLA BLA BLA BLA BLA BLA BLA BLA BLA BLA BLA BLA BLA BLA BLA 
BLA BLA BLA BLA BLA BLA BLA BLA BLA BLA BLA BLA BLA BLA BLA BLA BLA BLA BLA BLA 
BLA BLA BLA BLA BLA BLA BLA BLA BLA BLA BLA BLA BLA BLA BLA BLA BLA BLA BLA BLA 
BLA BLA BLA BLA BLA BLA BLA BLA BLA BLA BLA BLA BLA BLA BLA BLA BLA BLA BLA BLA 
BLA BLA BLA BLA BLA BLA BLA BLA BLA BLA BLA BLA BLA BLA BLA BLA BLA BLA BLA BLA 
BLA BLA BLA BLA BLA BLA BLA BLA BLA BLA BLA BLA BLA BLA BLA BLA BLA BLA BLA BLA 
BLA BLA BLA BLA BLA BLA BLA BLA BLA BLA BLA BLA BLA BLA BLA BLA BLA BLA BLA BLA 
BLA BLA BLA BLA BLA BLA BLA BLA BLA BLA BLA BLA BLA BLA BLA BLA BLA BLA BLA BLA 
BLA BLA BLA BLA BLA BLA BLA BLA BLA BLA BLA BLA BLA BLA BLA BLA BLA BLA BLA BLA 
BLA BLA BLA BLA BLA BLA BLA BLA BLA BLA BLA BLA BLA BLA BLA BLA BLA BLA BLA BLA 
BLA BLA BLA BLA BLA BLA BLA BLA BLA BLA BLA BLA BLA BLA BLA BLA BLA BLA BLA BLA 
BLA BLA BLA BLA BLA BLA BLA BLA BLA BLA BLA BLA BLA BLA BLA BLA BLA BLA BLA BLA 
BLA BLA BLA BLA BLA BLA BLA BLA BLA BLA BLA BLA BLA BLA BLA BLA BLA BLA BLA BLA 
BLA BLA BLA BLA BLA BLA BLA BLA BLA BLA BLA BLA BLA BLA BLA BLA BLA BLA BLA BLA 
BLA BLA BLA BLA BLA BLA BLA BLA BLA BLA BLA BLA BLA BLA BLA BLA BLA BLA BLA BLA 
BLA BLA BLA BLA BLA BLA BLA BLA BLA BLA BLA BLA BLA BLA BLA BLA BLA BLA BLA BLA 
BLA BLA BLA BLA BLA BLA BLA BLA BLA BLA BLA BLA BLA BLA BLA BLA BLA BLA BLA BLA 
BLA BLA BLA BLA BLA BLA BLA BLA BLA BLA BLA BLA BLA BLA BLA BLA BLA BLA BLA BLA 
BLA BLA BLA BLA BLA BLA BLA BLA BLA BLA BLA BLA BLA BLA BLA BLA BLA BLA BLA BLA 
BLA BLA BLA BLA BLA BLA BLA BLA BLA BLA BLA BLA BLA BLA BLA BLA BLA BLA BLA BLA 
BLA BLA BLA BLA BLA BLA BLA BLA BLA BLA BLA BLA BLA BLA BLA BLA BLA BLA BLA BLA 
BLA BLA BLA BLA BLA BLA BLA BLA BLA BLA BLA BLA BLA BLA BLA BLA BLA BLA BLA BLA 
BLA BLA BLA BLA BLA BLA BLA BLA BLA BLA BLA BLA BLA BLA BLA BLA BLA BLA BLA BLA 
BLA BLA BLA BLA BLA BLA BLA BLA BLA BLA BLA BLA BLA BLA BLA BLA BLA BLA BLA BLA 
BLA BLA BLA BLA BLA BLA BLA BLA BLA BLA BLA BLA BLA BLA BLA BLA BLA BLA BLA BLA 
BLA BLA BLA BLA BLA BLA BLA BLA BLA BLA BLA BLA BLA BLA BLA BLA BLA BLA BLA BLA 
BLA BLA BLA BLA BLA BLA BLA BLA BLA BLA BLA BLA BLA BLA BLA BLA BLA BLA BLA BLA 
BLA BLA BLA BLA BLA BLA BLA BLA BLA BLA BLA BLA BLA BLA BLA BLA BLA BLA BLA BLA 
BLA BLA BLA BLA BLA BLA BLA BLA BLA BLA BLA BLA BLA BLA BLA BLA BLA BLA BLA BLA 
BLA BLA BLA BLA BLA BLA BLA BLA BLA BLA BLA BLA BLA BLA BLA BLA BLA BLA BLA BLA 
BLA BLA BLA BLA BLA BLA BLA BLA BLA BLA BLA BLA BLA BLA BLA BLA BLA BLA BLA BLA 
BLA BLA BLA BLA BLA BLA BLA BLA BLA BLA BLA BLA BLA BLA BLA BLA BLA BLA BLA BLA 
BLA BLA BLA BLA BLA BLA BLA BLA BLA BLA BLA BLA BLA BLA BLA BLA BLA BLA BLA BLA 
BLA BLA BLA BLA BLA BLA BLA BLA BLA BLA BLA BLA BLA BLA BLA BLA BLA BLA BLA BLA 
BLA BLA BLA BLA BLA BLA BLA BLA BLA BLA BLA BLA BLA BLA BLA BLA BLA BLA BLA BLA 
BLA BLA BLA BLA BLA BLA BLA BLA BLA BLA BLA BLA BLA BLA BLA BLA BLA BLA BLA BLA 
BLA BLA BLA BLA BLA BLA BLA BLA BLA BLA BLA BLA BLA BLA BLA BLA BLA BLA BLA BLA 
BLA BLA BLA BLA BLA BLA BLA BLA BLA BLA BLA BLA BLA BLA BLA BLA BLA BLA BLA BLA 
BLA BLA BLA BLA BLA BLA BLA BLA BLA BLA BLA BLA BLA BLA BLA BLA BLA BLA BLA BLA 
BLA BLA BLA BLA BLA BLA BLA BLA BLA BLA BLA BLA BLA BLA BLA BLA BLA BLA BLA BLA 
BLA BLA BLA BLA BLA BLA BLA BLA BLA BLA BLA BLA BLA BLA BLA BLA BLA BLA BLA BLA 
BLA BLA BLA BLA BLA BLA BLA BLA BLA BLA BLA BLA BLA BLA BLA BLA BLA BLA BLA BLA 
BLA BLA BLA BLA BLA BLA BLA BLA BLA BLA BLA BLA BLA BLA BLA BLA BLA BLA BLA BLA 
BLA BLA BLA BLA BLA BLA BLA BLA BLA BLA BLA BLA BLA BLA BLA BLA BLA BLA BLA BLA 
BLA BLA BLA BLA BLA BLA BLA BLA BLA BLA BLA BLA BLA BLA BLA BLA BLA BLA BLA BLA 
BLA BLA BLA BLA BLA BLA BLA BLA BLA BLA BLA BLA BLA BLA BLA BLA BLA BLA BLA BLA 
BLA BLA BLA BLA BLA BLA BLA BLA BLA BLA BLA BLA BLA BLA BLA BLA BLA BLA BLA BLA 
BLA BLA BLA BLA BLA BLA BLA BLA BLA BLA BLA BLA BLA BLA BLA BLA BLA BLA BLA BLA 
BLA BLA BLA BLA BLA BLA BLA BLA BLA BLA BLA BLA BLA BLA BLA BLA BLA BLA BLA BLA 
BLA BLA BLA BLA BLA BLA BLA BLA BLA BLA BLA BLA BLA BLA BLA BLA BLA BLA BLA BLA 
BLA BLA BLA BLA BLA BLA BLA BLA BLA BLA BLA BLA BLA BLA BLA BLA BLA BLA BLA BLA 
BLA BLA BLA BLA BLA BLA BLA BLA BLA BLA BLA BLA BLA BLA BLA BLA BLA BLA BLA BLA 
BLA BLA BLA BLA BLA BLA BLA BLA BLA BLA BLA BLA BLA BLA BLA BLA BLA BLA BLA BLA 
BLA BLA BLA BLA BLA BLA BLA BLA BLA BLA BLA BLA BLA BLA BLA BLA BLA BLA BLA BLA 
BLA BLA BLA BLA BLA BLA BLA BLA BLA BLA BLA BLA BLA BLA BLA BLA BLA BLA BLA BLA 
BLA BLA BLA BLA BLA BLA BLA BLA BLA BLA BLA BLA BLA BLA BLA BLA BLA BLA BLA BLA 
BLA BLA BLA BLA BLA BLA BLA BLA BLA BLA BLA BLA BLA BLA BLA BLA BLA BLA BLA BLA 
BLA BLA BLA BLA BLA BLA BLA BLA BLA BLA BLA BLA BLA BLA BLA BLA BLA BLA BLA BLA 
BLA BLA BLA BLA BLA BLA BLA BLA BLA BLA BLA BLA BLA BLA BLA BLA BLA BLA BLA BLA 
BLA BLA BLA BLA BLA BLA BLA BLA BLA BLA BLA BLA BLA BLA BLA BLA BLA BLA BLA BLA 
BLA BLA BLA BLA BLA BLA BLA BLA BLA BLA BLA BLA BLA BLA BLA BLA BLA BLA BLA BLA 
BLA BLA BLA BLA BLA BLA BLA BLA BLA BLA BLA BLA BLA BLA BLA BLA BLA BLA BLA BLA 
BLA BLA BLA BLA BLA BLA BLA BLA BLA BLA BLA BLA BLA BLA BLA BLA BLA BLA BLA BLA 
BLA BLA BLA BLA BLA BLA BLA BLA BLA BLA BLA BLA BLA BLA BLA BLA BLA BLA BLA BLA 
BLA BLA BLA BLA BLA BLA BLA BLA BLA BLA BLA BLA BLA BLA BLA BLA BLA BLA BLA BLA 
BLA BLA BLA BLA BLA BLA BLA BLA BLA BLA BLA BLA BLA BLA BLA BLA BLA BLA BLA BLA 
BLA BLA BLA BLA BLA BLA BLA BLA BLA BLA BLA BLA BLA BLA BLA BLA BLA BLA BLA BLA 
BLA BLA BLA BLA BLA BLA BLA BLA BLA BLA BLA BLA BLA BLA BLA BLA BLA BLA BLA BLA 
BLA BLA BLA BLA BLA BLA BLA BLA BLA BLA BLA BLA BLA BLA BLA BLA BLA BLA BLA BLA 
BLA BLA BLA BLA BLA BLA BLA BLA BLA BLA BLA BLA BLA BLA BLA BLA BLA BLA BLA BLA 
BLA BLA BLA BLA BLA BLA BLA BLA BLA BLA BLA BLA BLA BLA BLA BLA BLA BLA BLA BLA 
BLA BLA BLA BLA BLA BLA BLA BLA BLA BLA BLA BLA BLA BLA BLA BLA BLA BLA BLA BLA 
BLA BLA BLA BLA BLA BLA BLA BLA BLA BLA BLA BLA BLA BLA BLA BLA BLA BLA BLA BLA 
BLA BLA BLA BLA BLA BLA BLA BLA BLA BLA BLA BLA BLA BLA BLA BLA BLA BLA BLA BLA 
BLA BLA BLA BLA BLA BLA BLA BLA BLA BLA BLA BLA BLA BLA BLA BLA BLA BLA BLA BLA 
BLA BLA BLA BLA BLA BLA BLA BLA BLA BLA BLA BLA BLA BLA BLA BLA BLA BLA BLA BLA 
BLA BLA BLA BLA BLA BLA BLA BLA BLA BLA BLA BLA BLA BLA BLA BLA BLA BLA BLA BLA 
BLA BLA BLA BLA BLA BLA BLA BLA BLA BLA BLA BLA BLA BLA BLA BLA BLA BLA BLA BLA 
BLA BLA BLA BLA BLA BLA BLA BLA BLA BLA BLA BLA BLA BLA BLA BLA BLA BLA BLA BLA 
BLA BLA BLA BLA BLA BLA BLA BLA BLA BLA BLA BLA BLA BLA BLA BLA BLA BLA BLA BLA 
BLA BLA BLA BLA BLA BLA BLA BLA BLA BLA BLA BLA BLA BLA BLA BLA BLA BLA BLA BLA 
BLA BLA BLA BLA BLA BLA BLA BLA BLA BLA BLA BLA BLA BLA BLA BLA BLA BLA BLA BLA 
BLA BLA BLA BLA BLA BLA BLA BLA BLA BLA BLA BLA BLA BLA BLA BLA BLA BLA BLA BLA 
BLA BLA BLA BLA BLA BLA BLA BLA BLA BLA BLA BLA BLA BLA BLA BLA BLA BLA BLA BLA 
BLA BLA BLA BLA BLA BLA BLA BLA BLA BLA BLA BLA BLA BLA BLA BLA BLA BLA BLA BLA 
BLA BLA BLA BLA BLA BLA BLA BLA BLA BLA BLA BLA BLA BLA BLA BLA BLA BLA BLA BLA 
BLA BLA BLA BLA BLA BLA BLA BLA BLA BLA BLA BLA BLA BLA BLA BLA BLA BLA BLA BLA 
BLA BLA BLA BLA BLA BLA BLA BLA BLA BLA BLA BLA BLA BLA BLA BLA BLA BLA BLA BLA 
BLA BLA BLA BLA BLA BLA BLA BLA BLA BLA BLA BLA BLA BLA BLA BLA BLA BLA BLA BLA 
BLA BLA BLA BLA BLA BLA BLA BLA BLA BLA BLA BLA BLA BLA BLA BLA BLA BLA BLA BLA 
BLA BLA BLA BLA BLA BLA BLA BLA BLA BLA BLA BLA BLA BLA BLA BLA BLA BLA BLA BLA 
BLA BLA BLA BLA BLA BLA BLA BLA BLA BLA BLA BLA BLA BLA BLA BLA BLA BLA BLA BLA 
BLA BLA BLA BLA BLA BLA BLA BLA BLA BLA BLA BLA BLA BLA BLA BLA BLA BLA BLA BLA 
BLA BLA BLA BLA BLA BLA BLA BLA BLA BLA BLA BLA BLA BLA BLA BLA BLA BLA BLA BLA 
BLA BLA BLA BLA BLA BLA BLA BLA BLA BLA BLA BLA BLA BLA BLA BLA BLA BLA BLA BLA 
BLA BLA BLA BLA BLA BLA BLA BLA BLA BLA BLA BLA BLA BLA BLA BLA BLA BLA BLA BLA 
BLA BLA BLA BLA BLA BLA BLA BLA BLA BLA BLA BLA BLA BLA BLA BLA BLA BLA BLA BLA 
BLA BLA BLA BLA BLA BLA BLA BLA BLA BLA BLA BLA BLA BLA BLA BLA BLA BLA BLA BLA 
BLA BLA BLA BLA BLA BLA BLA BLA BLA BLA BLA BLA BLA BLA BLA BLA BLA BLA BLA BLA 
BLA BLA BLA BLA BLA BLA BLA BLA BLA BLA BLA BLA BLA BLA BLA BLA BLA BLA BLA BLA 
BLA BLA BLA BLA BLA BLA BLA BLA BLA BLA BLA BLA BLA BLA BLA BLA BLA BLA BLA BLA 
BLA BLA BLA BLA BLA BLA BLA BLA BLA BLA BLA BLA BLA BLA BLA BLA BLA BLA BLA BLA 
BLA BLA BLA BLA BLA BLA BLA BLA BLA BLA BLA BLA BLA BLA BLA BLA BLA BLA BLA BLA 
BLA BLA BLA BLA BLA BLA BLA BLA BLA BLA BLA BLA BLA BLA BLA BLA BLA BLA BLA BLA 
BLA BLA BLA BLA BLA BLA BLA BLA BLA BLA BLA BLA BLA BLA BLA BLA BLA BLA BLA BLA 
BLA BLA BLA BLA BLA BLA BLA BLA BLA BLA BLA BLA BLA BLA BLA BLA BLA BLA BLA BLA 
BLA BLA BLA BLA BLA BLA BLA BLA BLA BLA BLA BLA BLA BLA BLA BLA BLA BLA BLA BLA 
BLA BLA BLA BLA BLA BLA BLA BLA BLA BLA BLA BLA BLA BLA BLA BLA BLA BLA BLA BLA 
BLA BLA BLA BLA BLA BLA BLA BLA BLA BLA BLA BLA BLA BLA BLA BLA BLA BLA BLA BLA 
BLA BLA BLA BLA BLA BLA BLA BLA BLA BLA BLA BLA BLA BLA BLA BLA BLA BLA BLA BLA 
BLA BLA BLA BLA BLA BLA BLA BLA BLA BLA BLA BLA BLA BLA BLA BLA BLA BLA BLA BLA 
BLA BLA BLA BLA BLA BLA BLA BLA BLA BLA BLA BLA BLA BLA BLA BLA BLA BLA BLA BLA 
BLA BLA BLA BLA BLA BLA BLA BLA BLA BLA BLA BLA BLA BLA BLA BLA BLA BLA BLA BLA 
BLA BLA BLA BLA BLA BLA BLA BLA BLA BLA BLA BLA BLA BLA BLA BLA BLA BLA BLA BLA 
BLA BLA BLA BLA BLA BLA BLA BLA BLA BLA BLA BLA BLA BLA BLA BLA BLA BLA BLA BLA 
BLA BLA BLA BLA BLA BLA BLA BLA BLA BLA BLA BLA BLA BLA BLA BLA BLA BLA BLA BLA 
BLA BLA BLA BLA BLA BLA BLA BLA BLA BLA BLA BLA BLA BLA BLA BLA BLA BLA BLA BLA 
BLA BLA BLA BLA BLA BLA BLA BLA BLA BLA BLA BLA BLA BLA BLA BLA BLA BLA BLA BLA 
BLA BLA BLA BLA BLA BLA BLA BLA BLA BLA BLA BLA BLA BLA BLA BLA BLA BLA BLA BLA 
BLA BLA BLA BLA BLA BLA BLA BLA BLA BLA BLA BLA BLA BLA BLA BLA BLA BLA BLA BLA 
BLA BLA BLA BLA BLA BLA BLA BLA BLA BLA BLA BLA BLA BLA BLA BLA BLA BLA BLA BLA 
BLA BLA BLA BLA BLA BLA BLA BLA BLA BLA BLA BLA BLA BLA BLA BLA BLA BLA BLA BLA 
BLA BLA BLA BLA BLA BLA BLA BLA BLA BLA BLA BLA BLA BLA BLA BLA BLA BLA BLA BLA 
BLA BLA BLA BLA BLA BLA BLA BLA BLA BLA BLA BLA BLA BLA BLA BLA BLA BLA BLA BLA 
BLA BLA BLA BLA BLA BLA BLA BLA BLA BLA BLA BLA BLA BLA BLA BLA BLA BLA BLA BLA 
BLA BLA BLA BLA BLA BLA BLA BLA BLA BLA BLA BLA BLA BLA BLA BLA BLA BLA BLA BLA 
BLA BLA BLA BLA BLA BLA BLA BLA BLA BLA BLA BLA BLA BLA BLA BLA BLA BLA BLA BLA 
BLA BLA BLA BLA BLA BLA BLA BLA BLA BLA BLA BLA BLA BLA BLA BLA BLA BLA BLA BLA 
BLA BLA BLA BLA BLA BLA BLA BLA BLA BLA BLA BLA BLA BLA BLA BLA BLA BLA BLA BLA 
BLA BLA BLA BLA BLA BLA BLA BLA BLA BLA BLA BLA BLA BLA BLA BLA BLA BLA BLA BLA 
BLA BLA BLA BLA BLA BLA BLA BLA BLA BLA BLA BLA BLA BLA BLA BLA BLA BLA BLA BLA 
BLA BLA BLA BLA BLA BLA BLA BLA BLA BLA BLA BLA BLA BLA BLA BLA BLA BLA BLA BLA 
BLA BLA BLA BLA BLA BLA BLA BLA BLA BLA BLA BLA BLA BLA BLA BLA BLA BLA BLA BLA 
BLA BLA BLA BLA BLA BLA BLA BLA BLA BLA BLA BLA BLA BLA BLA BLA BLA BLA BLA BLA 
BLA BLA BLA BLA BLA BLA BLA BLA BLA BLA BLA BLA BLA BLA BLA BLA BLA BLA BLA BLA 
BLA BLA BLA BLA BLA BLA BLA BLA BLA BLA BLA BLA BLA BLA BLA BLA BLA BLA BLA BLA 
BLA BLA BLA BLA BLA BLA BLA BLA BLA BLA BLA BLA BLA BLA BLA BLA BLA BLA BLA BLA 
BLA BLA BLA BLA BLA BLA BLA BLA BLA BLA BLA BLA BLA BLA BLA BLA BLA BLA BLA BLA 
BLA BLA BLA BLA BLA BLA BLA BLA BLA BLA BLA BLA BLA BLA BLA BLA BLA BLA BLA BLA 
BLA BLA BLA BLA BLA BLA BLA BLA BLA BLA BLA BLA BLA BLA BLA BLA BLA BLA BLA BLA 
BLA BLA BLA BLA BLA BLA BLA BLA BLA BLA BLA BLA BLA BLA BLA BLA BLA BLA BLA BLA 
BLA BLA BLA BLA BLA BLA BLA BLA BLA BLA BLA BLA BLA BLA BLA BLA BLA BLA BLA BLA 
BLA BLA BLA BLA BLA BLA BLA BLA BLA BLA BLA BLA BLA BLA BLA BLA BLA BLA BLA BLA 
BLA BLA BLA BLA BLA BLA BLA BLA BLA BLA BLA BLA BLA BLA BLA BLA BLA BLA BLA BLA 
BLA BLA BLA BLA BLA BLA BLA BLA BLA BLA BLA BLA BLA BLA BLA BLA BLA BLA BLA BLA 
BLA BLA BLA BLA BLA BLA BLA BLA BLA BLA BLA BLA BLA BLA BLA BLA BLA BLA BLA BLA 
BLA BLA BLA BLA BLA BLA BLA BLA BLA BLA BLA BLA BLA BLA BLA BLA BLA BLA BLA BLA 
BLA BLA BLA BLA BLA BLA BLA BLA BLA BLA BLA BLA BLA BLA BLA BLA BLA BLA BLA BLA 
BLA BLA BLA BLA BLA BLA BLA BLA BLA BLA BLA BLA BLA BLA BLA BLA BLA BLA BLA BLA 
BLA BLA BLA BLA BLA BLA BLA BLA BLA BLA BLA BLA BLA BLA BLA BLA BLA BLA BLA BLA 
BLA BLA BLA BLA BLA BLA BLA BLA BLA BLA BLA BLA BLA BLA BLA BLA BLA BLA BLA BLA 
BLA BLA BLA BLA BLA BLA BLA BLA BLA BLA BLA BLA BLA BLA BLA BLA BLA BLA BLA BLA 
BLA BLA BLA BLA BLA BLA BLA BLA BLA BLA BLA BLA BLA BLA BLA BLA BLA BLA BLA BLA 
BLA BLA BLA BLA BLA BLA BLA BLA BLA BLA BLA BLA BLA BLA BLA BLA BLA BLA BLA BLA 
BLA BLA BLA BLA BLA BLA BLA BLA BLA BLA BLA BLA BLA BLA BLA BLA BLA BLA BLA BLA 
BLA BLA BLA BLA BLA BLA BLA BLA BLA BLA BLA BLA BLA BLA BLA BLA BLA BLA BLA BLA 
BLA BLA BLA BLA BLA BLA BLA BLA BLA BLA BLA BLA BLA BLA BLA BLA BLA BLA BLA BLA 
BLA BLA BLA BLA BLA BLA BLA BLA BLA BLA BLA BLA BLA BLA BLA BLA BLA BLA BLA BLA 
BLA BLA BLA BLA BLA BLA BLA BLA BLA BLA BLA BLA BLA BLA BLA BLA BLA BLA BLA BLA 
BLA BLA BLA BLA BLA BLA BLA BLA BLA BLA BLA BLA BLA BLA BLA BLA BLA BLA BLA BLA 
BLA BLA BLA BLA BLA BLA BLA BLA BLA BLA BLA BLA BLA BLA BLA BLA BLA BLA BLA BLA 
BLA BLA BLA BLA BLA BLA BLA BLA BLA BLA BLA BLA BLA BLA BLA BLA BLA BLA BLA BLA 
BLA BLA BLA BLA BLA BLA BLA BLA BLA BLA BLA BLA BLA BLA BLA BLA BLA BLA BLA BLA 
BLA BLA BLA BLA BLA BLA BLA BLA BLA BLA BLA BLA BLA BLA BLA BLA BLA BLA BLA BLA 
BLA BLA BLA BLA BLA BLA BLA BLA BLA BLA BLA BLA BLA BLA BLA BLA BLA BLA BLA BLA 
BLA BLA BLA BLA BLA BLA BLA BLA BLA BLA BLA BLA BLA BLA BLA BLA BLA BLA BLA BLA 
BLA BLA BLA BLA BLA BLA BLA BLA BLA BLA BLA BLA BLA BLA BLA BLA BLA BLA BLA BLA 
BLA BLA BLA BLA BLA BLA BLA BLA BLA BLA BLA BLA BLA BLA BLA BLA BLA BLA BLA BLA 
BLA BLA BLA BLA BLA BLA BLA BLA BLA BLA BLA BLA BLA BLA BLA BLA BLA BLA BLA BLA 
BLA BLA BLA BLA BLA BLA BLA BLA BLA BLA BLA BLA BLA BLA BLA BLA BLA BLA BLA BLA 
BLA BLA BLA BLA BLA BLA BLA BLA BLA BLA BLA BLA BLA BLA BLA BLA BLA BLA BLA BLA 
BLA BLA BLA BLA BLA BLA BLA BLA BLA BLA BLA BLA BLA BLA BLA BLA BLA BLA BLA BLA 
BLA BLA BLA BLA BLA BLA BLA BLA BLA BLA BLA BLA BLA BLA BLA BLA BLA BLA BLA BLA 
BLA BLA BLA BLA BLA BLA BLA BLA BLA BLA BLA BLA BLA BLA BLA BLA BLA BLA BLA BLA 
BLA BLA BLA BLA BLA BLA BLA BLA BLA BLA BLA BLA BLA BLA BLA BLA BLA BLA BLA BLA 
BLA BLA BLA BLA BLA BLA BLA BLA BLA BLA BLA BLA BLA BLA BLA BLA BLA BLA BLA BLA 
BLA BLA BLA BLA BLA BLA BLA BLA BLA BLA BLA BLA BLA BLA BLA BLA BLA BLA BLA BLA 
BLA BLA BLA BLA BLA BLA BLA BLA BLA BLA BLA BLA BLA BLA BLA BLA BLA BLA BLA BLA 
BLA BLA BLA BLA BLA BLA BLA BLA BLA BLA BLA BLA BLA BLA BLA BLA BLA BLA BLA BLA 
BLA BLA BLA BLA BLA BLA BLA BLA BLA BLA BLA BLA BLA BLA BLA BLA BLA BLA BLA BLA 
BLA BLA BLA BLA BLA BLA BLA BLA BLA BLA BLA BLA BLA BLA BLA BLA BLA BLA BLA BLA 
BLA BLA BLA BLA BLA BLA BLA BLA BLA BLA BLA BLA BLA BLA BLA BLA BLA BLA BLA BLA 
BLA BLA BLA BLA BLA BLA BLA BLA BLA BLA BLA BLA BLA BLA BLA BLA BLA BLA BLA BLA 
BLA BLA BLA BLA BLA BLA BLA BLA BLA BLA BLA BLA BLA BLA BLA BLA BLA BLA BLA BLA 
BLA BLA BLA BLA BLA BLA BLA BLA BLA BLA BLA BLA BLA BLA BLA BLA BLA BLA BLA BLA 
BLA BLA BLA BLA BLA BLA BLA BLA BLA BLA BLA BLA BLA BLA BLA BLA BLA BLA BLA BLA 
BLA BLA BLA BLA BLA BLA BLA BLA BLA BLA BLA BLA BLA BLA BLA BLA BLA BLA BLA BLA 
BLA BLA BLA BLA BLA BLA BLA BLA BLA BLA BLA BLA BLA BLA BLA BLA BLA BLA BLA BLA 
BLA BLA BLA BLA BLA BLA BLA BLA BLA BLA BLA BLA BLA BLA BLA BLA BLA BLA BLA BLA 
BLA BLA BLA BLA BLA BLA BLA BLA BLA BLA BLA BLA BLA BLA BLA BLA BLA BLA BLA BLA 
BLA BLA BLA BLA BLA BLA BLA BLA BLA BLA BLA BLA BLA BLA BLA BLA BLA BLA BLA BLA 
BLA BLA BLA BLA BLA BLA BLA BLA BLA BLA BLA BLA BLA BLA BLA BLA BLA BLA BLA BLA 
BLA BLA BLA BLA BLA BLA BLA BLA BLA BLA BLA BLA BLA BLA BLA BLA BLA BLA BLA BLA 
BLA BLA BLA BLA BLA BLA BLA BLA BLA BLA BLA BLA BLA BLA BLA BLA BLA BLA BLA BLA 
BLA BLA BLA BLA BLA BLA BLA BLA BLA BLA BLA BLA BLA BLA BLA BLA BLA BLA BLA BLA 
BLA BLA BLA BLA BLA BLA BLA BLA BLA BLA BLA BLA BLA BLA BLA BLA BLA BLA BLA BLA 
BLA BLA BLA BLA BLA BLA BLA BLA BLA BLA BLA BLA BLA BLA BLA BLA BLA BLA BLA BLA 
BLA BLA BLA BLA BLA BLA BLA BLA BLA BLA BLA BLA BLA BLA BLA BLA BLA BLA BLA BLA 
BLA BLA BLA BLA BLA BLA BLA BLA BLA BLA BLA BLA BLA BLA BLA BLA BLA BLA BLA BLA 
BLA BLA BLA BLA BLA BLA BLA BLA BLA BLA BLA BLA BLA BLA BLA BLA BLA BLA BLA BLA 
BLA BLA BLA BLA BLA BLA BLA BLA BLA BLA BLA BLA BLA BLA BLA BLA BLA BLA BLA BLA 
BLA BLA BLA BLA BLA BLA BLA BLA BLA BLA BLA BLA BLA BLA BLA BLA BLA BLA BLA BLA 
BLA BLA BLA BLA BLA BLA BLA BLA BLA BLA BLA BLA BLA BLA BLA BLA BLA BLA BLA BLA 
BLA BLA BLA BLA BLA BLA BLA BLA BLA BLA BLA BLA BLA BLA BLA BLA BLA BLA BLA BLA 
BLA BLA BLA BLA BLA BLA BLA BLA BLA BLA BLA BLA BLA BLA BLA BLA BLA BLA BLA BLA 
BLA BLA BLA BLA BLA BLA BLA BLA BLA BLA BLA BLA BLA BLA BLA BLA BLA BLA BLA BLA 
BLA BLA BLA BLA BLA BLA BLA BLA BLA BLA BLA BLA BLA BLA BLA BLA BLA BLA BLA BLA 
BLA BLA BLA BLA BLA BLA BLA BLA BLA BLA BLA BLA BLA BLA BLA BLA BLA BLA BLA BLA 
BLA BLA BLA BLA BLA BLA BLA BLA BLA BLA BLA BLA BLA BLA BLA BLA BLA BLA BLA BLA 
BLA BLA BLA BLA BLA BLA BLA BLA BLA BLA BLA BLA BLA BLA BLA BLA BLA BLA BLA BLA 
BLA BLA BLA BLA BLA BLA BLA BLA BLA BLA BLA BLA BLA BLA BLA BLA BLA BLA BLA BLA 
BLA BLA BLA BLA BLA BLA BLA BLA BLA BLA BLA BLA BLA BLA BLA BLA BLA BLA BLA BLA 
BLA BLA BLA BLA BLA BLA BLA BLA BLA BLA BLA BLA BLA BLA BLA BLA BLA BLA BLA BLA 
BLA BLA BLA BLA BLA BLA BLA BLA BLA BLA BLA BLA BLA BLA BLA BLA BLA BLA BLA BLA 
BLA BLA BLA BLA BLA BLA BLA BLA BLA BLA BLA BLA BLA BLA BLA BLA BLA BLA BLA BLA 
BLA BLA BLA BLA BLA BLA BLA BLA BLA BLA BLA BLA BLA BLA BLA BLA BLA BLA BLA BLA 
BLA BLA BLA BLA BLA BLA BLA BLA BLA BLA BLA BLA BLA BLA BLA BLA BLA BLA BLA BLA 
BLA BLA BLA BLA BLA BLA BLA BLA BLA BLA BLA BLA BLA BLA BLA BLA BLA BLA BLA BLA 
BLA BLA BLA BLA BLA BLA BLA BLA BLA BLA BLA BLA BLA BLA BLA BLA BLA BLA BLA BLA 
BLA BLA BLA BLA BLA BLA BLA BLA BLA BLA BLA BLA BLA BLA BLA BLA BLA BLA BLA BLA 
BLA BLA BLA BLA BLA BLA BLA BLA BLA BLA BLA BLA BLA BLA BLA BLA BLA BLA BLA BLA 
BLA BLA BLA BLA BLA BLA BLA BLA BLA BLA BLA BLA BLA BLA BLA BLA BLA BLA BLA BLA 
BLA BLA BLA BLA BLA BLA BLA BLA BLA BLA BLA BLA BLA BLA BLA BLA BLA BLA BLA BLA 
BLA BLA BLA BLA BLA BLA BLA BLA BLA BLA BLA BLA BLA BLA BLA BLA BLA BLA BLA BLA 
BLA BLA BLA BLA BLA BLA BLA BLA BLA BLA BLA BLA BLA BLA BLA BLA BLA BLA BLA BLA 
BLA BLA BLA BLA BLA BLA BLA BLA BLA BLA BLA BLA BLA BLA BLA BLA BLA BLA BLA BLA 
BLA BLA BLA BLA BLA BLA BLA BLA BLA BLA BLA BLA BLA BLA BLA BLA BLA BLA BLA BLA 
BLA BLA BLA BLA BLA BLA BLA BLA BLA BLA BLA BLA BLA BLA BLA BLA BLA BLA BLA BLA 
BLA BLA BLA BLA BLA BLA BLA BLA BLA BLA BLA BLA BLA BLA BLA BLA BLA BLA BLA BLA 
BLA BLA BLA BLA BLA BLA BLA BLA BLA BLA BLA BLA BLA BLA BLA BLA BLA BLA BLA BLA 
BLA BLA BLA BLA BLA BLA BLA BLA BLA BLA BLA BLA BLA BLA BLA BLA BLA BLA BLA BLA 
BLA BLA BLA BLA BLA BLA BLA BLA BLA BLA BLA BLA BLA BLA BLA BLA BLA BLA BLA BLA 
BLA BLA BLA BLA BLA BLA BLA BLA BLA BLA BLA BLA BLA BLA BLA BLA BLA BLA BLA BLA 
BLA BLA BLA BLA BLA BLA BLA BLA BLA BLA BLA BLA BLA BLA BLA BLA BLA BLA BLA BLA 
BLA BLA BLA BLA BLA BLA BLA BLA BLA BLA BLA BLA BLA BLA BLA BLA BLA BLA BLA BLA 
BLA BLA BLA BLA BLA BLA BLA BLA BLA BLA BLA BLA BLA BLA BLA BLA BLA BLA BLA BLA 
BLA BLA BLA BLA BLA BLA BLA BLA BLA BLA BLA BLA BLA BLA BLA BLA BLA BLA BLA BLA 
BLA BLA BLA BLA BLA BLA BLA BLA BLA BLA BLA BLA BLA BLA BLA BLA BLA BLA BLA BLA 
BLA BLA BLA BLA BLA BLA BLA BLA BLA BLA BLA BLA BLA BLA BLA BLA BLA BLA BLA BLA 
BLA BLA BLA BLA BLA BLA BLA BLA BLA BLA BLA BLA BLA BLA BLA BLA BLA BLA BLA BLA 
BLA BLA BLA BLA BLA BLA BLA BLA BLA BLA BLA BLA BLA BLA BLA BLA BLA BLA BLA BLA 
BLA BLA BLA BLA BLA BLA BLA BLA BLA BLA BLA BLA BLA BLA BLA BLA BLA BLA BLA BLA 
BLA BLA BLA BLA BLA BLA BLA BLA BLA BLA BLA BLA BLA BLA BLA BLA BLA BLA BLA BLA 
BLA BLA BLA BLA BLA BLA BLA BLA BLA BLA BLA BLA BLA BLA BLA BLA BLA BLA BLA BLA 
BLA BLA BLA BLA BLA BLA BLA BLA BLA BLA BLA BLA BLA BLA BLA BLA BLA BLA BLA BLA 
BLA BLA BLA BLA BLA BLA BLA BLA BLA BLA BLA BLA BLA BLA BLA BLA BLA BLA BLA BLA 
BLA BLA BLA BLA BLA BLA BLA BLA BLA BLA BLA BLA BLA BLA BLA BLA BLA BLA BLA BLA 
BLA BLA BLA BLA BLA BLA BLA BLA BLA BLA BLA BLA BLA BLA BLA BLA BLA BLA BLA BLA 
BLA BLA BLA BLA BLA BLA BLA BLA BLA BLA BLA BLA BLA BLA BLA BLA BLA BLA BLA BLA 
BLA BLA BLA BLA BLA BLA BLA BLA BLA BLA BLA BLA BLA BLA BLA BLA BLA BLA BLA BLA 
BLA BLA BLA BLA BLA BLA BLA BLA BLA BLA BLA BLA BLA BLA BLA BLA BLA BLA BLA BLA 
BLA BLA BLA BLA BLA BLA BLA BLA BLA BLA BLA BLA BLA BLA BLA BLA BLA BLA BLA BLA 
BLA BLA BLA BLA BLA BLA BLA BLA BLA BLA BLA BLA BLA BLA BLA BLA BLA BLA BLA BLA 
BLA BLA BLA BLA BLA BLA BLA BLA BLA BLA BLA BLA BLA BLA BLA BLA BLA BLA BLA BLA 
BLA BLA BLA BLA BLA BLA BLA BLA BLA BLA BLA BLA BLA BLA BLA BLA BLA BLA BLA BLA 
BLA BLA BLA BLA BLA BLA BLA BLA BLA BLA BLA BLA BLA BLA BLA BLA BLA BLA BLA BLA 
BLA BLA BLA BLA BLA BLA BLA BLA BLA BLA BLA BLA BLA BLA BLA BLA BLA BLA BLA BLA 
BLA BLA BLA BLA BLA BLA BLA BLA BLA BLA BLA BLA BLA BLA BLA BLA BLA BLA BLA BLA 
BLA BLA BLA BLA BLA BLA BLA BLA BLA BLA BLA BLA BLA BLA BLA BLA BLA BLA BLA BLA 
BLA BLA BLA BLA BLA BLA BLA BLA BLA BLA BLA BLA BLA BLA BLA BLA BLA BLA BLA BLA 
BLA BLA BLA BLA BLA BLA BLA BLA BLA BLA BLA BLA BLA BLA BLA BLA BLA BLA BLA BLA 
BLA BLA BLA BLA BLA BLA BLA BLA BLA BLA BLA BLA BLA BLA BLA BLA BLA BLA BLA BLA 
BLA BLA BLA BLA BLA BLA BLA BLA BLA BLA BLA BLA BLA BLA BLA BLA BLA BLA BLA BLA 
BLA BLA BLA BLA BLA BLA BLA BLA BLA BLA BLA BLA BLA BLA BLA BLA BLA BLA BLA BLA 
BLA BLA BLA BLA BLA BLA BLA BLA BLA BLA BLA BLA BLA BLA BLA BLA BLA BLA BLA BLA 
BLA BLA BLA BLA BLA BLA BLA BLA BLA BLA BLA BLA BLA BLA BLA BLA BLA BLA BLA BLA 
BLA BLA BLA BLA BLA BLA BLA BLA BLA BLA BLA BLA BLA BLA BLA BLA BLA BLA BLA BLA 
BLA BLA BLA BLA BLA BLA BLA BLA BLA BLA BLA BLA BLA BLA BLA BLA BLA BLA BLA BLA 
BLA BLA BLA BLA BLA BLA BLA BLA BLA BLA BLA BLA BLA BLA BLA BLA BLA BLA BLA BLA 
BLA BLA BLA BLA BLA BLA BLA BLA BLA BLA BLA BLA BLA BLA BLA BLA BLA BLA BLA BLA 
BLA BLA BLA BLA BLA BLA BLA BLA BLA BLA BLA BLA BLA BLA BLA BLA BLA BLA BLA BLA 
BLA BLA BLA BLA BLA BLA BLA BLA BLA BLA BLA BLA BLA BLA BLA BLA BLA BLA BLA BLA 
BLA BLA BLA BLA BLA BLA BLA BLA BLA BLA BLA BLA BLA BLA BLA BLA BLA BLA BLA BLA 
BLA BLA BLA BLA BLA BLA BLA BLA BLA BLA BLA BLA BLA BLA BLA BLA BLA BLA BLA BLA 
BLA BLA BLA BLA BLA BLA BLA BLA BLA BLA BLA BLA BLA BLA BLA BLA BLA BLA BLA BLA 
BLA BLA BLA BLA BLA BLA BLA BLA BLA BLA BLA BLA BLA BLA BLA BLA BLA BLA BLA BLA 
BLA BLA BLA BLA BLA BLA BLA BLA BLA BLA BLA BLA BLA BLA BLA BLA BLA BLA BLA BLA 
BLA BLA BLA BLA BLA BLA BLA BLA BLA BLA BLA BLA BLA BLA BLA BLA BLA BLA BLA BLA 
BLA BLA BLA BLA BLA BLA BLA BLA BLA BLA BLA BLA BLA BLA BLA BLA BLA BLA BLA BLA 
BLA BLA BLA BLA BLA BLA BLA BLA BLA BLA BLA BLA BLA BLA BLA BLA BLA BLA BLA BLA 
BLA BLA BLA BLA BLA BLA BLA BLA BLA BLA BLA BLA BLA BLA BLA BLA BLA BLA BLA BLA 
BLA BLA BLA BLA BLA BLA BLA BLA BLA BLA BLA BLA BLA BLA BLA BLA BLA BLA BLA BLA 
BLA BLA BLA BLA BLA BLA BLA BLA BLA BLA BLA BLA BLA BLA BLA BLA BLA BLA BLA BLA 
BLA BLA BLA BLA BLA BLA BLA BLA BLA BLA BLA BLA BLA BLA BLA BLA BLA BLA BLA BLA 
BLA BLA BLA BLA BLA BLA BLA BLA BLA BLA BLA BLA BLA BLA BLA BLA BLA BLA BLA BLA 
BLA BLA BLA BLA BLA BLA BLA BLA BLA BLA BLA BLA BLA BLA BLA BLA BLA BLA BLA BLA 
BLA BLA BLA BLA BLA BLA BLA BLA BLA BLA BLA BLA BLA BLA BLA BLA BLA BLA BLA BLA 
BLA BLA BLA BLA BLA BLA BLA BLA BLA BLA BLA BLA BLA BLA BLA BLA BLA BLA BLA BLA 
BLA BLA BLA BLA BLA BLA BLA BLA BLA BLA BLA BLA BLA BLA BLA BLA BLA BLA BLA BLA 
BLA BLA BLA BLA BLA BLA BLA BLA BLA BLA BLA BLA BLA BLA BLA BLA BLA BLA BLA BLA 
BLA BLA BLA BLA BLA BLA BLA BLA BLA BLA BLA BLA BLA BLA BLA BLA BLA BLA BLA BLA 
BLA BLA BLA BLA BLA BLA BLA BLA BLA BLA BLA BLA BLA BLA BLA BLA BLA BLA BLA BLA 
BLA BLA BLA BLA BLA BLA BLA BLA BLA BLA BLA BLA BLA BLA BLA BLA BLA BLA BLA BLA 
BLA BLA BLA BLA BLA BLA BLA BLA BLA BLA BLA BLA BLA BLA BLA BLA BLA BLA BLA BLA 
BLA BLA BLA BLA BLA BLA BLA BLA BLA BLA BLA BLA BLA BLA BLA BLA BLA BLA BLA BLA 
BLA BLA BLA BLA BLA BLA BLA BLA BLA BLA BLA BLA BLA BLA BLA BLA BLA BLA BLA BLA 
BLA BLA BLA BLA BLA BLA BLA BLA BLA BLA BLA BLA BLA BLA BLA BLA BLA BLA BLA BLA 
BLA BLA BLA BLA BLA BLA BLA BLA BLA BLA BLA BLA BLA BLA BLA BLA BLA BLA BLA BLA 
BLA BLA BLA BLA BLA BLA BLA BLA BLA BLA BLA BLA BLA BLA BLA BLA BLA BLA BLA BLA 
BLA BLA BLA BLA BLA BLA BLA BLA BLA BLA BLA BLA BLA BLA BLA BLA BLA BLA BLA BLA 
BLA BLA BLA BLA BLA BLA BLA BLA BLA BLA BLA BLA BLA BLA BLA BLA BLA BLA BLA BLA 
BLA BLA BLA BLA BLA BLA BLA BLA BLA BLA BLA BLA BLA BLA BLA BLA BLA BLA BLA BLA 
BLA BLA BLA BLA BLA BLA BLA BLA BLA BLA BLA BLA BLA BLA BLA BLA BLA BLA BLA BLA 
BLA BLA BLA BLA BLA BLA BLA BLA BLA BLA BLA BLA BLA BLA BLA BLA BLA BLA BLA BLA 
BLA BLA BLA BLA BLA BLA BLA BLA BLA BLA BLA BLA BLA BLA BLA BLA BLA BLA BLA BLA 
BLA BLA BLA BLA BLA BLA BLA BLA BLA BLA BLA BLA BLA BLA BLA BLA BLA BLA BLA BLA 
BLA BLA BLA BLA BLA BLA BLA BLA BLA BLA BLA BLA BLA BLA BLA BLA BLA BLA BLA BLA 
BLA BLA BLA BLA BLA BLA BLA BLA BLA BLA BLA BLA BLA BLA BLA BLA BLA BLA BLA BLA 
BLA BLA BLA BLA BLA BLA BLA BLA BLA BLA BLA BLA BLA BLA BLA BLA BLA BLA BLA BLA 
BLA BLA BLA BLA BLA BLA BLA BLA BLA BLA BLA BLA BLA BLA BLA BLA BLA BLA BLA BLA 
BLA BLA BLA BLA BLA BLA BLA BLA BLA BLA BLA BLA BLA BLA BLA BLA BLA BLA BLA BLA 
BLA BLA BLA BLA BLA BLA BLA BLA BLA BLA BLA BLA BLA BLA BLA BLA BLA BLA BLA BLA 
BLA BLA BLA BLA BLA BLA BLA BLA BLA BLA BLA BLA BLA BLA BLA BLA BLA BLA BLA BLA 
BLA BLA BLA BLA BLA BLA BLA BLA BLA BLA BLA BLA BLA BLA BLA BLA BLA BLA BLA BLA 
BLA BLA BLA BLA BLA BLA BLA BLA BLA BLA BLA BLA BLA BLA BLA BLA BLA BLA BLA BLA 
BLA BLA BLA BLA BLA BLA BLA BLA BLA BLA BLA BLA BLA BLA BLA BLA BLA BLA BLA BLA 
BLA BLA BLA BLA BLA BLA BLA BLA BLA BLA BLA BLA BLA BLA BLA BLA BLA BLA BLA BLA 
BLA BLA BLA BLA BLA BLA BLA BLA BLA BLA BLA BLA BLA BLA BLA BLA BLA BLA BLA BLA 
BLA BLA BLA BLA BLA BLA BLA BLA BLA BLA BLA BLA BLA BLA BLA BLA BLA BLA BLA BLA 
BLA BLA BLA BLA BLA BLA BLA BLA BLA BLA BLA BLA BLA BLA BLA BLA BLA BLA BLA BLA 
BLA BLA BLA BLA BLA BLA BLA BLA BLA BLA BLA BLA BLA BLA BLA BLA BLA BLA BLA BLA 
BLA BLA BLA BLA BLA BLA BLA BLA BLA BLA BLA BLA BLA BLA BLA BLA BLA BLA BLA BLA 
BLA BLA BLA BLA BLA BLA BLA BLA BLA BLA BLA BLA BLA BLA BLA BLA BLA BLA BLA BLA 
BLA BLA BLA BLA BLA BLA BLA BLA BLA BLA BLA BLA BLA BLA BLA BLA BLA BLA BLA BLA 
BLA BLA BLA BLA BLA BLA BLA BLA BLA BLA BLA BLA BLA BLA BLA BLA BLA BLA BLA BLA 
BLA BLA BLA BLA BLA BLA BLA BLA BLA BLA BLA BLA BLA BLA BLA BLA BLA BLA BLA BLA 
BLA BLA BLA BLA BLA BLA BLA BLA BLA BLA BLA BLA BLA BLA BLA BLA BLA BLA BLA BLA 
BLA BLA BLA BLA BLA BLA BLA BLA BLA BLA BLA BLA BLA BLA BLA BLA BLA BLA BLA BLA 
BLA BLA BLA BLA BLA BLA BLA BLA BLA BLA BLA BLA BLA BLA BLA BLA BLA BLA BLA BLA 
BLA BLA BLA BLA BLA BLA BLA BLA BLA BLA BLA BLA BLA BLA BLA BLA BLA BLA BLA BLA 
BLA BLA BLA BLA BLA BLA BLA BLA BLA BLA BLA BLA BLA BLA BLA BLA BLA BLA BLA BLA 
BLA BLA BLA BLA BLA BLA BLA BLA BLA BLA BLA BLA BLA BLA BLA BLA BLA BLA BLA BLA 
BLA BLA BLA BLA BLA BLA BLA BLA BLA BLA BLA BLA BLA BLA BLA BLA BLA BLA BLA BLA 
BLA BLA BLA BLA BLA BLA BLA BLA BLA BLA BLA BLA BLA BLA BLA BLA BLA BLA BLA BLA 
BLA BLA BLA BLA BLA BLA BLA BLA BLA BLA BLA BLA BLA BLA BLA BLA BLA BLA BLA BLA 
BLA BLA BLA BLA BLA BLA BLA BLA BLA BLA BLA BLA BLA BLA BLA BLA BLA BLA BLA BLA 
BLA BLA BLA BLA BLA BLA BLA BLA BLA BLA BLA BLA BLA BLA BLA BLA BLA BLA BLA BLA 
BLA BLA BLA BLA BLA BLA BLA BLA BLA BLA BLA BLA BLA BLA BLA BLA BLA BLA BLA BLA 
BLA BLA BLA BLA BLA BLA BLA BLA BLA BLA BLA BLA BLA BLA BLA BLA BLA BLA BLA BLA 
BLA BLA BLA BLA BLA BLA BLA BLA BLA BLA BLA BLA BLA BLA BLA BLA BLA BLA BLA BLA 
BLA BLA BLA BLA BLA BLA BLA BLA BLA BLA BLA BLA BLA BLA BLA BLA BLA BLA BLA BLA 
BLA BLA BLA BLA BLA BLA BLA BLA BLA BLA BLA BLA BLA BLA BLA BLA BLA BLA BLA BLA 
BLA BLA BLA BLA BLA BLA BLA BLA BLA BLA BLA BLA BLA BLA BLA BLA BLA BLA BLA BLA 
BLA BLA BLA BLA BLA BLA BLA BLA BLA BLA BLA BLA BLA BLA BLA BLA BLA BLA BLA BLA 
BLA BLA BLA BLA BLA BLA BLA BLA BLA BLA BLA BLA BLA BLA BLA BLA BLA BLA BLA BLA 
BLA BLA BLA BLA BLA BLA BLA BLA BLA BLA BLA BLA BLA BLA BLA BLA BLA BLA BLA BLA 
BLA BLA BLA BLA BLA BLA BLA BLA BLA BLA BLA BLA BLA BLA BLA BLA BLA BLA BLA BLA 
BLA BLA BLA BLA BLA BLA BLA BLA BLA BLA BLA BLA BLA BLA BLA BLA BLA BLA BLA BLA 
BLA BLA BLA BLA BLA BLA BLA BLA BLA BLA BLA BLA BLA BLA BLA BLA BLA BLA BLA BLA 
BLA BLA BLA BLA BLA BLA BLA BLA BLA BLA BLA BLA BLA BLA BLA BLA BLA BLA BLA BLA 
BLA BLA BLA BLA BLA BLA BLA BLA BLA BLA BLA BLA BLA BLA BLA BLA BLA BLA BLA BLA 
BLA BLA BLA BLA BLA BLA BLA BLA BLA BLA BLA BLA BLA BLA BLA BLA BLA BLA BLA BLA 
BLA BLA BLA BLA BLA BLA BLA BLA BLA BLA BLA BLA BLA BLA BLA BLA BLA BLA BLA BLA 
BLA BLA BLA BLA BLA BLA BLA BLA BLA BLA BLA BLA BLA BLA BLA BLA BLA BLA BLA BLA 
BLA BLA BLA BLA BLA BLA BLA BLA BLA BLA BLA BLA BLA BLA BLA BLA BLA BLA BLA BLA 
BLA BLA BLA BLA BLA BLA BLA BLA BLA BLA BLA BLA BLA BLA BLA BLA BLA BLA BLA BLA 
BLA BLA BLA BLA BLA BLA BLA BLA BLA BLA BLA BLA BLA BLA BLA BLA BLA BLA BLA BLA 
BLA BLA BLA BLA BLA BLA BLA BLA BLA BLA BLA BLA BLA BLA BLA BLA BLA BLA BLA BLA 
BLA BLA BLA BLA BLA BLA BLA BLA BLA BLA BLA BLA BLA BLA BLA BLA BLA BLA BLA BLA 
BLA BLA BLA BLA BLA BLA BLA BLA BLA BLA BLA BLA BLA BLA BLA BLA BLA BLA BLA BLA 
BLA BLA BLA BLA BLA BLA BLA BLA BLA BLA BLA BLA BLA BLA BLA BLA BLA BLA BLA BLA 
BLA BLA BLA BLA BLA BLA BLA BLA BLA BLA BLA BLA BLA BLA BLA BLA BLA BLA BLA BLA 
BLA BLA BLA BLA BLA BLA BLA BLA BLA BLA BLA BLA BLA BLA BLA BLA BLA BLA BLA BLA 
BLA BLA BLA BLA BLA BLA BLA BLA BLA BLA BLA BLA BLA BLA BLA BLA BLA BLA BLA BLA 
BLA BLA BLA BLA BLA BLA BLA BLA BLA BLA BLA BLA BLA BLA BLA BLA BLA BLA BLA BLA 
BLA BLA BLA BLA BLA BLA BLA BLA BLA BLA BLA BLA BLA BLA BLA BLA BLA BLA BLA BLA 
BLA BLA BLA BLA BLA BLA BLA BLA BLA BLA BLA BLA BLA BLA BLA BLA BLA BLA BLA BLA 
BLA BLA BLA BLA BLA BLA BLA BLA BLA BLA BLA BLA BLA BLA BLA BLA BLA BLA BLA BLA 
BLA BLA BLA BLA BLA BLA BLA BLA BLA BLA BLA BLA BLA BLA BLA BLA BLA BLA BLA BLA 
BLA BLA BLA BLA BLA BLA BLA BLA BLA BLA BLA BLA BLA BLA BLA BLA BLA BLA BLA BLA 
BLA BLA BLA BLA BLA BLA BLA BLA BLA BLA BLA BLA BLA BLA BLA BLA BLA BLA BLA BLA 
BLA BLA BLA BLA BLA BLA BLA BLA BLA BLA BLA BLA BLA BLA BLA BLA BLA BLA BLA BLA 
BLA BLA BLA BLA BLA BLA BLA BLA BLA BLA BLA BLA BLA BLA BLA BLA BLA BLA BLA BLA 
BLA BLA BLA BLA BLA BLA BLA BLA BLA BLA BLA BLA BLA BLA BLA BLA BLA BLA BLA BLA 
BLA BLA BLA BLA BLA BLA BLA BLA BLA BLA BLA BLA BLA BLA BLA BLA BLA BLA BLA BLA 
BLA BLA BLA BLA BLA BLA BLA BLA BLA BLA BLA BLA BLA BLA BLA BLA BLA BLA BLA BLA 
BLA BLA BLA BLA BLA BLA BLA BLA BLA BLA BLA BLA BLA BLA BLA BLA BLA BLA BLA BLA 
BLA BLA BLA BLA BLA BLA BLA BLA BLA BLA BLA BLA BLA BLA BLA BLA BLA BLA BLA BLA 
BLA BLA BLA BLA BLA BLA BLA BLA BLA BLA BLA BLA BLA BLA BLA BLA BLA BLA BLA BLA 
BLA BLA BLA BLA BLA BLA BLA BLA BLA BLA BLA BLA BLA BLA BLA BLA BLA BLA BLA BLA 
BLA BLA BLA BLA BLA BLA BLA BLA BLA BLA BLA BLA BLA BLA BLA BLA BLA BLA BLA BLA 
BLA BLA BLA BLA BLA BLA BLA BLA BLA BLA BLA BLA BLA BLA BLA BLA BLA BLA BLA BLA 
BLA BLA BLA BLA BLA BLA BLA BLA BLA BLA BLA BLA BLA BLA BLA BLA BLA BLA BLA BLA 
BLA BLA BLA BLA BLA BLA BLA BLA BLA BLA BLA BLA BLA BLA BLA BLA BLA BLA BLA BLA 
BLA BLA BLA BLA BLA BLA BLA BLA BLA BLA BLA BLA BLA BLA BLA BLA BLA BLA BLA BLA 
BLA BLA BLA BLA BLA BLA BLA BLA BLA BLA BLA BLA BLA BLA BLA BLA BLA BLA BLA BLA 
BLA BLA BLA BLA BLA BLA BLA BLA BLA BLA BLA BLA BLA BLA BLA BLA BLA BLA BLA BLA 
BLA BLA BLA BLA BLA BLA BLA BLA BLA BLA BLA BLA BLA BLA BLA BLA BLA BLA BLA BLA 
BLA BLA BLA BLA BLA BLA BLA BLA BLA BLA BLA BLA BLA BLA BLA BLA BLA BLA BLA BLA 
BLA BLA BLA BLA BLA BLA BLA BLA BLA BLA BLA BLA BLA BLA BLA BLA BLA BLA BLA BLA 
BLA BLA BLA BLA BLA BLA BLA BLA BLA BLA BLA BLA BLA BLA BLA BLA BLA BLA BLA BLA 
BLA BLA BLA BLA BLA BLA BLA BLA BLA BLA BLA BLA BLA BLA BLA BLA BLA BLA BLA BLA 
BLA BLA BLA BLA BLA BLA BLA BLA BLA BLA BLA BLA BLA BLA BLA BLA BLA BLA BLA BLA 
BLA BLA BLA BLA BLA BLA BLA BLA BLA BLA BLA BLA BLA BLA BLA BLA BLA BLA BLA BLA 
BLA BLA BLA BLA BLA BLA BLA BLA BLA BLA BLA BLA BLA BLA BLA BLA BLA BLA BLA BLA 
BLA BLA BLA BLA BLA BLA BLA BLA BLA BLA BLA BLA BLA BLA BLA BLA BLA BLA BLA BLA 
BLA BLA BLA BLA BLA BLA BLA BLA BLA BLA BLA BLA BLA BLA BLA BLA BLA BLA BLA BLA 
BLA BLA BLA BLA BLA BLA BLA BLA BLA BLA BLA BLA BLA BLA BLA BLA BLA BLA BLA BLA 
BLA BLA BLA BLA BLA BLA BLA BLA BLA BLA BLA BLA BLA BLA BLA BLA BLA BLA BLA BLA 
BLA BLA BLA BLA BLA BLA BLA BLA BLA BLA BLA BLA BLA BLA BLA BLA BLA BLA BLA BLA 
BLA BLA BLA BLA BLA BLA BLA BLA BLA BLA BLA BLA BLA BLA BLA BLA BLA BLA BLA BLA 
BLA BLA BLA BLA BLA BLA BLA BLA BLA BLA BLA BLA BLA BLA BLA BLA BLA BLA BLA BLA 
BLA BLA BLA BLA BLA BLA BLA BLA BLA BLA BLA BLA BLA BLA BLA BLA BLA BLA BLA BLA 
BLA BLA BLA BLA BLA BLA BLA BLA BLA BLA BLA BLA BLA BLA BLA BLA BLA BLA BLA BLA 
BLA BLA BLA BLA BLA BLA BLA BLA BLA BLA BLA BLA BLA BLA BLA BLA BLA BLA BLA BLA 
BLA BLA BLA BLA BLA BLA BLA BLA BLA BLA BLA BLA BLA BLA BLA BLA BLA BLA BLA BLA 
BLA BLA BLA BLA BLA BLA BLA BLA BLA BLA BLA BLA BLA BLA BLA BLA BLA BLA BLA BLA 
BLA BLA BLA BLA BLA BLA BLA BLA BLA BLA BLA BLA BLA BLA BLA BLA BLA BLA BLA BLA 
BLA BLA BLA BLA BLA BLA BLA BLA BLA BLA BLA BLA BLA BLA BLA BLA BLA BLA BLA BLA 
BLA BLA BLA BLA BLA BLA BLA BLA BLA BLA BLA BLA BLA BLA BLA BLA BLA BLA BLA BLA 
BLA BLA BLA BLA BLA BLA BLA BLA BLA BLA BLA BLA BLA BLA BLA BLA BLA BLA BLA BLA 
BLA BLA BLA BLA BLA BLA BLA BLA BLA BLA BLA BLA BLA BLA BLA BLA BLA BLA BLA BLA 
BLA BLA BLA BLA BLA BLA BLA BLA BLA BLA BLA BLA BLA BLA BLA BLA BLA BLA BLA BLA 
BLA BLA BLA BLA BLA BLA BLA BLA BLA BLA BLA BLA BLA BLA BLA BLA BLA BLA BLA BLA 
BLA BLA BLA BLA BLA BLA BLA BLA BLA BLA BLA BLA BLA BLA BLA BLA BLA BLA BLA BLA 
BLA BLA BLA BLA BLA BLA BLA BLA BLA BLA BLA BLA BLA BLA BLA BLA BLA BLA BLA BLA 
BLA BLA BLA BLA BLA BLA BLA BLA BLA BLA BLA BLA BLA BLA BLA BLA BLA BLA BLA BLA 
BLA BLA BLA BLA BLA BLA BLA BLA BLA BLA BLA BLA BLA BLA BLA BLA BLA BLA BLA BLA 
BLA BLA BLA BLA BLA BLA BLA BLA BLA BLA BLA BLA BLA BLA BLA BLA BLA BLA BLA BLA 
BLA BLA BLA BLA BLA BLA BLA BLA BLA BLA BLA BLA BLA BLA BLA BLA BLA BLA BLA BLA 
BLA BLA BLA BLA BLA BLA BLA BLA BLA BLA BLA BLA BLA BLA BLA BLA BLA BLA BLA BLA 
BLA BLA BLA BLA BLA BLA BLA BLA BLA BLA BLA BLA BLA BLA BLA BLA BLA BLA BLA BLA 
BLA BLA BLA BLA BLA BLA BLA BLA BLA BLA BLA BLA BLA BLA BLA BLA BLA BLA BLA BLA 
BLA BLA BLA BLA BLA BLA BLA BLA BLA BLA BLA BLA BLA BLA BLA BLA BLA BLA BLA BLA 
BLA BLA BLA BLA BLA BLA BLA BLA BLA BLA BLA BLA BLA BLA BLA BLA BLA BLA BLA BLA 
BLA BLA BLA BLA BLA BLA BLA BLA BLA BLA BLA BLA BLA BLA BLA BLA BLA BLA BLA BLA 
BLA BLA BLA BLA BLA BLA BLA BLA BLA BLA BLA BLA BLA BLA BLA BLA BLA BLA BLA BLA 
BLA BLA BLA BLA BLA BLA BLA BLA BLA BLA BLA BLA BLA BLA BLA BLA BLA BLA BLA BLA 
BLA BLA BLA BLA BLA BLA BLA BLA BLA BLA BLA BLA BLA BLA BLA BLA BLA BLA BLA BLA 
BLA BLA BLA BLA BLA BLA BLA BLA BLA BLA BLA BLA BLA BLA BLA BLA BLA BLA BLA BLA 
BLA BLA BLA BLA BLA BLA BLA BLA BLA BLA BLA BLA BLA BLA BLA BLA BLA BLA BLA BLA 
BLA BLA BLA BLA BLA BLA BLA BLA BLA BLA BLA BLA BLA BLA BLA BLA BLA BLA BLA BLA 
BLA BLA BLA BLA BLA BLA BLA BLA BLA BLA BLA BLA BLA BLA BLA BLA BLA BLA BLA BLA 
BLA BLA BLA BLA BLA BLA BLA BLA BLA BLA BLA BLA BLA BLA BLA BLA BLA BLA BLA BLA 
BLA BLA BLA BLA BLA BLA BLA BLA BLA BLA BLA BLA BLA BLA BLA BLA BLA BLA BLA BLA 
BLA BLA BLA BLA BLA BLA BLA BLA BLA BLA BLA BLA BLA BLA BLA BLA BLA BLA BLA BLA 
BLA BLA BLA BLA BLA BLA BLA BLA BLA BLA BLA BLA BLA BLA BLA BLA BLA BLA BLA BLA 
BLA BLA BLA BLA BLA BLA BLA BLA BLA BLA BLA BLA BLA BLA BLA BLA BLA BLA BLA BLA 
BLA BLA BLA BLA BLA BLA BLA BLA BLA BLA BLA BLA BLA BLA BLA BLA BLA BLA BLA BLA 
BLA BLA BLA BLA BLA BLA BLA BLA BLA BLA BLA BLA BLA BLA BLA BLA BLA BLA BLA BLA 
BLA BLA BLA BLA BLA BLA BLA BLA BLA BLA BLA BLA BLA BLA BLA BLA BLA BLA BLA BLA 
BLA BLA BLA BLA BLA BLA BLA BLA BLA BLA BLA BLA BLA BLA BLA BLA BLA BLA BLA BLA 
BLA BLA BLA BLA BLA BLA BLA BLA BLA BLA BLA BLA BLA BLA BLA BLA BLA BLA BLA BLA 
BLA BLA BLA BLA BLA BLA BLA BLA BLA BLA BLA BLA BLA BLA BLA BLA BLA BLA BLA BLA 
BLA BLA BLA BLA BLA BLA BLA BLA BLA BLA BLA BLA BLA BLA BLA BLA BLA BLA BLA BLA 
BLA BLA BLA BLA BLA BLA BLA BLA BLA BLA BLA BLA BLA BLA BLA BLA BLA BLA BLA BLA 
BLA BLA BLA BLA BLA BLA BLA BLA BLA BLA BLA BLA BLA BLA BLA BLA BLA BLA BLA BLA 
BLA BLA BLA BLA BLA BLA BLA BLA BLA BLA BLA BLA BLA BLA BLA BLA BLA BLA BLA BLA 
BLA BLA BLA BLA BLA BLA BLA BLA BLA BLA BLA BLA BLA BLA BLA BLA BLA BLA BLA BLA 
BLA BLA BLA BLA BLA BLA BLA BLA BLA BLA BLA BLA BLA BLA BLA BLA BLA BLA BLA BLA 
BLA BLA BLA BLA BLA BLA BLA BLA BLA BLA BLA BLA BLA BLA BLA BLA BLA BLA BLA BLA 
BLA BLA BLA BLA BLA BLA BLA BLA BLA BLA BLA BLA BLA BLA BLA BLA BLA BLA BLA BLA 
BLA BLA BLA BLA BLA BLA BLA BLA BLA BLA BLA BLA BLA BLA BLA BLA BLA BLA BLA BLA 
BLA BLA BLA BLA BLA BLA BLA BLA BLA BLA BLA BLA BLA BLA BLA BLA BLA BLA BLA BLA 
BLA BLA BLA BLA BLA BLA BLA BLA BLA BLA BLA BLA BLA BLA BLA BLA BLA BLA BLA BLA 
BLA BLA BLA BLA BLA BLA BLA BLA BLA BLA BLA BLA BLA BLA BLA BLA BLA BLA BLA BLA 
BLA BLA BLA BLA BLA BLA BLA BLA BLA BLA BLA BLA BLA BLA BLA BLA BLA BLA BLA BLA 
BLA BLA BLA BLA BLA BLA BLA BLA BLA BLA BLA BLA BLA BLA BLA BLA BLA BLA BLA BLA 
BLA BLA BLA BLA BLA BLA BLA BLA BLA BLA BLA BLA BLA BLA BLA BLA BLA BLA BLA BLA 
BLA BLA BLA BLA BLA BLA BLA BLA BLA BLA BLA BLA BLA BLA BLA BLA BLA BLA BLA BLA 
BLA BLA BLA BLA BLA BLA BLA BLA BLA BLA BLA BLA BLA BLA BLA BLA BLA BLA BLA BLA 
BLA BLA BLA BLA BLA BLA BLA BLA BLA BLA BLA BLA BLA BLA BLA BLA BLA BLA BLA BLA 
BLA BLA BLA BLA BLA BLA BLA BLA BLA BLA BLA BLA BLA BLA BLA BLA BLA BLA BLA BLA 
BLA BLA BLA BLA BLA BLA BLA BLA BLA BLA BLA BLA BLA BLA BLA BLA BLA BLA BLA BLA 
BLA BLA BLA BLA BLA BLA BLA BLA BLA BLA BLA BLA BLA BLA BLA BLA BLA BLA BLA BLA 
BLA BLA BLA BLA BLA BLA BLA BLA BLA BLA BLA BLA BLA BLA BLA BLA BLA BLA BLA BLA 
BLA BLA BLA BLA BLA BLA BLA BLA BLA BLA BLA BLA BLA BLA BLA BLA BLA BLA BLA BLA 
BLA BLA BLA BLA BLA BLA BLA BLA BLA BLA BLA BLA BLA BLA BLA BLA BLA BLA BLA BLA 
BLA BLA BLA BLA BLA BLA BLA BLA BLA BLA BLA BLA BLA BLA BLA BLA BLA BLA BLA BLA 
BLA BLA BLA BLA BLA BLA BLA BLA BLA BLA BLA BLA BLA BLA BLA BLA BLA BLA BLA BLA 
BLA BLA BLA BLA BLA BLA BLA BLA BLA BLA BLA BLA BLA BLA BLA BLA BLA BLA BLA BLA 
BLA BLA BLA BLA BLA BLA BLA BLA BLA BLA BLA BLA BLA BLA BLA BLA BLA BLA BLA BLA 
BLA BLA BLA BLA BLA BLA BLA BLA BLA BLA BLA BLA BLA BLA BLA BLA BLA BLA BLA BLA 
BLA BLA BLA BLA BLA BLA BLA BLA BLA BLA BLA BLA BLA BLA BLA BLA BLA BLA BLA BLA 
BLA BLA BLA BLA BLA BLA BLA BLA BLA BLA BLA BLA BLA BLA BLA BLA BLA BLA BLA BLA 
BLA BLA BLA BLA BLA BLA BLA BLA BLA BLA BLA BLA BLA BLA BLA BLA BLA BLA BLA BLA 
BLA BLA BLA BLA BLA BLA BLA BLA BLA BLA BLA BLA BLA BLA BLA BLA BLA BLA BLA BLA 
BLA BLA BLA BLA BLA BLA BLA BLA BLA BLA BLA BLA BLA BLA BLA BLA BLA BLA BLA BLA 
BLA BLA BLA BLA BLA BLA BLA BLA BLA BLA BLA BLA BLA BLA BLA BLA BLA BLA BLA BLA 
BLA BLA BLA BLA BLA BLA BLA BLA BLA BLA BLA BLA BLA BLA BLA BLA BLA BLA BLA BLA 
BLA BLA BLA BLA BLA BLA BLA BLA BLA BLA BLA BLA BLA BLA BLA BLA BLA BLA BLA BLA 
BLA BLA BLA BLA BLA BLA BLA BLA BLA BLA BLA BLA BLA BLA BLA BLA BLA BLA BLA BLA 
BLA BLA BLA BLA BLA BLA BLA BLA BLA BLA BLA BLA BLA BLA BLA BLA BLA BLA BLA BLA 
BLA BLA BLA BLA BLA BLA BLA BLA BLA BLA BLA BLA BLA BLA BLA BLA BLA BLA BLA BLA 
BLA BLA BLA BLA BLA BLA BLA BLA BLA BLA BLA BLA BLA BLA BLA BLA BLA BLA BLA BLA 
BLA BLA BLA BLA BLA BLA BLA BLA BLA BLA BLA BLA BLA BLA BLA BLA BLA BLA BLA BLA 
BLA BLA BLA BLA BLA BLA BLA BLA BLA BLA BLA BLA BLA BLA BLA BLA BLA BLA BLA BLA 
BLA BLA BLA BLA BLA BLA BLA BLA BLA BLA BLA BLA BLA BLA BLA BLA BLA BLA BLA BLA 
BLA BLA BLA BLA BLA BLA BLA BLA BLA BLA BLA BLA BLA BLA BLA BLA BLA BLA BLA BLA 
BLA BLA BLA BLA BLA BLA BLA BLA BLA BLA BLA BLA BLA BLA BLA BLA BLA BLA BLA BLA 
BLA BLA BLA BLA BLA BLA BLA BLA BLA BLA BLA BLA BLA BLA BLA BLA BLA BLA BLA BLA 
BLA BLA BLA BLA BLA BLA BLA BLA BLA BLA BLA BLA BLA BLA BLA BLA BLA BLA BLA BLA 
BLA BLA BLA BLA BLA BLA BLA BLA BLA BLA BLA BLA BLA BLA BLA BLA BLA BLA BLA BLA 
BLA BLA BLA BLA BLA BLA BLA BLA BLA BLA BLA BLA BLA BLA BLA BLA BLA BLA BLA BLA 
BLA BLA BLA BLA BLA BLA BLA BLA BLA BLA BLA BLA BLA BLA BLA BLA BLA BLA BLA BLA 
BLA BLA BLA BLA BLA BLA BLA BLA BLA BLA BLA BLA BLA BLA BLA BLA BLA BLA BLA BLA 
BLA BLA BLA BLA BLA BLA BLA BLA BLA BLA BLA BLA BLA BLA BLA BLA BLA BLA BLA BLA 
BLA BLA BLA BLA BLA BLA BLA BLA BLA BLA BLA BLA BLA BLA BLA BLA BLA BLA BLA BLA 
BLA BLA BLA BLA BLA BLA BLA BLA BLA BLA BLA BLA BLA BLA BLA BLA BLA BLA BLA BLA 
BLA BLA BLA BLA BLA BLA BLA BLA BLA BLA BLA BLA BLA BLA BLA BLA BLA BLA BLA BLA 
BLA BLA BLA BLA BLA BLA BLA BLA BLA BLA BLA BLA BLA BLA BLA BLA BLA BLA BLA BLA 
BLA BLA BLA BLA BLA BLA BLA BLA BLA BLA BLA BLA BLA BLA BLA BLA BLA BLA BLA BLA 
BLA BLA BLA BLA BLA BLA BLA BLA BLA BLA BLA BLA BLA BLA BLA BLA BLA BLA BLA BLA 
BLA BLA BLA BLA BLA BLA BLA BLA BLA BLA BLA BLA BLA BLA BLA BLA BLA BLA BLA BLA 
BLA BLA BLA BLA BLA BLA BLA BLA BLA BLA BLA BLA BLA BLA BLA BLA BLA BLA BLA BLA 
BLA BLA BLA BLA BLA BLA BLA BLA BLA BLA BLA BLA BLA BLA BLA BLA BLA BLA BLA BLA 
BLA BLA BLA BLA BLA BLA BLA BLA BLA BLA BLA BLA BLA BLA BLA BLA BLA BLA BLA BLA 
BLA BLA BLA BLA BLA BLA BLA BLA BLA BLA BLA BLA BLA BLA BLA BLA BLA BLA BLA BLA 
BLA BLA BLA BLA BLA BLA BLA BLA BLA BLA BLA BLA BLA BLA BLA BLA BLA BLA BLA BLA 
BLA BLA BLA BLA BLA BLA BLA BLA BLA BLA BLA BLA BLA BLA BLA BLA BLA BLA BLA BLA 
BLA BLA BLA BLA BLA BLA BLA BLA BLA BLA BLA BLA BLA BLA BLA BLA BLA BLA BLA BLA 
BLA BLA BLA BLA BLA BLA BLA BLA BLA BLA BLA BLA BLA BLA BLA BLA BLA BLA BLA BLA 
BLA BLA BLA BLA BLA BLA BLA BLA BLA BLA BLA BLA BLA BLA BLA BLA BLA BLA BLA BLA 
BLA BLA BLA BLA BLA BLA BLA BLA BLA BLA BLA BLA BLA BLA BLA BLA BLA BLA BLA BLA 
BLA BLA BLA BLA BLA BLA BLA BLA BLA BLA BLA BLA BLA BLA BLA BLA BLA BLA BLA BLA 
BLA BLA BLA BLA BLA BLA BLA BLA BLA BLA BLA BLA BLA BLA BLA BLA BLA BLA BLA BLA 
BLA BLA BLA BLA BLA BLA BLA BLA BLA BLA BLA BLA BLA BLA BLA BLA BLA BLA BLA BLA 
BLA BLA BLA BLA BLA BLA BLA BLA BLA BLA BLA BLA BLA BLA BLA BLA BLA BLA BLA BLA 
BLA BLA BLA BLA BLA BLA BLA BLA BLA BLA BLA BLA BLA BLA BLA BLA BLA BLA BLA BLA 
BLA BLA BLA BLA BLA BLA BLA BLA BLA BLA BLA BLA BLA BLA BLA BLA BLA BLA BLA BLA 
BLA BLA BLA BLA BLA BLA BLA BLA BLA BLA BLA BLA BLA BLA BLA BLA BLA BLA BLA BLA 
BLA BLA BLA BLA BLA BLA BLA BLA BLA BLA BLA BLA BLA BLA BLA BLA BLA BLA BLA BLA 
BLA BLA BLA BLA BLA BLA BLA BLA BLA BLA BLA BLA BLA BLA BLA BLA BLA BLA BLA BLA 
BLA BLA BLA BLA BLA BLA BLA BLA BLA BLA BLA BLA BLA BLA BLA BLA BLA BLA BLA BLA 
BLA BLA BLA BLA BLA BLA BLA BLA BLA BLA BLA BLA BLA BLA BLA BLA BLA BLA BLA BLA 
BLA BLA BLA BLA BLA BLA BLA BLA BLA BLA BLA BLA BLA BLA BLA BLA BLA BLA BLA BLA 
BLA BLA BLA BLA BLA BLA BLA BLA BLA BLA BLA BLA BLA BLA BLA BLA BLA BLA BLA BLA 
BLA BLA BLA BLA BLA BLA BLA BLA BLA BLA BLA BLA BLA BLA BLA BLA BLA BLA BLA BLA 
BLA BLA BLA BLA BLA BLA BLA BLA BLA BLA BLA BLA BLA BLA BLA BLA BLA BLA BLA BLA 
BLA BLA BLA BLA BLA BLA BLA BLA BLA BLA BLA BLA BLA BLA BLA BLA BLA BLA BLA BLA 
BLA BLA BLA BLA BLA BLA BLA BLA BLA BLA BLA BLA BLA BLA BLA BLA BLA BLA BLA BLA 
BLA BLA BLA BLA BLA BLA BLA BLA BLA BLA BLA BLA BLA BLA BLA BLA BLA BLA BLA BLA 
BLA BLA BLA BLA BLA BLA BLA BLA BLA BLA BLA BLA BLA BLA BLA BLA BLA BLA BLA BLA 
BLA BLA BLA BLA BLA BLA BLA BLA BLA BLA BLA BLA BLA BLA BLA BLA BLA BLA BLA BLA 
BLA BLA BLA BLA BLA BLA BLA BLA BLA BLA BLA BLA BLA BLA BLA BLA BLA BLA BLA BLA 
BLA BLA BLA BLA BLA BLA BLA BLA BLA BLA BLA BLA BLA BLA BLA BLA BLA BLA BLA BLA 
BLA BLA BLA BLA BLA BLA BLA BLA BLA BLA BLA BLA BLA BLA BLA BLA BLA BLA BLA BLA 
BLA BLA BLA BLA BLA BLA BLA BLA BLA BLA BLA BLA BLA BLA BLA BLA BLA BLA BLA BLA 
BLA BLA BLA BLA BLA BLA BLA BLA BLA BLA BLA BLA BLA BLA BLA BLA BLA BLA BLA BLA 
BLA BLA BLA BLA BLA BLA BLA BLA BLA BLA BLA BLA BLA BLA BLA BLA BLA BLA BLA BLA 
BLA BLA BLA BLA BLA BLA BLA BLA BLA BLA BLA BLA BLA BLA BLA BLA BLA BLA BLA BLA 
BLA BLA BLA BLA BLA BLA BLA BLA BLA BLA BLA BLA BLA BLA BLA BLA BLA BLA BLA BLA 
BLA BLA BLA BLA BLA BLA BLA BLA BLA BLA BLA BLA BLA BLA BLA BLA BLA BLA BLA BLA 
BLA BLA BLA BLA BLA BLA BLA BLA BLA BLA BLA BLA BLA BLA BLA BLA BLA BLA BLA BLA 
BLA BLA BLA BLA BLA BLA BLA BLA BLA BLA BLA BLA BLA BLA BLA BLA BLA BLA BLA BLA 
BLA BLA BLA BLA BLA BLA BLA BLA BLA BLA BLA BLA BLA BLA BLA BLA BLA BLA BLA BLA 
BLA BLA BLA BLA BLA BLA BLA BLA BLA BLA BLA BLA BLA BLA BLA BLA BLA BLA BLA BLA 
BLA BLA BLA BLA BLA BLA BLA BLA BLA BLA BLA BLA BLA BLA BLA BLA BLA BLA BLA BLA 
BLA BLA BLA BLA BLA BLA BLA BLA BLA BLA BLA BLA BLA BLA BLA BLA BLA BLA BLA BLA 
BLA BLA BLA BLA BLA BLA BLA BLA BLA BLA BLA BLA BLA BLA BLA BLA BLA BLA BLA BLA 
BLA BLA BLA BLA BLA BLA BLA BLA BLA BLA BLA BLA BLA BLA BLA BLA BLA BLA BLA BLA 
BLA BLA BLA BLA BLA BLA BLA BLA BLA BLA BLA BLA BLA BLA BLA BLA BLA BLA BLA BLA 
BLA BLA BLA BLA BLA BLA BLA BLA BLA BLA BLA BLA BLA BLA BLA BLA BLA BLA BLA BLA 
BLA BLA BLA BLA BLA BLA BLA BLA BLA BLA BLA BLA BLA BLA BLA BLA BLA BLA BLA BLA 
BLA BLA BLA BLA BLA BLA BLA BLA BLA BLA BLA BLA BLA BLA BLA BLA BLA BLA BLA BLA 
BLA BLA BLA BLA BLA BLA BLA BLA BLA BLA BLA BLA BLA BLA BLA BLA BLA BLA BLA BLA 
BLA BLA BLA BLA BLA BLA BLA BLA BLA BLA BLA BLA BLA BLA BLA BLA BLA BLA BLA BLA 
BLA BLA BLA BLA BLA BLA BLA BLA BLA BLA BLA BLA BLA BLA BLA BLA BLA BLA BLA BLA 
BLA BLA BLA BLA BLA BLA BLA BLA BLA BLA BLA BLA BLA BLA BLA BLA BLA BLA BLA BLA 
BLA BLA BLA BLA BLA BLA BLA BLA BLA BLA BLA BLA BLA BLA BLA BLA BLA BLA BLA BLA 
BLA BLA BLA BLA BLA BLA BLA BLA BLA BLA BLA BLA BLA BLA BLA BLA BLA BLA BLA BLA 
BLA BLA BLA BLA BLA BLA BLA BLA BLA BLA BLA BLA BLA BLA BLA BLA BLA BLA BLA BLA 
BLA BLA BLA BLA BLA BLA BLA BLA BLA BLA BLA BLA BLA BLA BLA BLA BLA BLA BLA BLA 
BLA BLA BLA BLA BLA BLA BLA BLA BLA BLA BLA BLA BLA BLA BLA BLA BLA BLA BLA BLA 
BLA BLA BLA BLA BLA BLA BLA BLA BLA BLA BLA BLA BLA BLA BLA BLA BLA BLA BLA BLA 
BLA BLA BLA BLA BLA BLA BLA BLA BLA BLA BLA BLA BLA BLA BLA BLA BLA BLA BLA BLA 
BLA BLA BLA BLA BLA BLA BLA BLA BLA BLA BLA BLA BLA BLA BLA BLA BLA BLA BLA BLA 
BLA BLA BLA BLA BLA BLA BLA BLA BLA BLA BLA BLA BLA BLA BLA BLA BLA BLA BLA BLA 
BLA BLA BLA BLA BLA BLA BLA BLA BLA BLA BLA BLA BLA BLA BLA BLA BLA BLA BLA BLA 
BLA BLA BLA BLA BLA BLA BLA BLA BLA BLA BLA BLA BLA BLA BLA BLA BLA BLA BLA BLA 
BLA BLA BLA BLA BLA BLA BLA BLA BLA BLA BLA BLA BLA BLA BLA BLA BLA BLA BLA BLA 
BLA BLA BLA BLA BLA BLA BLA BLA BLA BLA BLA BLA BLA BLA BLA BLA BLA BLA BLA BLA 
BLA BLA BLA BLA BLA BLA BLA BLA BLA BLA BLA BLA BLA BLA BLA BLA BLA BLA BLA BLA 
BLA BLA BLA BLA BLA BLA BLA BLA BLA BLA BLA BLA BLA BLA BLA BLA BLA BLA BLA BLA 
BLA BLA BLA BLA BLA BLA BLA BLA BLA BLA BLA BLA BLA BLA BLA BLA BLA BLA BLA BLA 
BLA BLA BLA BLA BLA BLA BLA BLA BLA BLA BLA BLA BLA BLA BLA BLA BLA BLA BLA BLA 
BLA BLA BLA BLA BLA BLA BLA BLA BLA BLA BLA BLA BLA BLA BLA BLA BLA BLA BLA BLA 
BLA BLA BLA BLA BLA BLA BLA BLA BLA BLA BLA BLA BLA BLA BLA BLA BLA BLA BLA BLA 
BLA BLA BLA BLA BLA BLA BLA BLA BLA BLA BLA BLA BLA BLA BLA BLA BLA BLA BLA BLA 
BLA BLA BLA BLA BLA BLA BLA BLA BLA BLA BLA BLA BLA BLA BLA BLA BLA BLA BLA BLA 
BLA BLA BLA BLA BLA BLA BLA BLA BLA BLA BLA BLA BLA BLA BLA BLA BLA BLA BLA BLA 
BLA BLA BLA BLA BLA BLA BLA BLA BLA BLA BLA BLA BLA BLA BLA BLA BLA BLA BLA BLA 
BLA BLA BLA BLA BLA BLA BLA BLA BLA BLA BLA BLA BLA BLA BLA BLA BLA BLA BLA BLA 
BLA BLA BLA BLA BLA BLA BLA BLA BLA BLA BLA BLA BLA BLA BLA BLA BLA BLA BLA BLA 
BLA BLA BLA BLA BLA BLA BLA BLA BLA BLA BLA BLA BLA BLA BLA BLA BLA BLA BLA BLA 
BLA BLA BLA BLA BLA BLA BLA BLA BLA BLA BLA BLA BLA BLA BLA BLA BLA BLA BLA BLA 
BLA BLA BLA BLA BLA BLA BLA BLA BLA BLA BLA BLA BLA BLA BLA BLA BLA BLA BLA BLA 
BLA BLA BLA BLA BLA BLA BLA BLA BLA BLA BLA BLA BLA BLA BLA BLA BLA BLA BLA BLA 
BLA BLA BLA BLA BLA BLA BLA BLA BLA BLA BLA BLA BLA BLA BLA BLA BLA BLA BLA BLA 
BLA BLA BLA BLA BLA BLA BLA BLA BLA BLA BLA BLA BLA BLA BLA BLA BLA BLA BLA BLA 
BLA BLA BLA BLA BLA BLA BLA BLA BLA BLA BLA BLA BLA BLA BLA BLA BLA BLA BLA BLA 
BLA BLA BLA BLA BLA BLA BLA BLA BLA BLA BLA BLA BLA BLA BLA BLA BLA BLA BLA BLA 
BLA BLA BLA BLA BLA BLA BLA BLA BLA BLA BLA BLA BLA BLA BLA BLA BLA BLA BLA BLA 
BLA BLA BLA BLA BLA BLA BLA BLA BLA BLA BLA BLA BLA BLA BLA BLA BLA BLA BLA BLA 
BLA BLA BLA BLA BLA BLA BLA BLA BLA BLA BLA BLA BLA BLA BLA BLA BLA BLA BLA BLA 
BLA BLA BLA BLA BLA BLA BLA BLA BLA BLA BLA BLA BLA BLA BLA BLA BLA BLA BLA BLA 
BLA BLA BLA BLA BLA BLA BLA BLA BLA BLA BLA BLA BLA BLA BLA BLA BLA BLA BLA BLA 
BLA BLA BLA BLA BLA BLA BLA BLA BLA BLA BLA BLA BLA BLA BLA BLA BLA BLA BLA BLA 
BLA BLA BLA BLA BLA BLA BLA BLA BLA BLA BLA BLA BLA BLA BLA BLA BLA BLA BLA BLA 
BLA BLA BLA BLA BLA BLA BLA BLA BLA BLA BLA BLA BLA BLA BLA BLA BLA BLA BLA BLA 
BLA BLA BLA BLA BLA BLA BLA BLA BLA BLA BLA BLA BLA BLA BLA BLA BLA BLA BLA BLA 
BLA BLA BLA BLA BLA BLA BLA BLA BLA BLA BLA BLA BLA BLA BLA BLA BLA BLA BLA BLA 
BLA BLA BLA BLA BLA BLA BLA BLA BLA BLA BLA BLA BLA BLA BLA BLA BLA BLA BLA BLA 
BLA BLA BLA BLA BLA BLA BLA BLA BLA BLA BLA BLA BLA BLA BLA BLA BLA BLA BLA BLA 
BLA BLA BLA BLA BLA BLA BLA BLA BLA BLA BLA BLA BLA BLA BLA BLA BLA BLA BLA BLA 
BLA BLA BLA BLA BLA BLA BLA BLA BLA BLA BLA BLA BLA BLA BLA BLA BLA BLA BLA BLA 
BLA BLA BLA BLA BLA BLA BLA BLA BLA BLA BLA BLA BLA BLA BLA BLA BLA BLA BLA BLA 
BLA BLA BLA BLA BLA BLA BLA BLA BLA BLA BLA BLA BLA BLA BLA BLA BLA BLA BLA BLA 
BLA BLA BLA BLA BLA BLA BLA BLA BLA BLA BLA BLA BLA BLA BLA BLA BLA BLA BLA BLA 
BLA BLA BLA BLA BLA BLA BLA BLA BLA BLA BLA BLA BLA BLA BLA BLA BLA BLA BLA BLA 
BLA BLA BLA BLA BLA BLA BLA BLA BLA BLA BLA BLA BLA BLA BLA BLA BLA BLA BLA BLA 
BLA BLA BLA BLA BLA BLA BLA BLA BLA BLA BLA BLA BLA BLA BLA BLA BLA BLA BLA BLA 
BLA BLA BLA BLA BLA BLA BLA BLA BLA BLA BLA BLA BLA BLA BLA BLA BLA BLA BLA BLA 
BLA BLA BLA BLA BLA BLA BLA BLA BLA BLA BLA BLA BLA BLA BLA BLA BLA BLA BLA BLA 
BLA BLA BLA BLA BLA BLA BLA BLA BLA BLA BLA BLA BLA BLA BLA BLA BLA BLA BLA BLA 
BLA BLA BLA BLA BLA BLA BLA BLA BLA BLA BLA BLA BLA BLA BLA BLA BLA BLA BLA BLA 
BLA BLA BLA BLA BLA BLA BLA BLA BLA BLA BLA BLA BLA BLA BLA BLA BLA BLA BLA BLA 
BLA BLA BLA BLA BLA BLA BLA BLA BLA BLA BLA BLA BLA BLA BLA BLA BLA BLA BLA BLA 
BLA BLA BLA BLA BLA BLA BLA BLA BLA BLA BLA BLA BLA BLA BLA BLA BLA BLA BLA BLA 
BLA BLA BLA BLA BLA BLA BLA BLA BLA BLA BLA BLA BLA BLA BLA BLA BLA BLA BLA BLA 
BLA BLA BLA BLA BLA BLA BLA BLA BLA BLA BLA BLA BLA BLA BLA BLA BLA BLA BLA BLA 
BLA BLA BLA BLA BLA BLA BLA BLA BLA BLA BLA BLA BLA BLA BLA BLA BLA BLA BLA BLA 
BLA BLA BLA BLA BLA BLA BLA BLA BLA BLA BLA BLA BLA BLA BLA BLA BLA BLA BLA BLA 
BLA BLA BLA BLA BLA BLA BLA BLA BLA BLA BLA BLA BLA BLA BLA BLA BLA BLA BLA BLA 
BLA BLA BLA BLA BLA BLA BLA BLA BLA BLA BLA BLA BLA BLA BLA BLA BLA BLA BLA BLA 
BLA BLA BLA BLA BLA BLA BLA BLA BLA BLA BLA BLA BLA BLA BLA BLA BLA BLA BLA BLA 
BLA BLA BLA BLA BLA BLA BLA BLA BLA BLA BLA BLA BLA BLA BLA BLA BLA BLA BLA BLA 
BLA BLA BLA BLA BLA BLA BLA BLA BLA BLA BLA BLA BLA BLA BLA BLA BLA BLA BLA BLA 
BLA BLA BLA BLA BLA BLA BLA BLA BLA BLA BLA BLA BLA BLA BLA BLA BLA BLA BLA BLA 
BLA BLA BLA BLA BLA BLA BLA BLA BLA BLA BLA BLA BLA BLA BLA BLA BLA BLA BLA BLA 
BLA BLA BLA BLA BLA BLA BLA BLA BLA BLA BLA BLA BLA BLA BLA BLA BLA BLA BLA BLA 
BLA BLA BLA BLA BLA BLA BLA BLA BLA BLA BLA BLA BLA BLA BLA BLA BLA BLA BLA BLA 
BLA BLA BLA BLA BLA BLA BLA BLA BLA BLA BLA BLA BLA BLA BLA BLA BLA BLA BLA BLA 
BLA BLA BLA BLA BLA BLA BLA BLA BLA BLA BLA BLA BLA BLA BLA BLA BLA BLA BLA BLA 
BLA BLA BLA BLA BLA BLA BLA BLA BLA BLA BLA BLA BLA BLA BLA BLA BLA BLA BLA BLA 
BLA BLA BLA BLA BLA BLA BLA BLA BLA BLA BLA BLA BLA BLA BLA BLA BLA BLA BLA BLA 
BLA BLA BLA BLA BLA BLA BLA BLA BLA BLA BLA BLA BLA BLA BLA BLA BLA BLA BLA BLA 
BLA BLA BLA BLA BLA BLA BLA BLA BLA BLA BLA BLA BLA BLA BLA BLA BLA BLA BLA BLA 
BLA BLA BLA BLA BLA BLA BLA BLA BLA BLA BLA BLA BLA BLA BLA BLA BLA BLA BLA BLA 
BLA BLA BLA BLA BLA BLA BLA BLA BLA BLA BLA BLA BLA BLA BLA BLA BLA BLA BLA BLA 
BLA BLA BLA BLA BLA BLA BLA BLA BLA BLA BLA BLA BLA BLA BLA BLA BLA BLA BLA BLA 
BLA BLA BLA BLA BLA BLA BLA BLA BLA BLA BLA BLA BLA BLA BLA BLA BLA BLA BLA BLA 
BLA BLA BLA BLA BLA BLA BLA BLA BLA BLA BLA BLA BLA BLA BLA BLA BLA BLA BLA BLA 
BLA BLA BLA BLA BLA BLA BLA BLA BLA BLA BLA BLA BLA BLA BLA BLA BLA BLA BLA BLA 
BLA BLA BLA BLA BLA BLA BLA BLA BLA BLA BLA BLA BLA BLA BLA BLA BLA BLA BLA BLA 
BLA BLA BLA BLA BLA BLA BLA BLA BLA BLA BLA BLA BLA BLA BLA BLA BLA BLA BLA BLA 
BLA BLA BLA BLA BLA BLA BLA BLA BLA BLA BLA BLA BLA BLA BLA BLA BLA BLA BLA BLA 
BLA BLA BLA BLA BLA BLA BLA BLA BLA BLA BLA BLA BLA BLA BLA BLA BLA BLA BLA BLA 
BLA BLA BLA BLA BLA BLA BLA BLA BLA BLA BLA BLA BLA BLA BLA BLA BLA BLA BLA BLA 
BLA BLA BLA BLA BLA BLA BLA BLA BLA BLA BLA BLA BLA BLA BLA BLA BLA BLA BLA BLA 
BLA BLA BLA BLA BLA BLA BLA BLA BLA BLA BLA BLA BLA BLA BLA BLA BLA BLA BLA BLA 
BLA BLA BLA BLA BLA BLA BLA BLA BLA BLA BLA BLA BLA BLA BLA BLA BLA BLA BLA BLA 
BLA BLA BLA BLA BLA BLA BLA BLA BLA BLA BLA BLA BLA BLA BLA BLA BLA BLA BLA BLA 
BLA BLA BLA BLA BLA BLA BLA BLA BLA BLA BLA BLA BLA BLA BLA BLA BLA BLA BLA BLA 
BLA BLA BLA BLA BLA BLA BLA BLA BLA BLA BLA BLA BLA BLA BLA BLA BLA BLA BLA BLA 
BLA BLA BLA BLA BLA BLA BLA BLA BLA BLA BLA BLA BLA BLA BLA BLA BLA BLA BLA BLA 
BLA BLA BLA BLA BLA BLA BLA BLA BLA BLA BLA BLA BLA BLA BLA BLA BLA BLA BLA BLA 
BLA BLA BLA BLA BLA BLA BLA BLA BLA BLA BLA BLA BLA BLA BLA BLA BLA BLA BLA BLA 
BLA BLA BLA BLA BLA BLA BLA BLA BLA BLA BLA BLA BLA BLA BLA BLA BLA BLA BLA BLA 
BLA BLA BLA BLA BLA BLA BLA BLA BLA BLA BLA BLA BLA BLA BLA BLA BLA BLA BLA BLA 
BLA BLA BLA BLA BLA BLA BLA BLA BLA BLA BLA BLA BLA BLA BLA BLA BLA BLA BLA BLA 
BLA BLA BLA BLA BLA BLA BLA BLA BLA BLA BLA BLA BLA BLA BLA BLA BLA BLA BLA BLA 
BLA BLA BLA BLA BLA BLA BLA BLA BLA BLA BLA BLA BLA BLA BLA BLA BLA BLA BLA BLA 
BLA BLA BLA BLA BLA BLA BLA BLA BLA BLA BLA BLA BLA BLA BLA BLA BLA BLA BLA BLA 
BLA BLA BLA BLA BLA BLA BLA BLA BLA BLA BLA BLA BLA BLA BLA BLA BLA BLA BLA BLA 
BLA BLA BLA BLA BLA BLA BLA BLA BLA BLA BLA BLA BLA BLA BLA BLA BLA BLA BLA BLA 
BLA BLA BLA BLA BLA BLA BLA BLA BLA BLA BLA BLA BLA BLA BLA BLA BLA BLA BLA BLA 
BLA BLA BLA BLA BLA BLA BLA BLA BLA BLA BLA BLA BLA BLA BLA BLA BLA BLA BLA BLA 
BLA BLA BLA BLA BLA BLA BLA BLA BLA BLA BLA BLA BLA BLA BLA BLA BLA BLA BLA BLA 
BLA BLA BLA BLA BLA BLA BLA BLA BLA BLA BLA BLA BLA BLA BLA BLA BLA BLA BLA BLA 
BLA BLA BLA BLA BLA BLA BLA BLA BLA BLA BLA BLA BLA BLA BLA BLA BLA BLA BLA BLA 
BLA BLA BLA BLA BLA BLA BLA BLA BLA BLA BLA BLA BLA BLA BLA BLA BLA BLA BLA BLA 
BLA BLA BLA BLA BLA BLA BLA BLA BLA BLA BLA BLA BLA BLA BLA BLA BLA BLA BLA BLA 
BLA BLA BLA BLA BLA BLA BLA BLA BLA BLA BLA BLA BLA BLA BLA BLA BLA BLA BLA BLA 
BLA BLA BLA BLA BLA BLA BLA BLA BLA BLA BLA BLA BLA BLA BLA BLA BLA BLA BLA BLA 
BLA BLA BLA BLA BLA BLA BLA BLA BLA BLA BLA BLA BLA BLA BLA BLA BLA BLA BLA BLA 
BLA BLA BLA BLA BLA BLA BLA BLA BLA BLA BLA BLA BLA BLA BLA BLA BLA BLA BLA BLA 
BLA BLA BLA BLA BLA BLA BLA BLA BLA BLA BLA BLA BLA BLA BLA BLA BLA BLA BLA BLA 
BLA BLA BLA BLA BLA BLA BLA BLA BLA BLA BLA BLA BLA BLA BLA BLA BLA BLA BLA BLA 
BLA BLA BLA BLA BLA BLA BLA BLA BLA BLA BLA BLA BLA BLA BLA BLA BLA BLA BLA BLA 
BLA BLA BLA BLA BLA BLA BLA BLA BLA BLA BLA BLA BLA BLA BLA BLA BLA BLA BLA BLA 
BLA BLA BLA BLA BLA BLA BLA BLA BLA BLA BLA BLA BLA BLA BLA BLA BLA BLA BLA BLA 
BLA BLA BLA BLA BLA BLA BLA BLA BLA BLA BLA BLA BLA BLA BLA BLA BLA BLA BLA BLA 
BLA BLA BLA BLA BLA BLA BLA BLA BLA BLA BLA BLA BLA BLA BLA BLA BLA BLA BLA BLA 
BLA BLA BLA BLA BLA BLA BLA BLA BLA BLA BLA BLA BLA BLA BLA BLA BLA BLA BLA BLA 
BLA BLA BLA BLA BLA BLA BLA BLA BLA BLA BLA BLA BLA BLA BLA BLA BLA BLA BLA BLA 
BLA BLA BLA BLA BLA BLA BLA BLA BLA BLA BLA BLA BLA BLA BLA BLA BLA BLA BLA BLA 
BLA BLA BLA BLA BLA BLA BLA BLA BLA BLA BLA BLA BLA BLA BLA BLA BLA BLA BLA BLA 
BLA BLA BLA BLA BLA BLA BLA BLA BLA BLA BLA BLA BLA BLA BLA BLA BLA BLA BLA BLA 
BLA BLA BLA BLA BLA BLA BLA BLA BLA BLA BLA BLA BLA BLA BLA BLA BLA BLA BLA BLA 
BLA BLA BLA BLA BLA BLA BLA BLA BLA BLA BLA BLA BLA BLA BLA BLA BLA BLA BLA BLA 
BLA BLA BLA BLA BLA BLA BLA BLA BLA BLA BLA BLA BLA BLA BLA BLA BLA BLA BLA BLA 
BLA BLA BLA BLA BLA BLA BLA BLA BLA BLA BLA BLA BLA BLA BLA BLA BLA BLA BLA BLA 
BLA BLA BLA BLA BLA BLA BLA BLA BLA BLA BLA BLA BLA BLA BLA BLA BLA BLA BLA BLA 
BLA BLA BLA BLA BLA BLA BLA BLA BLA BLA BLA BLA BLA BLA BLA BLA BLA BLA BLA BLA 
BLA BLA BLA BLA BLA BLA BLA BLA BLA BLA BLA BLA BLA BLA BLA BLA BLA BLA BLA BLA 
BLA BLA BLA BLA BLA BLA BLA BLA BLA BLA BLA BLA BLA BLA BLA BLA BLA BLA BLA BLA 
BLA BLA BLA BLA BLA BLA BLA BLA BLA BLA BLA BLA BLA BLA BLA BLA BLA BLA BLA BLA 
BLA BLA BLA BLA BLA BLA BLA BLA BLA BLA BLA BLA BLA BLA BLA BLA BLA BLA BLA BLA 
BLA BLA BLA BLA BLA BLA BLA BLA BLA BLA BLA BLA BLA BLA BLA BLA BLA BLA BLA BLA 
BLA BLA BLA BLA BLA BLA BLA BLA BLA BLA BLA BLA BLA BLA BLA BLA BLA BLA BLA BLA 
BLA BLA BLA BLA BLA BLA BLA BLA BLA BLA BLA BLA BLA BLA BLA BLA BLA BLA BLA BLA 
BLA BLA BLA BLA BLA BLA BLA BLA BLA BLA BLA BLA BLA BLA BLA BLA BLA BLA BLA BLA 
BLA BLA BLA BLA BLA BLA BLA BLA BLA BLA BLA BLA BLA BLA BLA BLA BLA BLA BLA BLA 
BLA BLA BLA BLA BLA BLA BLA BLA BLA BLA BLA BLA BLA BLA BLA BLA BLA BLA BLA BLA 
BLA BLA BLA BLA BLA BLA BLA BLA BLA BLA BLA BLA BLA BLA BLA BLA BLA BLA BLA BLA 
BLA BLA BLA BLA BLA BLA BLA BLA BLA BLA BLA BLA BLA BLA BLA BLA BLA BLA BLA BLA 
BLA BLA BLA BLA BLA BLA BLA BLA BLA BLA BLA BLA BLA BLA BLA BLA BLA BLA BLA BLA 
BLA BLA BLA BLA BLA BLA BLA BLA BLA BLA BLA BLA BLA BLA BLA BLA BLA BLA BLA BLA 
BLA BLA BLA BLA BLA BLA BLA BLA BLA BLA BLA BLA BLA BLA BLA BLA BLA BLA BLA BLA 
BLA BLA BLA BLA BLA BLA BLA BLA BLA BLA BLA BLA BLA BLA BLA BLA BLA BLA BLA BLA 
BLA BLA BLA BLA BLA BLA BLA BLA BLA BLA BLA BLA BLA BLA BLA BLA BLA BLA BLA BLA 
BLA BLA BLA BLA BLA BLA BLA BLA BLA BLA BLA BLA BLA BLA BLA BLA BLA BLA BLA BLA 
BLA BLA BLA BLA BLA BLA BLA BLA BLA BLA BLA BLA BLA BLA BLA BLA BLA BLA BLA BLA 
BLA BLA BLA BLA BLA BLA BLA BLA BLA BLA BLA BLA BLA BLA BLA BLA BLA BLA BLA BLA 
BLA BLA BLA BLA BLA BLA BLA BLA BLA BLA BLA BLA BLA BLA BLA BLA BLA BLA BLA BLA 
BLA BLA BLA BLA BLA BLA BLA BLA BLA BLA BLA BLA BLA BLA BLA BLA BLA BLA BLA BLA 
BLA BLA BLA BLA BLA BLA BLA BLA BLA BLA BLA BLA BLA BLA BLA BLA BLA BLA BLA BLA 
BLA BLA BLA BLA BLA BLA BLA BLA BLA BLA BLA BLA BLA BLA BLA BLA BLA BLA BLA BLA 
BLA BLA BLA BLA BLA BLA BLA BLA BLA BLA BLA BLA BLA BLA BLA BLA BLA BLA BLA BLA 
BLA BLA BLA BLA BLA BLA BLA BLA BLA BLA BLA BLA BLA BLA BLA BLA BLA BLA BLA BLA 
BLA BLA BLA BLA BLA BLA BLA BLA BLA BLA BLA BLA BLA BLA BLA BLA BLA BLA BLA BLA 
BLA BLA BLA BLA BLA BLA BLA BLA BLA BLA BLA BLA BLA BLA BLA BLA BLA BLA BLA BLA 
BLA BLA BLA BLA BLA BLA BLA BLA BLA BLA BLA BLA BLA BLA BLA BLA BLA BLA BLA BLA 
BLA BLA BLA BLA BLA BLA BLA BLA BLA BLA BLA BLA BLA BLA BLA BLA BLA BLA BLA BLA 
BLA BLA BLA BLA BLA BLA BLA BLA BLA BLA BLA BLA BLA BLA BLA BLA BLA BLA BLA BLA 
BLA BLA BLA BLA BLA BLA BLA BLA BLA BLA BLA BLA BLA BLA BLA BLA BLA BLA BLA BLA 
BLA BLA BLA BLA BLA BLA BLA BLA BLA BLA BLA BLA BLA BLA BLA BLA BLA BLA BLA BLA 
BLA BLA BLA BLA BLA BLA BLA BLA BLA BLA BLA BLA BLA BLA BLA BLA BLA BLA BLA BLA 
BLA BLA BLA BLA BLA BLA BLA BLA BLA BLA BLA BLA BLA BLA BLA BLA BLA BLA BLA BLA 
BLA BLA BLA BLA BLA BLA BLA BLA BLA BLA BLA BLA BLA BLA BLA BLA BLA BLA BLA BLA 
BLA BLA BLA BLA BLA BLA BLA BLA BLA BLA BLA BLA BLA BLA BLA BLA BLA BLA BLA BLA 
BLA BLA BLA BLA BLA BLA BLA BLA BLA BLA BLA BLA BLA BLA BLA BLA BLA BLA BLA BLA 
BLA BLA BLA BLA BLA BLA BLA BLA BLA BLA BLA BLA BLA BLA BLA BLA BLA BLA BLA BLA 
BLA BLA BLA BLA BLA BLA BLA BLA BLA BLA BLA BLA BLA BLA BLA BLA BLA BLA BLA BLA 
BLA BLA BLA BLA BLA BLA BLA BLA BLA BLA BLA BLA BLA BLA BLA BLA BLA BLA BLA BLA 
BLA BLA BLA BLA BLA BLA BLA BLA BLA BLA BLA BLA BLA BLA BLA BLA BLA BLA BLA BLA 
BLA BLA BLA BLA BLA BLA BLA BLA BLA BLA BLA BLA BLA BLA BLA BLA BLA BLA BLA BLA 
BLA BLA BLA BLA BLA BLA BLA BLA BLA BLA BLA BLA BLA BLA BLA BLA BLA BLA BLA BLA 
BLA BLA BLA BLA BLA BLA BLA BLA BLA BLA BLA BLA BLA BLA BLA BLA BLA BLA BLA BLA 
BLA BLA BLA BLA BLA BLA BLA BLA BLA BLA BLA BLA BLA BLA BLA BLA BLA BLA BLA BLA 
BLA BLA BLA BLA BLA BLA BLA BLA BLA BLA BLA BLA BLA BLA BLA BLA BLA BLA BLA BLA 
BLA BLA BLA BLA BLA BLA BLA BLA BLA BLA BLA BLA BLA BLA BLA BLA BLA BLA BLA BLA 
BLA BLA BLA BLA BLA BLA BLA BLA BLA BLA BLA BLA BLA BLA BLA BLA BLA BLA BLA BLA 
BLA BLA BLA BLA BLA BLA BLA BLA BLA BLA BLA BLA BLA BLA BLA BLA BLA BLA BLA BLA 
BLA BLA BLA BLA BLA BLA BLA BLA BLA BLA BLA BLA BLA BLA BLA BLA BLA BLA BLA BLA 
BLA BLA BLA BLA BLA BLA BLA BLA BLA BLA BLA BLA BLA BLA BLA BLA BLA BLA BLA BLA 
BLA BLA BLA BLA BLA BLA BLA BLA BLA BLA BLA BLA BLA BLA BLA BLA BLA BLA BLA BLA 
BLA BLA BLA BLA BLA BLA BLA BLA BLA BLA BLA BLA BLA BLA BLA BLA BLA BLA BLA BLA 
BLA BLA BLA BLA BLA BLA BLA BLA BLA BLA BLA BLA BLA BLA BLA BLA BLA BLA BLA BLA 
BLA BLA BLA BLA BLA BLA BLA BLA BLA BLA BLA BLA BLA BLA BLA BLA BLA BLA BLA BLA 
BLA BLA BLA BLA BLA BLA BLA BLA BLA BLA BLA BLA BLA BLA BLA BLA BLA BLA BLA BLA 
BLA BLA BLA BLA BLA BLA BLA BLA BLA BLA BLA BLA BLA BLA BLA BLA BLA BLA BLA BLA 
BLA BLA BLA BLA BLA BLA BLA BLA BLA BLA BLA BLA BLA BLA BLA BLA BLA BLA BLA BLA 
BLA BLA BLA BLA BLA BLA BLA BLA BLA BLA BLA BLA BLA BLA BLA BLA BLA BLA BLA BLA 
BLA BLA BLA BLA BLA BLA BLA BLA BLA BLA BLA BLA BLA BLA BLA BLA BLA BLA BLA BLA 
BLA BLA BLA BLA BLA BLA BLA BLA BLA BLA BLA BLA BLA BLA BLA BLA BLA BLA BLA BLA 
BLA BLA BLA BLA BLA BLA BLA BLA BLA BLA BLA BLA BLA BLA BLA BLA BLA BLA BLA BLA 
BLA BLA BLA BLA BLA BLA BLA BLA BLA BLA BLA BLA BLA BLA BLA BLA BLA BLA BLA BLA 
BLA BLA BLA BLA BLA BLA BLA BLA BLA BLA BLA BLA BLA BLA BLA BLA BLA BLA BLA BLA 
BLA BLA BLA BLA BLA BLA BLA BLA BLA BLA BLA BLA BLA BLA BLA BLA BLA BLA BLA BLA 
BLA BLA BLA BLA BLA BLA BLA BLA BLA BLA BLA BLA BLA BLA BLA BLA BLA BLA BLA BLA 
BLA BLA BLA BLA BLA BLA BLA BLA BLA BLA BLA BLA BLA BLA BLA BLA BLA BLA BLA BLA 
BLA BLA BLA BLA BLA BLA BLA BLA BLA BLA BLA BLA BLA BLA BLA BLA BLA BLA BLA BLA 
BLA BLA BLA BLA BLA BLA BLA BLA BLA BLA BLA BLA BLA BLA BLA BLA BLA BLA BLA BLA 
BLA BLA BLA BLA BLA BLA BLA BLA BLA BLA BLA BLA BLA BLA BLA BLA BLA BLA BLA BLA 
BLA BLA BLA BLA BLA BLA BLA BLA BLA BLA BLA BLA BLA BLA BLA BLA BLA BLA BLA BLA 
BLA BLA BLA BLA BLA BLA BLA BLA BLA BLA BLA BLA BLA BLA BLA BLA BLA BLA BLA BLA 
BLA BLA BLA BLA BLA BLA BLA BLA BLA BLA BLA BLA BLA BLA BLA BLA BLA BLA BLA BLA 
BLA BLA BLA BLA BLA BLA BLA BLA BLA BLA BLA BLA BLA BLA BLA BLA BLA BLA BLA BLA 
BLA BLA BLA BLA BLA BLA BLA BLA BLA BLA BLA BLA BLA BLA BLA BLA BLA BLA BLA BLA 
BLA BLA BLA BLA BLA BLA BLA BLA BLA BLA BLA BLA BLA BLA BLA BLA BLA BLA BLA BLA 
BLA BLA BLA BLA BLA BLA BLA BLA BLA BLA BLA BLA BLA BLA BLA BLA BLA BLA BLA BLA 
BLA BLA BLA BLA BLA BLA BLA BLA BLA BLA BLA BLA BLA BLA BLA BLA BLA BLA BLA BLA 
BLA BLA BLA BLA BLA BLA BLA BLA BLA BLA BLA BLA BLA BLA BLA BLA BLA BLA BLA BLA 
BLA BLA BLA BLA BLA BLA BLA BLA BLA BLA BLA BLA BLA BLA BLA BLA BLA BLA BLA BLA 
BLA BLA BLA BLA BLA BLA BLA BLA BLA BLA BLA BLA BLA BLA BLA BLA BLA BLA BLA BLA 
BLA BLA BLA BLA BLA BLA BLA BLA BLA BLA BLA BLA BLA BLA BLA BLA BLA BLA BLA BLA 
BLA BLA BLA BLA BLA BLA BLA BLA BLA BLA BLA BLA BLA BLA BLA BLA BLA BLA BLA BLA 
BLA BLA BLA BLA BLA BLA BLA BLA BLA BLA BLA BLA BLA BLA BLA BLA BLA BLA BLA BLA 
BLA BLA BLA BLA BLA BLA BLA BLA BLA BLA BLA BLA BLA BLA BLA BLA BLA BLA BLA BLA 
BLA BLA BLA BLA BLA BLA BLA BLA BLA BLA BLA BLA BLA BLA BLA BLA BLA BLA BLA BLA 
BLA BLA BLA BLA BLA BLA BLA BLA BLA BLA BLA BLA BLA BLA BLA BLA BLA BLA BLA BLA 
BLA BLA BLA BLA BLA BLA BLA BLA BLA BLA BLA BLA BLA BLA BLA BLA BLA BLA BLA BLA 
BLA BLA BLA BLA BLA BLA BLA BLA BLA BLA BLA BLA BLA BLA BLA BLA BLA BLA BLA BLA 
BLA BLA BLA BLA BLA BLA BLA BLA BLA BLA BLA BLA BLA BLA BLA BLA BLA BLA BLA BLA 
BLA BLA BLA BLA BLA BLA BLA BLA BLA BLA BLA BLA BLA BLA BLA BLA BLA BLA BLA BLA 
BLA BLA BLA BLA BLA BLA BLA BLA BLA BLA BLA BLA BLA BLA BLA BLA BLA BLA BLA BLA 
BLA BLA BLA BLA BLA BLA BLA BLA BLA BLA BLA BLA BLA BLA BLA BLA BLA BLA BLA BLA 
BLA BLA BLA BLA BLA BLA BLA BLA BLA BLA BLA BLA BLA BLA BLA BLA BLA BLA BLA BLA 
BLA BLA BLA BLA BLA BLA BLA BLA BLA BLA BLA BLA BLA BLA BLA BLA BLA BLA BLA BLA 
BLA BLA BLA BLA BLA BLA BLA BLA BLA BLA BLA BLA BLA BLA BLA BLA BLA BLA BLA BLA 
BLA BLA BLA BLA BLA BLA BLA BLA BLA BLA BLA BLA BLA BLA BLA BLA BLA BLA BLA BLA 
BLA BLA BLA BLA BLA BLA BLA BLA BLA BLA BLA BLA BLA BLA BLA BLA BLA BLA BLA BLA 
BLA BLA BLA BLA BLA BLA BLA BLA BLA BLA BLA BLA BLA BLA BLA BLA BLA BLA BLA BLA 
BLA BLA BLA BLA BLA BLA BLA BLA BLA BLA BLA BLA BLA BLA BLA BLA BLA BLA BLA BLA 
BLA BLA BLA BLA BLA BLA BLA BLA BLA BLA BLA BLA BLA BLA BLA BLA BLA BLA BLA BLA 
BLA BLA BLA BLA BLA BLA BLA BLA BLA BLA BLA BLA BLA BLA BLA BLA BLA BLA BLA BLA 
BLA BLA BLA BLA BLA BLA BLA BLA BLA BLA BLA BLA BLA BLA BLA BLA BLA BLA BLA BLA 
BLA BLA BLA BLA BLA BLA BLA BLA BLA BLA BLA BLA BLA BLA BLA BLA BLA BLA BLA BLA 
BLA BLA BLA BLA BLA BLA BLA BLA BLA BLA BLA BLA BLA BLA BLA BLA BLA BLA BLA BLA 
BLA BLA BLA BLA BLA BLA BLA BLA BLA BLA BLA BLA BLA BLA BLA BLA BLA BLA BLA BLA 
BLA BLA BLA BLA BLA BLA BLA BLA BLA BLA BLA BLA BLA BLA BLA BLA BLA BLA BLA BLA 
BLA BLA BLA BLA BLA BLA BLA BLA BLA BLA BLA BLA BLA BLA BLA BLA BLA BLA BLA BLA 
BLA BLA BLA BLA BLA BLA BLA BLA BLA BLA BLA BLA BLA BLA BLA BLA BLA BLA BLA BLA 
BLA BLA BLA BLA BLA BLA BLA BLA BLA BLA BLA BLA BLA BLA BLA BLA BLA BLA BLA BLA 
BLA BLA BLA BLA BLA BLA BLA BLA BLA BLA BLA BLA BLA BLA BLA BLA BLA BLA BLA BLA 
BLA BLA BLA BLA BLA BLA BLA BLA BLA BLA BLA BLA BLA BLA BLA BLA BLA BLA BLA BLA 
BLA BLA BLA BLA BLA BLA BLA BLA BLA BLA BLA BLA BLA BLA BLA BLA BLA BLA BLA BLA 
BLA BLA BLA BLA BLA BLA BLA BLA BLA BLA BLA BLA BLA BLA BLA BLA BLA BLA BLA BLA 
BLA BLA BLA BLA BLA BLA BLA BLA BLA BLA BLA BLA BLA BLA BLA BLA BLA BLA BLA BLA 
BLA BLA BLA BLA BLA BLA BLA BLA BLA BLA BLA BLA BLA BLA BLA BLA BLA BLA BLA BLA 
BLA BLA BLA BLA BLA BLA BLA BLA BLA BLA BLA BLA BLA BLA BLA BLA BLA BLA BLA BLA 
BLA BLA BLA BLA BLA BLA BLA BLA BLA BLA BLA BLA BLA BLA BLA BLA BLA BLA BLA BLA 
BLA BLA BLA BLA BLA BLA BLA BLA BLA BLA BLA BLA BLA BLA BLA BLA BLA BLA BLA BLA 
BLA BLA BLA BLA BLA BLA BLA BLA BLA BLA BLA BLA BLA BLA BLA BLA BLA BLA BLA BLA 
BLA BLA BLA BLA BLA BLA BLA BLA BLA BLA BLA BLA BLA BLA BLA BLA BLA BLA BLA BLA 
BLA BLA BLA BLA BLA BLA BLA BLA BLA BLA BLA BLA BLA BLA BLA BLA BLA BLA BLA BLA 
BLA BLA BLA BLA BLA BLA BLA BLA BLA BLA BLA BLA BLA BLA BLA BLA BLA BLA BLA BLA 
BLA BLA BLA BLA BLA BLA BLA BLA BLA BLA BLA BLA BLA BLA BLA BLA BLA BLA BLA BLA 
BLA BLA BLA BLA BLA BLA BLA BLA BLA BLA BLA BLA BLA BLA BLA BLA BLA BLA BLA BLA 
BLA BLA BLA BLA BLA BLA BLA BLA BLA BLA BLA BLA BLA BLA BLA BLA BLA BLA BLA BLA 
BLA BLA BLA BLA BLA BLA BLA BLA BLA BLA BLA BLA BLA BLA BLA BLA BLA BLA BLA BLA 
BLA BLA BLA BLA BLA BLA BLA BLA BLA BLA BLA BLA BLA BLA BLA BLA BLA BLA BLA BLA 
BLA BLA BLA BLA BLA BLA BLA BLA BLA BLA BLA BLA BLA BLA BLA BLA BLA BLA BLA BLA 
BLA BLA BLA BLA BLA BLA BLA BLA BLA BLA BLA BLA BLA BLA BLA BLA BLA BLA BLA BLA 
BLA BLA BLA BLA BLA BLA BLA BLA BLA BLA BLA BLA BLA BLA BLA BLA BLA BLA BLA BLA 
BLA BLA BLA BLA BLA BLA BLA BLA BLA BLA BLA BLA BLA BLA BLA BLA BLA BLA BLA BLA 
BLA BLA BLA BLA BLA BLA BLA BLA BLA BLA BLA BLA BLA BLA BLA BLA BLA BLA BLA BLA 
BLA BLA BLA BLA BLA BLA BLA BLA BLA BLA BLA BLA BLA BLA BLA BLA BLA BLA BLA BLA 
BLA BLA BLA BLA BLA BLA BLA BLA BLA BLA BLA BLA BLA BLA BLA BLA BLA BLA BLA BLA 
BLA BLA BLA BLA BLA BLA BLA BLA BLA BLA BLA BLA BLA BLA BLA BLA BLA BLA BLA BLA 
BLA BLA BLA BLA BLA BLA BLA BLA BLA BLA BLA BLA BLA BLA BLA BLA BLA BLA BLA BLA 
BLA BLA BLA BLA BLA BLA BLA BLA BLA BLA BLA BLA BLA BLA BLA BLA BLA BLA BLA BLA 
BLA BLA BLA BLA BLA BLA BLA BLA BLA BLA BLA BLA BLA BLA BLA BLA BLA BLA BLA BLA 
BLA BLA BLA BLA BLA BLA BLA BLA BLA BLA BLA BLA BLA BLA BLA BLA BLA BLA BLA BLA 
BLA BLA BLA BLA BLA BLA BLA BLA BLA BLA BLA BLA BLA BLA BLA BLA BLA BLA BLA BLA 
BLA BLA BLA BLA BLA BLA BLA BLA BLA BLA BLA BLA BLA BLA BLA BLA BLA BLA BLA BLA 
BLA BLA BLA BLA BLA BLA BLA BLA BLA BLA BLA BLA BLA BLA BLA BLA BLA BLA BLA BLA 
BLA BLA BLA BLA BLA BLA BLA BLA BLA BLA BLA BLA BLA BLA BLA BLA BLA BLA BLA BLA 
BLA BLA BLA BLA BLA BLA BLA BLA BLA BLA BLA BLA BLA BLA BLA BLA BLA BLA BLA BLA 
BLA BLA BLA BLA BLA BLA BLA BLA BLA BLA BLA BLA BLA BLA BLA BLA BLA BLA BLA BLA 
BLA BLA BLA BLA BLA BLA BLA BLA BLA BLA BLA BLA BLA BLA BLA BLA BLA BLA BLA BLA 
BLA BLA BLA BLA BLA BLA BLA BLA BLA BLA BLA BLA BLA BLA BLA BLA BLA BLA BLA BLA 
BLA BLA BLA BLA BLA BLA BLA BLA BLA BLA BLA BLA BLA BLA BLA BLA BLA BLA BLA BLA 
BLA BLA BLA BLA BLA BLA BLA BLA BLA BLA BLA BLA BLA BLA BLA BLA BLA BLA BLA BLA 
BLA BLA BLA BLA BLA BLA BLA BLA BLA BLA BLA BLA BLA BLA BLA BLA BLA BLA BLA BLA 
BLA BLA BLA BLA BLA BLA BLA BLA BLA BLA BLA BLA BLA BLA BLA BLA BLA BLA BLA BLA 
BLA BLA BLA BLA BLA BLA BLA BLA BLA BLA BLA BLA BLA BLA BLA BLA BLA BLA BLA BLA 
BLA BLA BLA BLA BLA BLA BLA BLA BLA BLA BLA BLA BLA BLA BLA BLA BLA BLA BLA BLA 
BLA BLA BLA BLA BLA BLA BLA BLA BLA BLA BLA BLA BLA BLA BLA BLA BLA BLA BLA BLA 
BLA BLA BLA BLA BLA BLA BLA BLA BLA BLA BLA BLA BLA BLA BLA BLA BLA BLA BLA BLA 
BLA BLA BLA BLA BLA BLA BLA BLA BLA BLA BLA BLA BLA BLA BLA BLA BLA BLA BLA BLA 
BLA BLA BLA BLA BLA BLA BLA BLA BLA BLA BLA BLA BLA BLA BLA BLA BLA BLA BLA BLA 
BLA BLA BLA BLA BLA BLA BLA BLA BLA BLA BLA BLA BLA BLA BLA BLA BLA BLA BLA BLA 
BLA BLA BLA BLA BLA BLA BLA BLA BLA BLA BLA BLA BLA BLA BLA BLA BLA BLA BLA BLA 
BLA BLA BLA BLA BLA BLA BLA BLA BLA BLA BLA BLA BLA BLA BLA BLA BLA BLA BLA BLA 
BLA BLA BLA BLA BLA BLA BLA BLA BLA BLA BLA BLA BLA BLA BLA BLA BLA BLA BLA BLA 
BLA BLA BLA BLA BLA BLA BLA BLA BLA BLA BLA BLA BLA BLA BLA BLA BLA BLA BLA BLA 
BLA BLA BLA BLA BLA BLA BLA BLA BLA BLA BLA BLA BLA BLA BLA BLA BLA BLA BLA BLA 
BLA BLA BLA BLA BLA BLA BLA BLA BLA BLA BLA BLA BLA BLA BLA BLA BLA BLA BLA BLA 
BLA BLA BLA BLA BLA BLA BLA BLA BLA BLA BLA BLA BLA BLA BLA BLA BLA BLA BLA BLA 
BLA BLA BLA BLA BLA BLA BLA BLA BLA BLA BLA BLA BLA BLA BLA BLA BLA BLA BLA BLA 
BLA BLA BLA BLA BLA BLA BLA BLA BLA BLA BLA BLA BLA BLA BLA BLA BLA BLA BLA BLA 
BLA BLA BLA BLA BLA BLA BLA BLA BLA BLA BLA BLA BLA BLA BLA BLA BLA BLA BLA BLA 
BLA BLA BLA BLA BLA BLA BLA BLA BLA BLA BLA BLA BLA BLA BLA BLA BLA BLA BLA BLA 
BLA BLA BLA BLA BLA BLA BLA BLA BLA BLA BLA BLA BLA BLA BLA BLA BLA BLA BLA BLA 
BLA BLA BLA BLA BLA BLA BLA BLA BLA BLA BLA BLA BLA BLA BLA BLA BLA BLA BLA BLA 
BLA BLA BLA BLA BLA BLA BLA BLA BLA BLA BLA BLA BLA BLA BLA BLA BLA BLA BLA BLA 
BLA BLA BLA BLA BLA BLA BLA BLA BLA BLA BLA BLA BLA BLA BLA BLA BLA BLA BLA BLA 
BLA BLA BLA BLA BLA BLA BLA BLA BLA BLA BLA BLA BLA BLA BLA BLA BLA BLA BLA BLA 
BLA BLA BLA BLA BLA BLA BLA BLA BLA BLA BLA BLA BLA BLA BLA BLA BLA BLA BLA BLA 
BLA BLA BLA BLA BLA BLA BLA BLA BLA BLA BLA BLA BLA BLA BLA BLA BLA BLA BLA BLA 
BLA BLA BLA BLA BLA BLA BLA BLA BLA BLA BLA BLA BLA BLA BLA BLA BLA BLA BLA BLA 
BLA BLA BLA BLA BLA BLA BLA BLA BLA BLA BLA BLA BLA BLA BLA BLA BLA BLA BLA BLA 
BLA BLA BLA BLA BLA BLA BLA BLA BLA BLA BLA BLA BLA BLA BLA BLA BLA BLA BLA BLA 
BLA BLA BLA BLA BLA BLA BLA BLA BLA BLA BLA BLA BLA BLA BLA BLA BLA BLA BLA BLA 
BLA BLA BLA BLA BLA BLA BLA BLA BLA BLA BLA BLA BLA BLA BLA BLA BLA BLA BLA BLA 
BLA BLA BLA BLA BLA BLA BLA BLA BLA BLA BLA BLA BLA BLA BLA BLA BLA BLA BLA BLA 
BLA BLA BLA BLA BLA BLA BLA BLA BLA BLA BLA BLA BLA BLA BLA BLA BLA BLA BLA BLA 
BLA BLA BLA BLA BLA BLA BLA BLA BLA BLA BLA BLA BLA BLA BLA BLA BLA BLA BLA BLA 
BLA BLA BLA BLA BLA BLA BLA BLA BLA BLA BLA BLA BLA BLA BLA BLA BLA BLA BLA BLA 
BLA BLA BLA BLA BLA BLA BLA BLA BLA BLA BLA BLA BLA BLA BLA BLA BLA BLA BLA BLA 
BLA BLA BLA BLA BLA BLA BLA BLA BLA BLA BLA BLA BLA BLA BLA BLA BLA BLA BLA BLA 
BLA BLA BLA BLA BLA BLA BLA BLA BLA BLA BLA BLA BLA BLA BLA BLA BLA BLA BLA BLA 
BLA BLA BLA BLA BLA BLA BLA BLA BLA BLA BLA BLA BLA BLA BLA BLA BLA BLA BLA BLA 
BLA BLA BLA BLA BLA BLA BLA BLA BLA BLA BLA BLA BLA BLA BLA BLA BLA BLA BLA BLA 
BLA BLA BLA BLA BLA BLA BLA BLA BLA BLA BLA BLA BLA BLA BLA BLA BLA BLA BLA BLA 
BLA BLA BLA BLA BLA BLA BLA BLA BLA BLA BLA BLA BLA BLA BLA BLA BLA BLA BLA BLA 
BLA BLA BLA BLA BLA BLA BLA BLA BLA BLA BLA BLA BLA BLA BLA BLA BLA BLA BLA BLA 
BLA BLA BLA BLA BLA BLA BLA BLA BLA BLA BLA BLA BLA BLA BLA BLA BLA BLA BLA BLA 
BLA BLA BLA BLA BLA BLA BLA BLA BLA BLA BLA BLA BLA BLA BLA BLA BLA BLA BLA BLA 
BLA BLA BLA BLA BLA BLA BLA BLA BLA BLA BLA BLA BLA BLA BLA BLA BLA BLA BLA BLA 
BLA BLA BLA BLA BLA BLA BLA BLA BLA BLA BLA BLA BLA BLA BLA BLA BLA BLA BLA BLA 
BLA BLA BLA BLA BLA BLA BLA BLA BLA BLA BLA BLA BLA BLA BLA BLA BLA BLA BLA BLA 
BLA BLA BLA BLA BLA BLA BLA BLA BLA BLA BLA BLA BLA BLA BLA BLA BLA BLA BLA BLA 
BLA BLA BLA BLA BLA BLA BLA BLA BLA BLA BLA BLA BLA BLA BLA BLA BLA BLA BLA BLA 
BLA BLA BLA BLA BLA BLA BLA BLA BLA BLA BLA BLA BLA BLA BLA BLA BLA BLA BLA BLA 
BLA BLA BLA BLA BLA BLA BLA BLA BLA BLA BLA BLA BLA BLA BLA BLA BLA BLA BLA BLA 
BLA BLA BLA BLA BLA BLA BLA BLA BLA BLA BLA BLA BLA BLA BLA BLA BLA BLA BLA BLA 
BLA BLA BLA BLA BLA BLA BLA BLA BLA BLA BLA BLA BLA BLA BLA BLA BLA BLA BLA BLA 
BLA BLA BLA BLA BLA BLA BLA BLA BLA BLA BLA BLA BLA BLA BLA BLA BLA BLA BLA BLA 
BLA BLA BLA BLA BLA BLA BLA BLA BLA BLA BLA BLA BLA BLA BLA BLA BLA BLA BLA BLA 
BLA BLA BLA BLA BLA BLA BLA BLA BLA BLA BLA BLA BLA BLA BLA BLA BLA BLA BLA BLA 
BLA BLA BLA BLA BLA BLA BLA BLA BLA BLA BLA BLA BLA BLA BLA BLA BLA BLA BLA BLA 
BLA BLA BLA BLA BLA BLA BLA BLA BLA BLA BLA BLA BLA BLA BLA BLA BLA BLA BLA BLA 
BLA BLA BLA BLA BLA BLA BLA BLA BLA BLA BLA BLA BLA BLA BLA BLA BLA BLA BLA BLA 
BLA BLA BLA BLA BLA BLA BLA BLA BLA BLA BLA BLA BLA BLA BLA BLA BLA BLA BLA BLA 
BLA BLA BLA BLA BLA BLA BLA BLA BLA BLA BLA BLA BLA BLA BLA BLA BLA BLA BLA BLA 
BLA BLA BLA BLA BLA BLA BLA BLA BLA BLA BLA BLA BLA BLA BLA BLA BLA BLA BLA BLA 
BLA BLA BLA BLA BLA BLA BLA BLA BLA BLA BLA BLA BLA BLA BLA BLA BLA BLA BLA BLA 
BLA BLA BLA BLA BLA BLA BLA BLA BLA BLA BLA BLA BLA BLA BLA BLA BLA BLA BLA BLA 
BLA BLA BLA BLA BLA BLA BLA BLA BLA BLA BLA BLA BLA BLA BLA BLA BLA BLA BLA BLA 
BLA BLA BLA BLA BLA BLA BLA BLA BLA BLA BLA BLA BLA BLA BLA BLA BLA BLA BLA BLA 
BLA BLA BLA BLA BLA BLA BLA BLA BLA BLA BLA BLA BLA BLA BLA BLA BLA BLA BLA BLA 
BLA BLA BLA BLA BLA BLA BLA BLA BLA BLA BLA BLA BLA BLA BLA BLA BLA BLA BLA BLA 
BLA BLA BLA BLA BLA BLA BLA BLA BLA BLA BLA BLA BLA BLA BLA BLA BLA BLA BLA BLA 
BLA BLA BLA BLA BLA BLA BLA BLA BLA BLA BLA BLA BLA BLA BLA BLA BLA BLA BLA BLA 
BLA BLA BLA BLA BLA BLA BLA BLA BLA BLA BLA BLA BLA BLA BLA BLA BLA BLA BLA BLA 
BLA BLA BLA BLA BLA BLA BLA BLA BLA BLA BLA BLA BLA BLA BLA BLA BLA BLA BLA BLA 
BLA BLA BLA BLA BLA BLA BLA BLA BLA BLA BLA BLA BLA BLA BLA BLA BLA BLA BLA BLA 
BLA BLA BLA BLA BLA BLA BLA BLA BLA BLA BLA BLA BLA BLA BLA BLA BLA BLA BLA BLA 
BLA BLA BLA BLA BLA BLA BLA BLA BLA BLA BLA BLA BLA BLA BLA BLA BLA BLA BLA BLA 
BLA BLA BLA BLA BLA BLA BLA BLA BLA BLA BLA BLA BLA BLA BLA BLA BLA BLA BLA BLA 
BLA BLA BLA BLA BLA BLA BLA BLA BLA BLA BLA BLA BLA BLA BLA BLA BLA BLA BLA BLA 
BLA BLA BLA BLA BLA BLA BLA BLA BLA BLA BLA BLA BLA BLA BLA BLA BLA BLA BLA BLA 
BLA BLA BLA BLA BLA BLA BLA BLA BLA BLA BLA BLA BLA BLA BLA BLA BLA BLA BLA BLA 
BLA BLA BLA BLA BLA BLA BLA BLA BLA BLA BLA BLA BLA BLA BLA BLA BLA BLA BLA BLA 
BLA BLA BLA BLA BLA BLA BLA BLA BLA BLA BLA BLA BLA BLA BLA BLA BLA BLA BLA BLA 
BLA BLA BLA BLA BLA BLA BLA BLA BLA BLA BLA BLA BLA BLA BLA BLA BLA BLA BLA BLA 
BLA BLA BLA BLA BLA BLA BLA BLA BLA BLA BLA BLA BLA BLA BLA BLA BLA BLA BLA BLA 
BLA BLA BLA BLA BLA BLA BLA BLA BLA BLA BLA BLA BLA BLA BLA BLA BLA BLA BLA BLA 
BLA BLA BLA BLA BLA BLA BLA BLA BLA BLA BLA BLA BLA BLA BLA BLA BLA BLA BLA BLA 
BLA BLA BLA BLA BLA BLA BLA BLA BLA BLA BLA BLA BLA BLA BLA BLA BLA BLA BLA BLA 
BLA BLA BLA BLA BLA BLA BLA BLA BLA BLA BLA BLA BLA BLA BLA BLA BLA BLA BLA BLA 
BLA BLA BLA BLA BLA BLA BLA BLA BLA BLA BLA BLA BLA BLA BLA BLA BLA BLA BLA BLA 
BLA BLA BLA BLA BLA BLA BLA BLA BLA BLA BLA BLA BLA BLA BLA BLA BLA BLA BLA BLA 
BLA BLA BLA BLA BLA BLA BLA BLA BLA 
%FLAG JOIN_ARRAY                                                                
%FORMAT(10I8)                                                                   
       0       0       0       0       0       0       0       0       0       0
       0       0       0       0       0       0       0       0       0       0
       0       0       0       0       0       0       0       0       0       0
       0       0       0       0       0       0       0       0       0       0
       0       0       0       0       0       0       0       0       0       0
       0       0       0       0       0       0       0       0       0       0
       0       0       0       0       0       0       0       0       0       0
       0       0       0       0       0       0       0       0       0       0
       0       0       0       0       0       0       0       0       0       0
       0       0       0       0       0       0       0       0       0       0
       0       0       0       0       0       0       0       0       0       0
       0       0       0       0       0       0       0       0       0       0
       0       0       0       0       0       0       0       0       0       0
       0       0       0       0       0       0       0       0       0       0
       0       0       0       0       0       0       0       0       0       0
       0       0       0       0       0       0       0       0       0       0
       0       0       0       0       0       0       0       0       0       0
       0       0       0       0       0       0       0       0       0       0
       0       0       0       0       0       0       0       0       0       0
       0       0       0       0       0       0       0       0       0       0
       0       0       0       0       0       0       0       0       0       0
       0       0       0       0       0       0       0       0       0       0
       0       0       0       0       0       0       0       0       0       0
       0       0       0       0       0       0       0       0       0       0
       0       0       0       0       0       0       0       0       0       0
       0       0       0       0       0       0       0       0       0       0
       0       0       0       0       0       0       0       0       0       0
       0       0       0       0       0       0       0       0       0       0
       0       0       0       0       0       0       0       0       0       0
       0       0       0       0       0       0       0       0       0       0
       0       0       0       0       0       0       0       0       0       0
       0       0       0       0       0       0       0       0       0       0
       0       0       0       0       0       0       0       0       0       0
       0       0       0       0       0       0       0       0       0       0
       0       0       0       0       0       0       0       0       0       0
       0       0       0       0       0       0       0       0       0       0
       0       0       0       0       0       0       0       0       0       0
       0       0       0       0       0       0       0       0       0       0
       0       0       0       0       0       0       0       0       0       0
       0       0       0       0       0       0       0       0       0       0
       0       0       0       0       0       0       0       0       0       0
       0       0       0       0       0       0       0       0       0       0
       0       0       0       0       0       0       0       0       0       0
       0       0       0       0       0       0       0       0       0       0
       0       0       0       0       0       0       0       0       0       0
       0       0       0       0       0       0       0       0       0       0
       0       0       0       0       0       0       0       0       0       0
       0       0       0       0       0       0       0       0       0       0
       0       0       0       0       0       0       0       0       0       0
       0       0       0       0       0       0       0       0       0       0
       0       0       0       0       0       0       0       0       0       0
       0       0       0       0       0       0       0       0       0       0
       0       0       0       0       0       0       0       0       0       0
       0       0       0       0       0       0       0       0       0       0
       0       0       0       0       0       0       0       0       0       0
       0       0       0       0       0       0       0       0       0       0
       0       0       0       0       0       0       0       0       0       0
       0       0       0       0       0       0       0       0       0       0
       0       0       0       0       0       0       0       0       0       0
       0       0       0       0       0       0       0       0       0       0
       0       0       0       0       0       0       0       0       0       0
       0       0       0       0       0       0       0       0       0       0
       0       0       0       0       0       0       0       0       0       0
       0       0       0       0       0       0       0       0       0       0
       0       0       0       0       0       0       0       0       0       0
       0       0       0       0       0       0       0       0       0       0
       0       0       0       0       0       0       0       0       0       0
       0       0       0       0       0       0       0       0       0       0
       0       0       0       0       0       0       0       0       0       0
       0       0       0       0       0       0       0       0       0       0
       0       0       0       0       0       0       0       0       0       0
       0       0       0       0       0       0       0       0       0       0
       0       0       0       0       0       0       0       0       0       0
       0       0       0       0       0       0       0       0       0       0
       0       0       0       0       0       0       0       0       0       0
       0       0       0       0       0       0       0       0       0       0
       0       0       0       0       0       0       0       0       0       0
       0       0       0       0       0       0       0       0       0       0
       0       0       0       0       0       0       0       0       0       0
       0       0       0       0       0       0       0       0       0       0
       0       0       0       0       0       0       0       0       0       0
       0       0       0       0       0       0       0       0       0       0
       0       0       0       0       0       0       0       0       0       0
       0       0       0       0       0       0       0       0       0       0
       0       0       0       0       0       0       0       0       0       0
       0       0       0       0       0       0       0       0       0       0
       0       0       0       0       0       0       0       0       0       0
       0       0       0       0       0       0       0       0       0       0
       0       0       0       0       0       0       0       0       0       0
       0       0       0       0       0       0       0       0       0       0
       0       0       0       0       0       0       0       0       0       0
       0       0       0       0       0       0       0       0       0       0
       0       0       0       0       0       0       0       0       0       0
       0       0       0       0       0       0       0       0       0       0
       0       0       0       0       0       0       0       0       0       0
       0       0       0       0       0       0       0       0       0       0
       0       0       0       0       0       0       0       0       0       0
       0       0       0       0       0       0       0       0       0       0
       0       0       0       0       0       0       0       0       0       0
       0       0       0       0       0       0       0       0       0       0
       0       0       0       0       0       0       0       0       0       0
       0       0       0       0       0       0       0       0       0       0
       0       0       0       0       0       0       0       0       0       0
       0       0       0       0       0       0       0       0       0       0
       0       0       0       0       0       0       0       0       0       0
       0       0       0       0       0       0       0       0       0       0
       0       0       0       0       0       0       0       0       0       0
       0       0       0       0       0       0       0       0       0       0
       0       0       0       0       0       0       0       0       0       0
       0       0       0       0       0       0       0       0       0       0
       0       0       0       0       0       0       0       0       0       0
       0       0       0       0       0       0       0       0       0       0
       0       0       0       0       0       0       0       0       0       0
       0       0       0       0       0       0       0       0       0       0
       0       0       0       0       0       0       0       0       0       0
       0       0       0       0       0       0       0       0       0       0
       0       0       0       0       0       0       0       0       0       0
       0       0       0       0       0       0       0       0       0       0
       0       0       0       0       0       0       0       0       0       0
       0       0       0       0       0       0       0       0       0       0
       0       0       0       0       0       0       0       0       0       0
       0       0       0       0       0       0       0       0       0       0
       0       0       0       0       0       0       0       0       0       0
       0       0       0       0       0       0       0       0       0       0
       0       0       0       0       0       0       0       0       0       0
       0       0       0       0       0       0       0       0       0       0
       0       0       0       0       0       0       0       0       0       0
       0       0       0       0       0       0       0       0       0       0
       0       0       0       0       0       0       0       0       0       0
       0       0       0       0       0       0       0       0       0       0
       0       0       0       0       0       0       0       0       0       0
       0       0       0       0       0       0       0       0       0       0
       0       0       0       0       0       0       0       0       0       0
       0       0       0       0       0       0       0       0       0       0
       0       0       0       0       0       0       0       0       0       0
       0       0       0       0       0       0       0       0       0       0
       0       0       0       0       0       0       0       0       0       0
       0       0       0       0       0       0       0       0       0       0
       0       0       0       0       0       0       0       0       0       0
       0       0       0       0       0       0       0       0       0       0
       0       0       0       0       0       0       0       0       0       0
       0       0       0       0       0       0       0       0       0       0
       0       0       0       0       0       0       0       0       0       0
       0       0       0       0       0       0       0       0       0       0
       0       0       0       0       0       0       0       0       0       0
       0       0       0       0       0       0       0       0       0       0
       0       0       0       0       0       0       0       0       0       0
       0       0       0       0       0       0       0       0       0       0
       0       0       0       0       0       0       0       0       0       0
       0       0       0       0       0       0       0       0       0       0
       0       0       0       0       0       0       0       0       0       0
       0       0       0       0       0       0       0       0       0       0
       0       0       0       0       0       0       0       0       0       0
       0       0       0       0       0       0       0       0       0       0
       0       0       0       0       0       0       0       0       0       0
       0       0       0       0       0       0       0       0       0       0
       0       0       0       0       0       0       0       0       0       0
       0       0       0       0       0       0       0       0       0       0
       0       0       0       0       0       0       0       0       0       0
       0       0       0       0       0       0       0       0       0       0
       0       0       0       0       0       0       0       0       0       0
       0       0       0       0       0       0       0       0       0       0
       0       0       0       0       0       0       0       0       0       0
       0       0       0       0       0       0       0       0       0       0
       0       0       0       0       0       0       0       0       0       0
       0       0       0       0       0       0       0       0       0       0
       0       0       0       0       0       0       0       0       0       0
       0       0       0       0       0       0       0       0       0       0
       0       0       0       0       0       0       0       0       0       0
       0       0       0       0       0       0       0       0       0       0
       0       0       0       0       0       0       0       0       0       0
       0       0       0       0       0       0       0       0       0       0
       0       0       0       0       0       0       0       0       0       0
       0       0       0       0       0       0       0       0       0       0
       0       0       0       0       0       0       0       0       0       0
       0       0       0       0       0       0       0       0       0       0
       0       0       0       0       0       0       0       0       0       0
       0       0       0       0       0       0       0       0       0       0
       0       0       0       0       0       0       0       0       0       0
       0       0       0       0       0       0       0       0       0       0
       0       0       0       0       0       0       0       0       0       0
       0       0       0       0       0       0       0       0       0       0
       0       0       0       0       0       0       0       0       0       0
       0       0       0       0       0       0       0       0       0       0
       0       0       0       0       0       0       0       0       0       0
       0       0       0       0       0       0       0       0       0       0
       0       0       0       0       0       0       0       0       0       0
       0       0       0       0       0       0       0       0       0       0
       0       0       0       0       0       0       0       0       0       0
       0       0       0       0       0       0       0       0       0       0
       0       0       0       0       0       0       0       0       0       0
       0       0       0       0       0       0       0       0       0       0
       0       0       0       0       0       0       0       0       0       0
       0       0       0       0       0       0       0       0       0       0
       0       0       0       0       0       0       0       0       0       0
       0       0       0       0       0       0       0       0       0       0
       0       0       0       0       0       0       0       0       0       0
       0       0       0       0       0       0       0       0       0       0
       0       0       0       0       0       0       0       0       0       0
       0       0       0       0       0       0       0       0       0       0
       0       0       0       0       0       0       0       0       0       0
       0       0       0       0       0       0       0       0       0       0
       0       0       0       0       0       0       0       0       0       0
       0       0       0       0       0       0       0       0       0       0
       0       0       0       0       0       0       0       0       0       0
       0       0       0       0       0       0       0       0       0       0
       0       0       0       0       0       0       0       0       0       0
       0       0       0       0       0       0       0       0       0       0
       0       0       0       0       0       0       0       0       0       0
       0       0       0       0       0       0       0       0       0       0
       0       0       0       0       0       0       0       0       0       0
       0       0       0       0       0       0       0       0       0       0
       0       0       0       0       0       0       0       0       0       0
       0       0       0       0       0       0       0       0       0       0
       0       0       0       0       0       0       0       0       0       0
       0       0       0       0       0       0       0       0       0       0
       0       0       0       0       0       0       0       0       0       0
       0       0       0       0       0       0       0       0       0       0
       0       0       0       0       0       0       0       0       0       0
       0       0       0       0       0       0       0       0       0       0
       0       0       0       0       0       0       0       0       0       0
       0       0       0       0       0       0       0       0       0       0
       0       0       0       0       0       0       0       0       0       0
       0       0       0       0       0       0       0       0       0       0
       0       0       0       0       0       0       0       0       0       0
       0       0       0       0       0       0       0       0       0       0
       0       0       0       0       0       0       0       0       0       0
       0       0       0       0       0       0       0       0       0       0
       0       0       0       0       0       0       0       0       0       0
       0       0       0       0       0       0       0       0       0       0
       0       0       0       0       0       0       0       0       0       0
       0       0       0       0       0       0       0       0       0       0
       0       0       0       0       0       0       0       0       0       0
       0       0       0       0       0       0       0       0       0       0
       0       0       0       0       0       0       0       0       0       0
       0       0       0       0       0       0       0       0       0       0
       0       0       0       0       0       0       0       0       0       0
       0       0       0       0       0       0       0       0       0       0
       0       0       0       0       0       0       0       0       0       0
       0       0       0       0       0       0       0       0       0       0
       0       0       0       0       0       0       0       0       0       0
       0       0       0       0       0       0       0       0       0       0
       0       0       0       0       0       0       0       0       0       0
       0       0       0       0       0       0       0       0       0       0
       0       0       0       0       0       0       0       0       0       0
       0       0       0       0       0       0       0       0       0       0
       0       0       0       0       0       0       0       0       0       0
       0       0       0       0       0       0       0       0       0       0
       0       0       0       0       0       0       0       0       0       0
       0       0       0       0       0       0       0       0       0       0
       0       0       0       0       0       0       0       0       0       0
       0       0       0       0       0       0       0       0       0       0
       0       0       0       0       0       0       0       0       0       0
       0       0       0       0       0       0       0       0       0       0
       0       0       0       0       0       0       0       0       0       0
       0       0       0       0       0       0       0       0       0       0
       0       0       0       0       0       0       0       0       0       0
       0       0       0       0       0       0       0       0       0       0
       0       0       0       0       0       0       0       0       0       0
       0       0       0       0       0       0       0       0       0       0
       0       0       0       0       0       0       0       0       0       0
       0       0       0       0       0       0       0       0       0       0
       0       0       0       0       0       0       0       0       0       0
       0       0       0       0       0       0       0       0       0       0
       0       0       0       0       0       0       0       0       0       0
       0       0       0       0       0       0       0       0       0       0
       0       0       0       0       0       0       0       0       0       0
       0       0       0       0       0       0       0       0       0       0
       0       0       0       0       0       0       0       0       0       0
       0       0       0       0       0       0       0       0       0       0
       0       0       0       0       0       0       0       0       0       0
       0       0       0       0       0       0       0       0       0       0
       0       0       0       0       0       0       0       0       0       0
       0       0       0       0       0       0       0       0       0       0
       0       0       0       0       0       0       0       0       0       0
       0       0       0       0       0       0       0       0       0       0
       0       0       0       0       0       0       0       0       0       0
       0       0       0       0       0       0       0       0       0       0
       0       0       0       0       0       0       0       0       0       0
       0       0       0       0       0       0       0       0       0       0
       0       0       0       0       0       0       0       0       0       0
       0       0       0       0       0       0       0       0       0       0
       0       0       0       0       0       0       0       0       0       0
       0       0       0       0       0       0       0       0       0       0
       0       0       0       0       0       0       0       0       0       0
       0       0       0       0       0       0       0       0       0       0
       0       0       0       0       0       0       0       0       0       0
       0       0       0       0       0       0       0       0       0       0
       0       0       0       0       0       0       0       0       0       0
       0       0       0       0       0       0       0       0       0       0
       0       0       0       0       0       0       0       0       0       0
       0       0       0       0       0       0       0       0       0       0
       0       0       0       0       0       0       0       0       0       0
       0       0       0       0       0       0       0       0       0       0
       0       0       0       0       0       0       0       0       0       0
       0       0       0       0       0       0       0       0       0       0
       0       0       0       0       0       0       0       0       0       0
       0       0       0       0       0       0       0       0       0       0
       0       0       0       0       0       0       0       0       0       0
       0       0       0       0       0       0       0       0       0       0
       0       0       0       0       0       0       0       0       0       0
       0       0       0       0       0       0       0       0       0       0
       0       0       0       0       0       0       0       0       0       0
       0       0       0       0       0       0       0       0       0       0
       0       0       0       0       0       0       0       0       0       0
       0       0       0       0       0       0       0       0       0       0
       0       0       0       0       0       0       0       0       0       0
       0       0       0       0       0       0       0       0       0       0
       0       0       0       0       0       0       0       0       0       0
       0       0       0       0       0       0       0       0       0       0
       0       0       0       0       0       0       0       0       0       0
       0       0       0       0       0       0       0       0       0       0
       0       0       0       0       0       0       0       0       0       0
       0       0       0       0       0       0       0       0       0       0
       0       0       0       0       0       0       0       0       0       0
       0       0       0       0       0       0       0       0       0       0
       0       0       0       0       0       0       0       0       0       0
       0       0       0       0       0       0       0       0       0       0
       0       0       0       0       0       0       0       0       0       0
       0       0       0       0       0       0       0       0       0       0
       0       0       0       0       0       0       0       0       0       0
       0       0       0       0       0       0       0       0       0       0
       0       0       0       0       0       0       0       0       0       0
       0       0       0       0       0       0       0       0       0       0
       0       0       0       0       0       0       0       0       0       0
       0       0       0       0       0       0       0       0       0       0
       0       0       0       0       0       0       0       0       0       0
       0       0       0       0       0       0       0       0       0       0
       0       0       0       0       0       0       0       0       0       0
       0       0       0       0       0       0       0       0       0       0
       0       0       0       0       0       0       0       0       0       0
       0       0       0       0       0       0       0       0       0       0
       0       0       0       0       0       0       0       0       0       0
       0       0       0       0       0       0       0       0       0       0
       0       0       0       0       0       0       0       0       0       0
       0       0       0       0       0       0       0       0       0       0
       0       0       0       0       0       0       0       0       0       0
       0       0       0       0       0       0       0       0       0       0
       0       0       0       0       0       0       0       0       0       0
       0       0       0       0       0       0       0       0       0       0
       0       0       0       0       0       0       0       0       0       0
       0       0       0       0       0       0       0       0       0       0
       0       0       0       0       0       0       0       0       0       0
       0       0       0       0       0       0       0       0       0       0
       0       0       0       0       0       0       0       0       0       0
       0       0       0       0       0       0       0       0       0       0
       0       0       0       0       0       0       0       0       0       0
       0       0       0       0       0       0       0       0       0       0
       0       0       0       0       0       0       0       0       0       0
       0       0       0       0       0       0       0       0       0       0
       0       0       0       0       0       0       0       0       0       0
       0       0       0       0       0       0       0       0       0       0
       0       0       0       0       0       0       0       0       0       0
       0       0       0       0       0       0       0       0       0       0
       0       0       0       0       0       0       0       0       0       0
       0       0       0       0       0       0       0       0       0       0
       0       0       0       0       0       0       0       0       0       0
       0       0       0       0       0       0       0       0       0       0
       0       0       0       0       0       0       0       0       0       0
       0       0       0       0       0       0       0       0       0       0
       0       0       0       0       0       0       0       0       0       0
       0       0       0       0       0       0       0       0       0       0
       0       0       0       0       0       0       0       0       0       0
       0       0       0       0       0       0       0       0       0       0
       0       0       0       0       0       0       0       0       0       0
       0       0       0       0       0       0       0       0       0       0
       0       0       0       0       0       0       0       0       0       0
       0       0       0       0       0       0       0       0       0       0
       0       0       0       0       0       0       0       0       0       0
       0       0       0       0       0       0       0       0       0       0
       0       0       0       0       0       0       0       0       0       0
       0       0       0       0       0       0       0       0       0       0
       0       0       0       0       0       0       0       0       0       0
       0       0       0       0       0       0       0       0       0       0
       0       0       0       0       0       0       0       0       0       0
       0       0       0       0       0       0       0       0       0       0
       0       0       0       0       0       0       0       0       0       0
       0       0       0       0       0       0       0       0       0       0
       0       0       0       0       0       0       0       0       0       0
       0       0       0       0       0       0       0       0       0       0
       0       0       0       0       0       0       0       0       0       0
       0       0       0       0       0       0       0       0       0       0
       0       0       0       0       0       0       0       0       0       0
       0       0       0       0       0       0       0       0       0       0
       0       0       0       0       0       0       0       0       0       0
       0       0       0       0       0       0       0       0       0       0
       0       0       0       0       0       0       0       0       0       0
       0       0       0       0       0       0       0       0       0       0
       0       0       0       0       0       0       0       0       0       0
       0       0       0       0       0       0       0       0       0       0
       0       0       0       0       0       0       0       0       0       0
       0       0       0       0       0       0       0       0       0       0
       0       0       0       0       0       0       0       0       0       0
       0       0       0       0       0       0       0       0       0       0
       0       0       0       0       0       0       0       0       0       0
       0       0       0       0       0       0       0       0       0       0
       0       0       0       0       0       0       0       0       0       0
       0       0       0       0       0       0       0       0       0       0
       0       0       0       0       0       0       0       0       0       0
       0       0       0       0       0       0       0       0       0       0
       0       0       0       0       0       0       0       0       0       0
       0       0       0       0       0       0       0       0       0       0
       0       0       0       0       0       0       0       0       0       0
       0       0       0       0       0       0       0       0       0       0
       0       0       0       0       0       0       0       0       0       0
       0       0       0       0       0       0       0       0       0       0
       0       0       0       0       0       0       0       0       0       0
       0       0       0       0       0       0       0       0       0       0
       0       0       0       0       0       0       0       0       0       0
       0       0       0       0       0       0       0       0       0       0
       0       0       0       0       0       0       0       0       0       0
       0       0       0       0       0       0       0       0       0       0
       0       0       0       0       0       0       0       0       0       0
       0       0       0       0       0       0       0       0       0       0
       0       0       0       0       0       0       0       0       0       0
       0       0       0       0       0       0       0       0       0       0
       0       0       0       0       0       0       0       0       0       0
       0       0       0       0       0       0       0       0       0       0
       0       0       0       0       0       0       0       0       0       0
       0       0       0       0       0       0       0       0       0       0
       0       0       0       0       0       0       0       0       0       0
       0       0       0       0       0       0       0       0       0       0
       0       0       0       0       0       0       0       0       0       0
       0       0       0       0       0       0       0       0       0       0
       0       0       0       0       0       0       0       0       0       0
       0       0       0       0       0       0       0       0       0       0
       0       0       0       0       0       0       0       0       0       0
       0       0       0       0       0       0       0       0       0       0
       0       0       0       0       0       0       0       0       0       0
       0       0       0       0       0       0       0       0       0       0
       0       0       0       0       0       0       0       0       0       0
       0       0       0       0       0       0       0       0       0       0
       0       0       0       0       0       0       0       0       0       0
       0       0       0       0       0       0       0       0       0       0
       0       0       0       0       0       0       0       0       0       0
       0       0       0       0       0       0       0       0       0       0
       0       0       0       0       0       0       0       0       0       0
       0       0       0       0       0       0       0       0       0       0
       0       0       0       0       0       0       0       0       0       0
       0       0       0       0       0       0       0       0       0       0
       0       0       0       0       0       0       0       0       0       0
       0       0       0       0       0       0       0       0       0       0
       0       0       0       0       0       0       0       0       0       0
       0       0       0       0       0       0       0       0       0       0
       0       0       0       0       0       0       0       0       0       0
       0       0       0       0       0       0       0       0       0       0
       0       0       0       0       0       0       0       0       0       0
       0       0       0       0       0       0       0       0       0       0
       0       0       0       0       0       0       0       0       0       0
       0       0       0       0       0       0       0       0       0       0
       0       0       0       0       0       0       0       0       0       0
       0       0       0       0       0       0       0       0       0       0
       0       0       0       0       0       0       0       0       0       0
       0       0       0       0       0       0       0       0       0       0
       0       0       0       0       0       0       0       0       0       0
       0       0       0       0       0       0       0       0       0       0
       0       0       0       0       0       0       0       0       0       0
       0       0       0       0       0       0       0       0       0       0
       0       0       0       0       0       0       0       0       0       0
       0       0       0       0       0       0       0       0       0       0
       0       0       0       0       0       0       0       0       0       0
       0       0       0       0       0       0       0       0       0       0
       0       0       0       0       0       0       0       0       0       0
       0       0       0       0       0       0       0       0       0       0
       0       0       0       0       0       0       0       0       0       0
       0       0       0       0       0       0       0       0       0       0
       0       0       0       0       0       0       0       0       0       0
       0       0       0       0       0       0       0       0       0       0
       0       0       0       0       0       0       0       0       0       0
       0       0       0       0       0       0       0       0       0       0
       0       0       0       0       0       0       0       0       0       0
       0       0       0       0       0       0       0       0       0       0
       0       0       0       0       0       0       0       0       0       0
       0       0       0       0       0       0       0       0       0       0
       0       0       0       0       0       0       0       0       0       0
       0       0       0       0       0       0       0       0       0       0
       0       0       0       0       0       0       0       0       0       0
       0       0       0       0       0       0       0       0       0       0
       0       0       0       0       0       0       0       0       0       0
       0       0       0       0       0       0       0       0       0       0
       0       0       0       0       0       0       0       0       0       0
       0       0       0       0       0       0       0       0       0       0
       0       0       0       0       0       0       0       0       0       0
       0       0       0       0       0       0       0       0       0       0
       0       0       0       0       0       0       0       0       0       0
       0       0       0       0       0       0       0       0       0       0
       0       0       0       0       0       0       0       0       0       0
       0       0       0       0       0       0       0       0       0       0
       0       0       0       0       0       0       0       0       0       0
       0       0       0       0       0       0       0       0       0       0
       0       0       0       0       0       0       0       0       0       0
       0       0       0       0       0       0       0       0       0       0
       0       0       0       0       0       0       0       0       0       0
       0       0       0       0       0       0       0       0       0       0
       0       0       0       0       0       0       0       0       0       0
       0       0       0       0       0       0       0       0       0       0
       0       0       0       0       0       0       0       0       0       0
       0       0       0       0       0       0       0       0       0       0
       0       0       0       0       0       0       0       0       0       0
       0       0       0       0       0       0       0       0       0       0
       0       0       0       0       0       0       0       0       0       0
       0       0       0       0       0       0       0       0       0       0
       0       0       0       0       0       0       0       0       0       0
       0       0       0       0       0       0       0       0       0       0
       0       0       0       0       0       0       0       0       0       0
       0       0       0       0       0       0       0       0       0       0
       0       0       0       0       0       0       0       0       0       0
       0       0       0       0       0       0       0       0       0       0
       0       0       0       0       0       0       0       0       0       0
       0       0       0       0       0       0       0       0       0       0
       0       0       0       0       0       0       0       0       0       0
       0       0       0       0       0       0       0       0       0       0
       0       0       0       0       0       0       0       0       0       0
       0       0       0       0       0       0       0       0       0       0
       0       0       0       0       0       0       0       0       0       0
       0       0       0       0       0       0       0       0       0       0
       0       0       0       0       0       0       0       0       0       0
       0       0       0       0       0       0       0       0       0       0
       0       0       0       0       0       0       0       0       0       0
       0       0       0       0       0       0       0       0       0       0
       0       0       0       0       0       0       0       0       0       0
       0       0       0       0       0       0       0       0       0       0
       0       0       0       0       0       0       0       0       0       0
       0       0       0       0       0       0       0       0       0       0
       0       0       0       0       0       0       0       0       0       0
       0       0       0       0       0       0       0       0       0       0
       0       0       0       0       0       0       0       0       0       0
       0       0       0       0       0       0       0       0       0       0
       0       0       0       0       0       0       0       0       0       0
       0       0       0       0       0       0       0       0       0       0
       0       0       0       0       0       0       0       0       0       0
       0       0       0       0       0       0       0       0       0       0
       0       0       0       0       0       0       0       0       0       0
       0       0       0       0       0       0       0       0       0       0
       0       0       0       0       0       0       0       0       0       0
       0       0       0       0       0       0       0       0       0       0
       0       0       0       0       0       0       0       0       0       0
       0       0       0       0       0       0       0       0       0       0
       0       0       0       0       0       0       0       0       0       0
       0       0       0       0       0       0       0       0       0       0
       0       0       0       0       0       0       0       0       0       0
       0       0       0       0       0       0       0       0       0       0
       0       0       0       0       0       0       0       0       0       0
       0       0       0       0       0       0       0       0       0       0
       0       0       0       0       0       0       0       0       0       0
       0       0       0       0       0       0       0       0       0       0
       0       0       0       0       0       0       0       0       0       0
       0       0       0       0       0       0       0       0       0       0
       0       0       0       0       0       0       0       0       0       0
       0       0       0       0       0       0       0       0       0       0
       0       0       0       0       0       0       0       0       0       0
       0       0       0       0       0       0       0       0       0       0
       0       0       0       0       0       0       0       0       0       0
       0       0       0       0       0       0       0       0       0       0
       0       0       0       0       0       0       0       0       0       0
       0       0       0       0       0       0       0       0       0       0
       0       0       0       0       0       0       0       0       0       0
       0       0       0       0       0       0       0       0       0       0
       0       0       0       0       0       0       0       0       0       0
       0       0       0       0       0       0       0       0       0       0
       0       0       0       0       0       0       0       0       0       0
       0       0       0       0       0       0       0       0       0       0
       0       0       0       0       0       0       0       0       0       0
       0       0       0       0       0       0       0       0       0       0
       0       0       0       0       0       0       0       0       0       0
       0       0       0       0       0       0       0       0       0       0
       0       0       0       0       0       0       0       0       0       0
       0       0       0       0       0       0       0       0       0       0
       0       0       0       0       0       0       0       0       0       0
       0       0       0       0       0       0       0       0       0       0
       0       0       0       0       0       0       0       0       0       0
       0       0       0       0       0       0       0       0       0       0
       0       0       0       0       0       0       0       0       0       0
       0       0       0       0       0       0       0       0       0       0
       0       0       0       0       0       0       0       0       0       0
       0       0       0       0       0       0       0       0       0       0
       0       0       0       0       0       0       0       0       0       0
       0       0       0       0       0       0       0       0       0       0
       0       0       0       0       0       0       0       0       0       0
       0       0       0       0       0       0       0       0       0       0
       0       0       0       0       0       0       0       0       0       0
       0       0       0       0       0       0       0       0       0       0
       0       0       0       0       0       0       0       0       0       0
       0       0       0       0       0       0       0       0       0       0
       0       0       0       0       0       0       0       0       0       0
       0       0       0       0       0       0       0       0       0       0
       0       0       0       0       0       0       0       0       0       0
       0       0       0       0       0       0       0       0       0       0
       0       0       0       0       0       0       0       0       0       0
       0       0       0       0       0       0       0       0       0       0
       0       0       0       0       0       0       0       0       0       0
       0       0       0       0       0       0       0       0       0       0
       0       0       0       0       0       0       0       0       0       0
       0       0       0       0       0       0       0       0       0       0
       0       0       0       0       0       0       0       0       0       0
       0       0       0       0       0       0       0       0       0       0
       0       0       0       0       0       0       0       0       0       0
       0       0       0       0       0       0       0       0       0       0
       0       0       0       0       0       0       0       0       0       0
       0       0       0       0       0       0       0       0       0       0
       0       0       0       0       0       0       0       0       0       0
       0       0       0       0       0       0       0       0       0       0
       0       0       0       0       0       0       0       0       0       0
       0       0       0       0       0       0       0       0       0       0
       0       0       0       0       0       0       0       0       0       0
       0       0       0       0       0       0       0       0       0       0
       0       0       0       0       0       0       0       0       0       0
       0       0       0       0       0       0       0       0       0       0
       0       0       0       0       0       0       0       0       0       0
       0       0       0       0       0       0       0       0       0       0
       0       0       0       0       0       0       0       0       0       0
       0       0       0       0       0       0       0       0       0       0
       0       0       0       0       0       0       0       0       0       0
       0       0       0       0       0       0       0       0       0       0
       0       0       0       0       0       0       0       0       0       0
       0       0       0       0       0       0       0       0       0       0
       0       0       0       0       0       0       0       0       0       0
       0       0       0       0       0       0       0       0       0       0
       0       0       0       0       0       0       0       0       0       0
       0       0       0       0       0       0       0       0       0       0
       0       0       0       0       0       0       0       0       0       0
       0       0       0       0       0       0       0       0       0       0
       0       0       0       0       0       0       0       0       0       0
       0       0       0       0       0       0       0       0       0       0
       0       0       0       0       0       0       0       0       0       0
       0       0       0       0       0       0       0       0       0       0
       0       0       0       0       0       0       0       0       0       0
       0       0       0       0       0       0       0       0       0       0
       0       0       0       0       0       0       0       0       0       0
       0       0       0       0       0       0       0       0       0       0
       0       0       0       0       0       0       0       0       0       0
       0       0       0       0       0       0       0       0       0       0
       0       0       0       0       0       0       0       0       0       0
       0       0       0       0       0       0       0       0       0       0
       0       0       0       0       0       0       0       0       0       0
       0       0       0       0       0       0       0       0       0       0
       0       0       0       0       0       0       0       0       0       0
       0       0       0       0       0       0       0       0       0       0
       0       0       0       0       0       0       0       0       0       0
       0       0       0       0       0       0       0       0       0       0
       0       0       0       0       0       0       0       0       0       0
       0       0       0       0       0       0       0       0       0       0
       0       0       0       0       0       0       0       0       0       0
       0       0       0       0       0       0       0       0       0       0
       0       0       0       0       0       0       0       0       0       0
       0       0       0       0       0       0       0       0       0       0
       0       0       0       0       0       0       0       0       0       0
       0       0       0       0       0       0       0       0       0       0
       0       0       0       0       0       0       0       0       0       0
       0       0       0       0       0       0       0       0       0       0
       0       0       0       0       0       0       0       0       0       0
       0       0       0       0       0       0       0       0       0       0
       0       0       0       0       0       0       0       0       0       0
       0       0       0       0       0       0       0       0       0       0
       0       0       0       0       0       0       0       0       0       0
       0       0       0       0       0       0       0       0       0       0
       0       0       0       0       0       0       0       0       0       0
       0       0       0       0       0       0       0       0       0       0
       0       0       0       0       0       0       0       0       0       0
       0       0       0       0       0       0       0       0       0       0
       0       0       0       0       0       0       0       0       0       0
       0       0       0       0       0       0       0       0       0       0
       0       0       0       0       0       0       0       0       0       0
       0       0       0       0       0       0       0       0       0       0
       0       0       0       0       0       0       0       0       0       0
       0       0       0       0       0       0       0       0       0       0
       0       0       0       0       0       0       0       0       0       0
       0       0       0       0       0       0       0       0       0       0
       0       0       0       0       0       0       0       0       0       0
       0       0       0       0       0       0       0       0       0       0
       0       0       0       0       0       0       0       0       0       0
       0       0       0       0       0       0       0       0       0       0
       0       0       0       0       0       0       0       0       0       0
       0       0       0       0       0       0       0       0       0       0
       0       0       0       0       0       0       0       0       0       0
       0       0       0       0       0       0       0       0       0       0
       0       0       0       0       0       0       0       0       0       0
       0       0       0       0       0       0       0       0       0       0
       0       0       0       0       0       0       0       0       0       0
       0       0       0       0       0       0       0       0       0       0
       0       0       0       0       0       0       0       0       0       0
       0       0       0       0       0       0       0       0       0       0
       0       0       0       0       0       0       0       0       0       0
       0       0       0       0       0       0       0       0       0       0
       0       0       0       0       0       0       0       0       0       0
       0       0       0       0       0       0       0       0       0       0
       0       0       0       0       0       0       0       0       0       0
       0       0       0       0       0       0       0       0       0       0
       0       0       0       0       0       0       0       0       0       0
       0       0       0       0       0       0       0       0       0       0
       0       0       0       0       0       0       0       0       0       0
       0       0       0       0       0       0       0       0       0       0
       0       0       0       0       0       0       0       0       0       0
       0       0       0       0       0       0       0       0       0       0
       0       0       0       0       0       0       0       0       0       0
       0       0       0       0       0       0       0       0       0       0
       0       0       0       0       0       0       0       0       0       0
       0       0       0       0       0       0       0       0       0       0
       0       0       0       0       0       0       0       0       0       0
       0       0       0       0       0       0       0       0       0       0
       0       0       0       0       0       0       0       0       0       0
       0       0       0       0       0       0       0       0       0       0
       0       0       0       0       0       0       0       0       0       0
       0       0       0       0       0       0       0       0       0       0
       0       0       0       0       0       0       0       0       0       0
       0       0       0       0       0       0       0       0       0       0
       0       0       0       0       0       0       0       0       0       0
       0       0       0       0       0       0       0       0       0       0
       0       0       0       0       0       0       0       0       0       0
       0       0       0       0       0       0       0       0       0       0
       0       0       0       0       0       0       0       0       0       0
       0       0       0       0       0       0       0       0       0       0
       0       0       0       0       0       0       0       0       0       0
       0       0       0       0       0       0       0       0       0       0
       0       0       0       0       0       0       0       0       0       0
       0       0       0       0       0       0       0       0       0       0
       0       0       0       0       0       0       0       0       0       0
       0       0       0       0       0       0       0       0       0       0
       0       0       0       0       0       0       0       0       0       0
       0       0       0       0       0       0       0       0       0       0
       0       0       0       0       0       0       0       0       0       0
       0       0       0       0       0       0       0       0       0       0
       0       0       0       0       0       0       0       0       0       0
       0       0       0       0       0       0       0       0       0       0
       0       0       0       0       0       0       0       0       0       0
       0       0       0       0       0       0       0       0       0       0
       0       0       0       0       0       0       0       0       0       0
       0       0       0       0       0       0       0       0       0       0
       0       0       0       0       0       0       0       0       0       0
       0       0       0       0       0       0       0       0       0       0
       0       0       0       0       0       0       0       0       0       0
       0       0       0       0       0       0       0       0       0       0
       0       0       0       0       0       0       0       0       0       0
       0       0       0       0       0       0       0       0       0       0
       0       0       0       0       0       0       0       0       0       0
       0       0       0       0       0       0       0       0       0       0
       0       0       0       0       0       0       0       0       0       0
       0       0       0       0       0       0       0       0       0       0
       0       0       0       0       0       0       0       0       0       0
       0       0       0       0       0       0       0       0       0       0
       0       0       0       0       0       0       0       0       0       0
       0       0       0       0       0       0       0       0       0       0
       0       0       0       0       0       0       0       0       0       0
       0       0       0       0       0       0       0       0       0       0
       0       0       0       0       0       0       0       0       0       0
       0       0       0       0       0       0       0       0       0       0
       0       0       0       0       0       0       0       0       0       0
       0       0       0       0       0       0       0       0       0       0
       0       0       0       0       0       0       0       0       0       0
       0       0       0       0       0       0       0       0       0       0
       0       0       0       0       0       0       0       0       0       0
       0       0       0       0       0       0       0       0       0       0
       0       0       0       0       0       0       0       0       0       0
       0       0       0       0       0       0       0       0       0       0
       0       0       0       0       0       0       0       0       0       0
       0       0       0       0       0       0       0       0       0       0
       0       0       0       0       0       0       0       0       0       0
       0       0       0       0       0       0       0       0       0       0
       0       0       0       0       0       0       0       0       0       0
       0       0       0       0       0       0       0       0       0       0
       0       0       0       0       0       0       0       0       0       0
       0       0       0       0       0       0       0       0       0       0
       0       0       0       0       0       0       0       0       0       0
       0       0       0       0       0       0       0       0       0       0
       0       0       0       0       0       0       0       0       0       0
       0       0       0       0       0       0       0       0       0       0
       0       0       0       0       0       0       0       0       0       0
       0       0       0       0       0       0       0       0       0       0
       0       0       0       0       0       0       0       0       0       0
       0       0       0       0       0       0       0       0       0       0
       0       0       0       0       0       0       0       0       0       0
       0       0       0       0       0       0       0       0       0       0
       0       0       0       0       0       0       0       0       0       0
       0       0       0       0       0       0       0       0       0       0
       0       0       0       0       0       0       0       0       0       0
       0       0       0       0       0       0       0       0       0       0
       0       0       0       0       0       0       0       0       0       0
       0       0       0       0       0       0       0       0       0       0
       0       0       0       0       0       0       0       0       0       0
       0       0       0       0       0       0       0       0       0       0
       0       0       0       0       0       0       0       0       0       0
       0       0       0       0       0       0       0       0       0       0
       0       0       0       0       0       0       0       0       0       0
       0       0       0       0       0       0       0       0       0       0
       0       0       0       0       0       0       0       0       0       0
       0       0       0       0       0       0       0       0       0       0
       0       0       0       0       0       0       0       0       0       0
       0       0       0       0       0       0       0       0       0       0
       0       0       0       0       0       0       0       0       0       0
       0       0       0       0       0       0       0       0       0       0
       0       0       0       0       0       0       0       0       0       0
       0       0       0       0       0       0       0       0       0       0
       0       0       0       0       0       0       0       0       0       0
       0       0       0       0       0       0       0       0       0       0
       0       0       0       0       0       0       0       0       0       0
       0       0       0       0       0       0       0       0       0       0
       0       0       0       0       0       0       0       0       0       0
       0       0       0       0       0       0       0       0       0       0
       0       0       0       0       0       0       0       0       0       0
       0       0       0       0       0       0       0       0       0       0
       0       0       0       0       0       0       0       0       0       0
       0       0       0       0       0       0       0       0       0       0
       0       0       0       0       0       0       0       0       0       0
       0       0       0       0       0       0       0       0       0       0
       0       0       0       0       0       0       0       0       0       0
       0       0       0       0       0       0       0       0       0       0
       0       0       0       0       0       0       0       0       0       0
       0       0       0       0       0       0       0       0       0       0
       0       0       0       0       0       0       0       0       0       0
       0       0       0       0       0       0       0       0       0       0
       0       0       0       0       0       0       0       0       0       0
       0       0       0       0       0       0       0       0       0       0
       0       0       0       0       0       0       0       0       0       0
       0       0       0       0       0       0       0       0       0       0
       0       0       0       0       0       0       0       0       0       0
       0       0       0       0       0       0       0       0       0       0
       0       0       0       0       0       0       0       0       0       0
       0       0       0       0       0       0       0       0       0       0
       0       0       0       0       0       0       0       0       0       0
       0       0       0       0       0       0       0       0       0       0
       0       0       0       0       0       0       0       0       0       0
       0       0       0       0       0       0       0       0       0       0
       0       0       0       0       0       0       0       0       0       0
       0       0       0       0       0       0       0       0       0       0
       0       0       0       0       0       0       0       0       0       0
       0       0       0       0       0       0       0       0       0       0
       0       0       0       0       0       0       0       0       0       0
       0       0       0       0       0       0       0       0       0       0
       0       0       0       0       0       0       0       0       0       0
       0       0       0       0       0       0       0       0       0       0
       0       0       0       0       0       0       0       0       0       0
       0       0       0       0       0       0       0       0       0       0
       0       0       0       0       0       0       0       0       0       0
       0       0       0       0       0       0       0       0       0       0
       0       0       0       0       0       0       0       0       0       0
       0       0       0       0       0       0       0       0       0       0
       0       0       0       0       0       0       0       0       0       0
       0       0       0       0       0       0       0       0       0       0
       0       0       0       0       0       0       0       0       0       0
       0       0       0       0       0       0       0       0       0       0
       0       0       0       0       0       0       0       0       0       0
       0       0       0       0       0       0       0       0       0       0
       0       0       0       0       0       0       0       0       0       0
       0       0       0       0       0       0       0       0       0       0
       0       0       0       0       0       0       0       0       0       0
       0       0       0       0       0       0       0       0       0       0
       0       0       0       0       0       0       0       0       0       0
       0       0       0       0       0       0       0       0       0       0
       0       0       0       0       0       0       0       0       0       0
       0       0       0       0       0       0       0       0       0       0
       0       0       0       0       0       0       0       0       0       0
       0       0       0       0       0       0       0       0       0       0
       0       0       0       0       0       0       0       0       0       0
       0       0       0       0       0       0       0       0       0       0
       0       0       0       0       0       0       0       0       0       0
       0       0       0       0       0       0       0       0       0       0
       0       0       0       0       0       0       0       0       0       0
       0       0       0       0       0       0       0       0       0       0
       0       0       0       0       0       0       0       0       0       0
       0       0       0       0       0       0       0       0       0       0
       0       0       0       0       0       0       0       0       0       0
       0       0       0       0       0       0       0       0       0       0
       0       0       0       0       0       0       0       0       0       0
       0       0       0       0       0       0       0       0       0       0
       0       0       0       0       0       0       0       0       0       0
       0       0       0       0       0       0       0       0       0       0
       0       0       0       0       0       0       0       0       0       0
       0       0       0       0       0       0       0       0       0       0
       0       0       0       0       0       0       0       0       0       0
       0       0       0       0       0       0       0       0       0       0
       0       0       0       0       0       0       0       0       0       0
       0       0       0       0       0       0       0       0       0       0
       0       0       0       0       0       0       0       0       0       0
       0       0       0       0       0       0       0       0       0       0
       0       0       0       0       0       0       0       0       0       0
       0       0       0       0       0       0       0       0       0       0
       0       0       0       0       0       0       0       0       0       0
       0       0       0       0       0       0       0       0       0       0
       0       0       0       0       0       0       0       0       0       0
       0       0       0       0       0       0       0       0       0       0
       0       0       0       0       0       0       0       0       0       0
       0       0       0       0       0       0       0       0       0       0
       0       0       0       0       0       0       0       0       0       0
       0       0       0       0       0       0       0       0       0       0
       0       0       0       0       0       0       0       0       0       0
       0       0       0       0       0       0       0       0       0       0
       0       0       0       0       0       0       0       0       0       0
       0       0       0       0       0       0       0       0       0       0
       0       0       0       0       0       0       0       0       0       0
       0       0       0       0       0       0       0       0       0       0
       0       0       0       0       0       0       0       0       0       0
       0       0       0       0       0       0       0       0       0       0
       0       0       0       0       0       0       0       0       0       0
       0       0       0       0       0       0       0       0       0       0
       0       0       0       0       0       0       0       0       0       0
       0       0       0       0       0       0       0       0       0       0
       0       0       0       0       0       0       0       0       0       0
       0       0       0       0       0       0       0       0       0       0
       0       0       0       0       0       0       0       0       0       0
       0       0       0       0       0       0       0       0       0       0
       0       0       0       0       0       0       0       0       0       0
       0       0       0       0       0       0       0       0       0       0
       0       0       0       0       0       0       0       0       0       0
       0       0       0       0       0       0       0       0       0       0
       0       0       0       0       0       0       0       0       0       0
       0       0       0       0       0       0       0       0       0       0
       0       0       0       0       0       0       0       0       0       0
       0       0       0       0       0       0       0       0       0       0
       0       0       0       0       0       0       0       0       0       0
       0       0       0       0       0       0       0       0       0       0
       0       0       0       0       0       0       0       0       0       0
       0       0       0       0       0       0       0       0       0       0
       0       0       0       0       0       0       0       0       0       0
       0       0       0       0       0       0       0       0       0       0
       0       0       0       0       0       0       0       0       0       0
       0       0       0       0       0       0       0       0       0       0
       0       0       0       0       0       0       0       0       0       0
       0       0       0       0       0       0       0       0       0       0
       0       0       0       0       0       0       0       0       0       0
       0       0       0       0       0       0       0       0       0       0
       0       0       0       0       0       0       0       0       0       0
       0       0       0       0       0       0       0       0       0       0
       0       0       0       0       0       0       0       0       0       0
       0       0       0       0       0       0       0       0       0       0
       0       0       0       0       0       0       0       0       0       0
       0       0       0       0       0       0       0       0       0       0
       0       0       0       0       0       0       0       0       0       0
       0       0       0       0       0       0       0       0       0       0
       0       0       0       0       0       0       0       0       0       0
       0       0       0       0       0       0       0       0       0       0
       0       0       0       0       0       0       0       0       0       0
       0       0       0       0       0       0       0       0       0       0
       0       0       0       0       0       0       0       0       0       0
       0       0       0       0       0       0       0       0       0       0
       0       0       0       0       0       0       0       0       0       0
       0       0       0       0       0       0       0       0       0       0
       0       0       0       0       0       0       0       0       0       0
       0       0       0       0       0       0       0       0       0       0
       0       0       0       0       0       0       0       0       0       0
       0       0       0       0       0       0       0       0       0       0
       0       0       0       0       0       0       0       0       0       0
       0       0       0       0       0       0       0       0       0       0
       0       0       0       0       0       0       0       0       0       0
       0       0       0       0       0       0       0       0       0       0
       0       0       0       0       0       0       0       0       0       0
       0       0       0       0       0       0       0       0       0       0
       0       0       0       0       0       0       0       0       0       0
       0       0       0       0       0       0       0       0       0       0
       0       0       0       0       0       0       0       0       0       0
       0       0       0       0       0       0       0       0       0       0
       0       0       0       0       0       0       0       0       0       0
       0       0       0       0       0       0       0       0       0       0
       0       0       0       0       0       0       0       0       0       0
       0       0       0       0       0       0       0       0       0       0
       0       0       0       0       0       0       0       0       0       0
       0       0       0       0       0       0       0       0       0       0
       0       0       0       0       0       0       0       0       0       0
       0       0       0       0       0       0       0       0       0       0
       0       0       0       0       0       0       0       0       0       0
       0       0       0       0       0       0       0       0       0       0
       0       0       0       0       0       0       0       0       0       0
       0       0       0       0       0       0       0       0       0       0
       0       0       0       0       0       0       0       0       0       0
       0       0       0       0       0       0       0       0       0       0
       0       0       0       0       0       0       0       0       0       0
       0       0       0       0       0       0       0       0       0       0
       0       0       0       0       0       0       0       0       0       0
       0       0       0       0       0       0       0       0       0       0
       0       0       0       0       0       0       0       0       0       0
       0       0       0       0       0       0       0       0       0       0
       0       0       0       0       0       0       0       0       0       0
       0       0       0       0       0       0       0       0       0       0
       0       0       0       0       0       0       0       0       0       0
       0       0       0       0       0       0       0       0       0       0
       0       0       0       0       0       0       0       0       0       0
       0       0       0       0       0       0       0       0       0       0
       0       0       0       0       0       0       0       0       0       0
       0       0       0       0       0       0       0       0       0       0
       0       0       0       0       0       0       0       0       0       0
       0       0       0       0       0       0       0       0       0       0
       0       0       0       0       0       0       0       0       0       0
       0       0       0       0       0       0       0       0       0       0
       0       0       0       0       0       0       0       0       0       0
       0       0       0       0       0       0       0       0       0       0
       0       0       0       0       0       0       0       0       0       0
       0       0       0       0       0       0       0       0       0       0
       0       0       0       0       0       0       0       0       0       0
       0       0       0       0       0       0       0       0       0       0
       0       0       0       0       0       0       0       0       0       0
       0       0       0       0       0       0       0       0       0       0
       0       0       0       0       0       0       0       0       0       0
       0       0       0       0       0       0       0       0       0       0
       0       0       0       0       0       0       0       0       0       0
       0       0       0       0       0       0       0       0       0       0
       0       0       0       0       0       0       0       0       0       0
       0       0       0       0       0       0       0       0       0       0
       0       0       0       0       0       0       0       0       0       0
       0       0       0       0       0       0       0       0       0       0
       0       0       0       0       0       0       0       0       0       0
       0       0       0       0       0       0       0       0       0       0
       0       0       0       0       0       0       0       0       0       0
       0       0       0       0       0       0       0       0       0       0
       0       0       0       0       0       0       0       0       0       0
       0       0       0       0       0       0       0       0       0       0
       0       0       0       0       0       0       0       0       0       0
       0       0       0       0       0       0       0       0       0       0
       0       0       0       0       0       0       0       0       0       0
       0       0       0       0       0       0       0       0       0       0
       0       0       0       0       0       0       0       0       0       0
       0       0       0       0       0       0       0       0       0       0
       0       0       0       0       0       0       0       0       0       0
       0       0       0       0       0       0       0       0       0       0
       0       0       0       0       0       0       0       0       0       0
       0       0       0       0       0       0       0       0       0       0
       0       0       0       0       0       0       0       0       0       0
       0       0       0       0       0       0       0       0       0       0
       0       0       0       0       0       0       0       0       0       0
       0       0       0       0       0       0       0       0       0       0
       0       0       0       0       0       0       0       0       0       0
       0       0       0       0       0       0       0       0       0       0
       0       0       0       0       0       0       0       0       0       0
       0       0       0       0       0       0       0       0       0       0
       0       0       0       0       0       0       0       0       0       0
       0       0       0       0       0       0       0       0       0       0
       0       0       0       0       0       0       0       0       0       0
       0       0       0       0       0       0       0       0       0       0
       0       0       0       0       0       0       0       0       0       0
       0       0       0       0       0       0       0       0       0       0
       0       0       0       0       0       0       0       0       0       0
       0       0       0       0       0       0       0       0       0       0
       0       0       0       0       0       0       0       0       0       0
       0       0       0       0       0       0       0       0       0       0
       0       0       0       0       0       0       0       0       0       0
       0       0       0       0       0       0       0       0       0       0
       0       0       0       0       0       0       0       0       0       0
       0       0       0       0       0       0       0       0       0       0
       0       0       0       0       0       0       0       0       0       0
       0       0       0       0       0       0       0       0       0       0
       0       0       0       0       0       0       0       0       0       0
       0       0       0       0       0       0       0       0       0       0
       0       0       0       0       0       0       0       0       0       0
       0       0       0       0       0       0       0       0       0       0
       0       0       0       0       0       0       0       0       0       0
       0       0       0       0       0       0       0       0       0       0
       0       0       0       0       0       0       0       0       0       0
       0       0       0       0       0       0       0       0       0       0
       0       0       0       0       0       0       0       0       0       0
       0       0       0       0       0       0       0       0       0       0
       0       0       0       0       0       0       0       0       0       0
       0       0       0       0       0       0       0       0       0       0
       0       0       0       0       0       0       0       0       0       0
       0       0       0       0       0       0       0       0       0       0
       0       0       0       0       0       0       0       0       0       0
       0       0       0       0       0       0       0       0       0       0
       0       0       0       0       0       0       0       0       0       0
       0       0       0       0       0       0       0       0       0       0
       0       0       0       0       0       0       0       0       0       0
       0       0       0       0       0       0       0       0       0       0
       0       0       0       0       0       0       0       0       0       0
       0       0       0       0       0       0       0       0       0       0
       0       0       0       0       0       0       0       0       0       0
       0       0       0       0       0       0       0       0       0       0
       0       0       0       0       0       0       0       0       0       0
       0       0       0       0       0       0       0       0       0       0
       0       0       0       0       0       0       0       0       0       0
       0       0       0       0       0       0       0       0       0       0
       0       0       0       0       0       0       0       0       0       0
       0       0       0       0       0       0       0       0       0       0
       0       0       0       0       0       0       0       0       0       0
       0       0       0       0       0       0       0       0       0       0
       0       0       0       0       0       0       0       0       0       0
       0       0       0       0       0       0       0       0       0       0
       0       0       0       0       0       0       0       0       0       0
       0       0       0       0       0       0       0       0       0       0
       0       0       0       0       0       0       0       0       0       0
       0       0       0       0       0       0       0       0       0       0
       0       0       0       0       0       0       0       0       0       0
       0       0       0       0       0       0       0       0       0       0
       0       0       0       0       0       0       0       0       0       0
       0       0       0       0       0       0       0       0       0       0
       0       0       0       0       0       0       0       0       0       0
       0       0       0       0       0       0       0       0       0       0
       0       0       0       0       0       0       0       0       0       0
       0       0       0       0       0       0       0       0       0       0
       0       0       0       0       0       0       0       0       0       0
       0       0       0       0       0       0       0       0       0       0
       0       0       0       0       0       0       0       0       0       0
       0       0       0       0       0       0       0       0       0       0
       0       0       0       0       0       0       0       0       0       0
       0       0       0       0       0       0       0       0       0       0
       0       0       0       0       0       0       0       0       0       0
       0       0       0       0       0       0       0       0       0       0
       0       0       0       0       0       0       0       0       0       0
       0       0       0       0       0       0       0       0       0       0
       0       0       0       0       0       0       0       0       0       0
       0       0       0       0       0       0       0       0       0       0
       0       0       0       0       0       0       0       0       0       0
       0       0       0       0       0       0       0       0       0       0
       0       0       0       0       0       0       0       0       0       0
       0       0       0       0       0       0       0       0       0       0
       0       0       0       0       0       0       0       0       0       0
       0       0       0       0       0       0       0       0       0       0
       0       0       0       0       0       0       0       0       0       0
       0       0       0       0       0       0       0       0       0       0
       0       0       0       0       0       0       0       0       0       0
       0       0       0       0       0       0       0       0       0       0
       0       0       0       0       0       0       0       0       0       0
       0       0       0       0       0       0       0       0       0       0
       0       0       0       0       0       0       0       0       0       0
       0       0       0       0       0       0       0       0       0       0
       0       0       0       0       0       0       0       0       0       0
       0       0       0       0       0       0       0       0       0       0
       0       0       0       0       0       0       0       0       0       0
       0       0       0       0       0       0       0       0       0       0
       0       0       0       0       0       0       0       0       0       0
       0       0       0       0       0       0       0       0       0       0
       0       0       0       0       0       0       0       0       0       0
       0       0       0       0       0       0       0       0       0       0
       0       0       0       0       0       0       0       0       0       0
       0       0       0       0       0       0       0       0       0       0
       0       0       0       0       0       0       0       0       0       0
       0       0       0       0       0       0       0       0       0       0
       0       0       0       0       0       0       0       0       0       0
       0       0       0       0       0       0       0       0       0       0
       0       0       0       0       0       0       0       0       0       0
       0       0       0       0       0       0       0       0       0       0
       0       0       0       0       0       0       0       0       0       0
       0       0       0       0       0       0       0       0       0       0
       0       0       0       0       0       0       0       0       0       0
       0       0       0       0       0       0       0       0       0       0
       0       0       0       0       0       0       0       0       0       0
       0       0       0       0       0       0       0       0       0       0
       0       0       0       0       0       0       0       0       0       0
       0       0       0       0       0       0       0       0       0       0
       0       0       0       0       0       0       0       0       0       0
       0       0       0       0       0       0       0       0       0       0
       0       0       0       0       0       0       0       0       0       0
       0       0       0       0       0       0       0       0       0       0
       0       0       0       0       0       0       0       0       0       0
       0       0       0       0       0       0       0       0       0       0
       0       0       0       0       0       0       0       0       0       0
       0       0       0       0       0       0       0       0       0       0
       0       0       0       0       0       0       0       0       0       0
       0       0       0       0       0       0       0       0       0       0
       0       0       0       0       0       0       0       0       0       0
       0       0       0       0       0       0       0       0       0       0
       0       0       0       0       0       0       0       0       0       0
       0       0       0       0       0       0       0       0       0       0
       0       0       0       0       0       0       0       0       0       0
       0       0       0       0       0       0       0       0       0       0
       0       0       0       0       0       0       0       0       0       0
       0       0       0       0       0       0       0       0       0       0
       0       0       0       0       0       0       0       0       0       0
       0       0       0       0       0       0       0       0       0       0
       0       0       0       0       0       0       0       0       0       0
       0       0       0       0       0       0       0       0       0       0
       0       0       0       0       0       0       0       0       0       0
       0       0       0       0       0       0       0       0       0       0
       0       0       0       0       0       0       0       0       0       0
       0       0       0       0       0       0       0       0       0       0
       0       0       0       0       0       0       0       0       0       0
       0       0       0       0       0       0       0       0       0       0
       0       0       0       0       0       0       0       0       0       0
       0       0       0       0       0       0       0       0       0       0
       0       0       0       0       0       0       0       0       0       0
       0       0       0       0       0       0       0       0       0       0
       0       0       0       0       0       0       0       0       0       0
       0       0       0       0       0       0       0       0       0       0
       0       0       0       0       0       0       0       0       0       0
       0       0       0       0       0       0       0       0       0       0
       0       0       0       0       0       0       0       0       0       0
       0       0       0       0       0       0       0       0       0       0
       0       0       0       0       0       0       0       0       0       0
       0       0       0       0       0       0       0       0       0       0
       0       0       0       0       0       0       0       0       0       0
       0       0       0       0       0       0       0       0       0       0
       0       0       0       0       0       0       0       0       0       0
       0       0       0       0       0       0       0       0       0       0
       0       0       0       0       0       0       0       0       0       0
       0       0       0       0       0       0       0       0       0       0
       0       0       0       0       0       0       0       0       0       0
       0       0       0       0       0       0       0       0       0       0
       0       0       0       0       0       0       0       0       0       0
       0       0       0       0       0       0       0       0       0       0
       0       0       0       0       0       0       0       0       0       0
       0       0       0       0       0       0       0       0       0       0
       0       0       0       0       0       0       0       0       0       0
       0       0       0       0       0       0       0       0       0       0
       0       0       0       0       0       0       0       0       0       0
       0       0       0       0       0       0       0       0       0       0
       0       0       0       0       0       0       0       0       0       0
       0       0       0       0       0       0       0       0       0       0
       0       0       0       0       0       0       0       0       0       0
       0       0       0       0       0       0       0       0       0       0
       0       0       0       0       0       0       0       0       0       0
       0       0       0       0       0       0       0       0       0       0
       0       0       0       0       0       0       0       0       0       0
       0       0       0       0       0       0       0       0       0       0
       0       0       0       0       0       0       0       0       0       0
       0       0       0       0       0       0       0       0       0       0
       0       0       0       0       0       0       0       0       0       0
       0       0       0       0       0       0       0       0       0       0
       0       0       0       0       0       0       0       0       0       0
       0       0       0       0       0       0       0       0       0       0
       0       0       0       0       0       0       0       0       0       0
       0       0       0       0       0       0       0       0       0       0
       0       0       0       0       0       0       0       0       0       0
       0       0       0       0       0       0       0       0       0       0
       0       0       0       0       0       0       0       0       0       0
       0       0       0       0       0       0       0       0       0       0
       0       0       0       0       0       0       0       0       0       0
       0       0       0       0       0       0       0       0       0       0
       0       0       0       0       0       0       0       0       0       0
       0       0       0       0       0       0       0       0       0       0
       0       0       0       0       0       0       0       0       0       0
       0       0       0       0       0       0       0       0       0       0
       0       0       0       0       0       0       0       0       0       0
       0       0       0       0       0       0       0       0       0       0
       0       0       0       0       0       0       0       0       0       0
       0       0       0       0       0       0       0       0       0       0
       0       0       0       0       0       0       0       0       0       0
       0       0       0       0       0       0       0       0       0       0
       0       0       0       0       0       0       0       0       0       0
       0       0       0       0       0       0       0       0       0       0
       0       0       0       0       0       0       0       0       0       0
       0       0       0       0       0       0       0       0       0       0
       0       0       0       0       0       0       0       0       0       0
       0       0       0       0       0       0       0       0       0       0
       0       0       0       0       0       0       0       0       0       0
       0       0       0       0       0       0       0       0       0       0
       0       0       0       0       0       0       0       0       0       0
       0       0       0       0       0       0       0       0       0       0
       0       0       0       0       0       0       0       0       0       0
       0       0       0       0       0       0       0       0       0       0
       0       0       0       0       0       0       0       0       0       0
       0       0       0       0       0       0       0       0       0       0
       0       0       0       0       0       0       0       0       0       0
       0       0       0       0       0       0       0       0       0       0
       0       0       0       0       0       0       0       0       0       0
       0       0       0       0       0       0       0       0       0       0
       0       0       0       0       0       0       0       0       0       0
       0       0       0       0       0       0       0       0       0       0
       0       0       0       0       0       0       0       0       0       0
       0       0       0       0       0       0       0       0       0       0
       0       0       0       0       0       0       0       0       0       0
       0       0       0       0       0       0       0       0       0       0
       0       0       0       0       0       0       0       0       0       0
       0       0       0       0       0       0       0       0       0       0
       0       0       0       0       0       0       0       0       0       0
       0       0       0       0       0       0       0       0       0       0
       0       0       0       0       0       0       0       0       0       0
       0       0       0       0       0       0       0       0       0       0
       0       0       0       0       0       0       0       0       0       0
       0       0       0       0       0       0       0       0       0       0
       0       0       0       0       0       0       0       0       0       0
       0       0       0       0       0       0       0       0       0       0
       0       0       0       0       0       0       0       0       0       0
       0       0       0       0       0       0       0       0       0       0
       0       0       0       0       0       0       0       0       0       0
       0       0       0       0       0       0       0       0       0       0
       0       0       0       0       0       0       0       0       0       0
       0       0       0       0       0       0       0       0       0       0
       0       0       0       0       0       0       0       0       0       0
       0       0       0       0       0       0       0       0       0       0
       0       0       0       0       0       0       0       0       0       0
       0       0       0       0       0       0       0       0       0       0
       0       0       0       0       0       0       0       0       0       0
       0       0       0       0       0       0       0       0       0       0
       0       0       0       0       0       0       0       0       0       0
       0       0       0       0       0       0       0       0       0       0
       0       0       0       0       0       0       0       0       0       0
       0       0       0       0       0       0       0       0       0       0
       0       0       0       0       0       0       0       0       0       0
       0       0       0       0       0       0       0       0       0       0
       0       0       0       0       0       0       0       0       0       0
       0       0       0       0       0       0       0       0       0       0
       0       0       0       0       0       0       0       0       0       0
       0       0       0       0       0       0       0       0       0       0
       0       0       0       0       0       0       0       0       0       0
       0       0       0       0       0       0       0       0       0       0
       0       0       0       0       0       0       0       0       0       0
       0       0       0       0       0       0       0       0       0       0
       0       0       0       0       0       0       0       0       0       0
       0       0       0       0       0       0       0       0       0       0
       0       0       0       0       0       0       0       0       0       0
       0       0       0       0       0       0       0       0       0       0
       0       0       0       0       0       0       0       0       0       0
       0       0       0       0       0       0       0       0       0       0
       0       0       0       0       0       0       0       0       0       0
       0       0       0       0       0       0       0       0       0       0
       0       0       0       0       0       0       0       0       0       0
       0       0       0       0       0       0       0       0       0       0
       0       0       0       0       0       0       0       0       0       0
       0       0       0       0       0       0       0       0       0       0
       0       0       0       0       0       0       0       0       0       0
       0       0       0       0       0       0       0       0       0       0
       0       0       0       0       0       0       0       0       0       0
       0       0       0       0       0       0       0       0       0       0
       0       0       0       0       0       0       0       0       0       0
       0       0       0       0       0       0       0       0       0       0
       0       0       0       0       0       0       0       0       0       0
       0       0       0       0       0       0       0       0       0       0
       0       0       0       0       0       0       0       0       0       0
       0       0       0       0       0       0       0       0       0       0
       0       0       0       0       0       0       0       0       0       0
       0       0       0       0       0       0       0       0       0       0
       0       0       0       0       0       0       0       0       0       0
       0       0       0       0       0       0       0       0       0       0
       0       0       0       0       0       0       0       0       0       0
       0       0       0       0       0       0       0       0       0       0
       0       0       0       0       0       0       0       0       0       0
       0       0       0       0       0       0       0       0       0       0
       0       0       0       0       0       0       0       0       0       0
       0       0       0       0       0       0       0       0       0       0
       0       0       0       0       0       0       0       0       0       0
       0       0       0       0       0       0       0       0       0       0
       0       0       0       0       0       0       0       0       0       0
       0       0       0       0       0       0       0       0       0       0
       0       0       0       0       0       0       0       0       0       0
       0       0       0       0       0       0       0       0       0       0
       0       0       0       0       0       0       0       0       0       0
       0       0       0       0       0       0       0       0       0       0
       0       0       0       0       0       0       0       0       0       0
       0       0       0       0       0       0       0       0       0       0
       0       0       0       0       0       0       0       0       0       0
       0       0       0       0       0       0       0       0       0       0
       0       0       0       0       0       0       0       0       0       0
       0       0       0       0       0       0       0       0       0       0
       0       0       0       0       0       0       0       0       0       0
       0       0       0       0       0       0       0       0       0       0
       0       0       0       0       0       0       0       0       0       0
       0       0       0       0       0       0       0       0       0       0
       0       0       0       0       0       0       0       0       0       0
       0       0       0       0       0       0       0       0       0       0
       0       0       0       0       0       0       0       0       0       0
       0       0       0       0       0       0       0       0       0       0
       0       0       0       0       0       0       0       0       0       0
       0       0       0       0       0       0       0       0       0       0
       0       0       0       0       0       0       0       0       0       0
       0       0       0       0       0       0       0       0       0       0
       0       0       0       0       0       0       0       0       0       0
       0       0       0       0       0       0       0       0       0       0
       0       0       0       0       0       0       0       0       0       0
       0       0       0       0       0       0       0       0       0       0
       0       0       0       0       0       0       0       0       0       0
       0       0       0       0       0       0       0       0       0       0
       0       0       0       0       0       0       0       0       0       0
       0       0       0       0       0       0       0       0       0       0
       0       0       0       0       0       0       0       0       0       0
       0       0       0       0       0       0       0       0       0       0
       0       0       0       0       0       0       0       0       0       0
       0       0       0       0       0       0       0       0       0       0
       0       0       0       0       0       0       0       0       0       0
       0       0       0       0       0       0       0       0       0       0
       0       0       0       0       0       0       0       0       0       0
       0       0       0       0       0       0       0       0       0       0
       0       0       0       0       0       0       0       0       0       0
       0       0       0       0       0       0       0       0       0       0
       0       0       0       0       0       0       0       0       0       0
       0       0       0       0       0       0       0       0       0       0
       0       0       0       0       0       0       0       0       0       0
       0       0       0       0       0       0       0       0       0       0
       0       0       0       0       0       0       0       0       0       0
       0       0       0       0       0       0       0       0       0       0
       0       0       0       0       0       0       0       0       0       0
       0       0       0       0       0       0       0       0       0       0
       0       0       0       0       0       0       0       0       0       0
       0       0       0       0       0       0       0       0       0       0
       0       0       0       0       0       0       0       0       0       0
       0       0       0       0       0       0       0       0       0       0
       0       0       0       0       0       0       0       0       0       0
       0       0       0       0       0       0       0       0       0       0
       0       0       0       0       0       0       0       0       0       0
       0       0       0       0       0       0       0       0       0       0
       0       0       0       0       0       0       0       0       0       0
       0       0       0       0       0       0       0       0       0       0
       0       0       0       0       0       0       0       0       0       0
       0       0       0       0       0       0       0       0       0       0
       0       0       0       0       0       0       0       0       0       0
       0       0       0       0       0       0       0       0       0       0
       0       0       0       0       0       0       0       0       0       0
       0       0       0       0       0       0       0       0       0       0
       0       0       0       0       0       0       0       0       0       0
       0       0       0       0       0       0       0       0       0       0
       0       0       0       0       0       0       0       0       0       0
       0       0       0       0       0       0       0       0       0       0
       0       0       0       0       0       0       0       0       0       0
       0       0       0       0       0       0       0       0       0       0
       0       0       0       0       0       0       0       0       0       0
       0       0       0       0       0       0       0       0       0       0
       0       0       0       0       0       0       0       0       0       0
       0       0       0       0       0       0       0       0       0       0
       0       0       0       0       0       0       0       0       0       0
       0       0       0       0       0       0       0       0       0       0
       0       0       0       0       0       0       0       0       0       0
       0       0       0       0       0       0       0       0       0       0
       0       0       0       0       0       0       0       0       0       0
       0       0       0       0       0       0       0       0       0       0
       0       0       0       0       0       0       0       0       0       0
       0       0       0       0       0       0       0       0       0       0
       0       0       0       0       0       0       0       0       0       0
       0       0       0       0       0       0       0       0       0       0
       0       0       0       0       0       0       0       0       0       0
       0       0       0       0       0       0       0       0       0       0
       0       0       0       0       0       0       0       0       0       0
       0       0       0       0       0       0       0       0       0       0
       0       0       0       0       0       0       0       0       0       0
       0       0       0       0       0       0       0       0       0       0
       0       0       0       0       0       0       0       0       0       0
       0       0       0       0       0       0       0       0       0       0
       0       0       0       0       0       0       0       0       0       0
       0       0       0       0       0       0       0       0       0       0
       0       0       0       0       0       0       0       0       0       0
       0       0       0       0       0       0       0       0       0       0
       0       0       0       0       0       0       0       0       0       0
       0       0       0       0       0       0       0       0       0       0
       0       0       0       0       0       0       0       0       0       0
       0       0       0       0       0       0       0       0       0       0
       0       0       0       0       0       0       0       0       0       0
       0       0       0       0       0       0       0       0       0       0
       0       0       0       0       0       0       0       0       0       0
       0       0       0       0       0       0       0       0       0       0
       0       0       0       0       0       0       0       0       0       0
       0       0       0       0       0       0       0       0       0       0
       0       0       0       0       0       0       0       0       0       0
       0       0       0       0       0       0       0       0       0       0
       0       0       0       0       0       0       0       0       0       0
       0       0       0       0       0       0       0       0       0       0
       0       0       0       0       0       0       0       0       0       0
       0       0       0       0       0       0       0       0       0       0
       0       0       0       0       0       0       0       0       0       0
       0       0       0       0       0       0       0       0       0       0
       0       0       0       0       0       0       0       0       0       0
       0       0       0       0       0       0       0       0       0       0
       0       0       0       0       0       0       0       0       0       0
       0       0       0       0       0       0       0       0       0       0
       0       0       0       0       0       0       0       0       0       0
       0       0       0       0       0       0       0       0       0       0
       0       0       0       0       0       0       0       0       0       0
       0       0       0       0       0       0       0       0       0       0
       0       0       0       0       0       0       0       0       0       0
       0       0       0       0       0       0       0       0       0       0
       0       0       0       0       0       0       0       0       0       0
       0       0       0       0       0       0       0       0       0       0
       0       0       0       0       0       0       0       0       0       0
       0       0       0       0       0       0       0       0       0       0
       0       0       0       0       0       0       0       0       0       0
       0       0       0       0       0       0       0       0       0       0
       0       0       0       0       0       0       0       0       0       0
       0       0       0       0       0       0       0       0       0       0
       0       0       0       0       0       0       0       0       0       0
       0       0       0       0       0       0       0       0       0       0
       0       0       0       0       0       0       0       0       0       0
       0       0       0       0       0       0       0       0       0       0
       0       0       0       0       0       0       0       0       0       0
       0       0       0       0       0       0       0       0       0       0
       0       0       0       0       0       0       0       0       0       0
       0       0       0       0       0       0       0       0       0       0
       0       0       0       0       0       0       0       0       0       0
       0       0       0       0       0       0       0       0       0       0
       0       0       0       0       0       0       0       0       0       0
       0       0       0       0       0       0       0       0       0       0
       0       0       0       0       0       0       0       0       0       0
       0       0       0       0       0       0       0       0       0       0
       0       0       0       0       0       0       0       0       0       0
       0       0       0       0       0       0       0       0       0       0
       0       0       0       0       0       0       0       0       0       0
       0       0       0       0       0       0       0       0       0       0
       0       0       0       0       0       0       0       0       0       0
       0       0       0       0       0       0       0       0       0       0
       0       0       0       0       0       0       0       0       0       0
       0       0       0       0       0       0       0       0       0       0
       0       0       0       0       0       0       0       0       0       0
       0       0       0       0       0       0       0       0       0       0
       0       0       0       0       0       0       0       0       0       0
       0       0       0       0       0       0       0       0       0       0
       0       0       0       0       0       0       0       0       0       0
       0       0       0       0       0       0       0       0       0       0
       0       0       0       0       0       0       0       0       0       0
       0       0       0       0       0       0       0       0       0       0
       0       0       0       0       0       0       0       0       0       0
       0       0       0       0       0       0       0       0       0       0
       0       0       0       0       0       0       0       0       0       0
       0       0       0       0       0       0       0       0       0       0
       0       0       0       0       0       0       0       0       0       0
       0       0       0       0       0       0       0       0       0       0
       0       0       0       0       0       0       0       0       0       0
       0       0       0       0       0       0       0       0       0       0
       0       0       0       0       0       0       0       0       0       0
       0       0       0       0       0       0       0       0       0       0
       0       0       0       0       0       0       0       0       0       0
       0       0       0       0       0       0       0       0       0       0
       0       0       0       0       0       0       0       0       0       0
       0       0       0       0       0       0       0       0       0       0
       0       0       0       0       0       0       0       0       0       0
       0       0       0       0       0       0       0       0       0       0
       0       0       0       0       0       0       0       0       0       0
       0       0       0       0       0       0       0       0       0       0
       0       0       0       0       0       0       0       0       0       0
       0       0       0       0       0       0       0       0       0       0
       0       0       0       0       0       0       0       0       0       0
       0       0       0       0       0       0       0       0       0       0
       0       0       0       0       0       0       0       0       0       0
       0       0       0       0       0       0       0       0       0       0
       0       0       0       0       0       0       0       0       0       0
       0       0       0       0       0       0       0       0       0       0
       0       0       0       0       0       0       0       0       0       0
       0       0       0       0       0       0       0       0       0       0
       0       0       0       0       0       0       0       0       0       0
       0       0       0       0       0       0       0       0       0       0
       0       0       0       0       0       0       0       0       0       0
       0       0       0       0       0       0       0       0       0       0
       0       0       0       0       0       0       0       0       0       0
       0       0       0       0       0       0       0       0       0       0
       0       0       0       0       0       0       0       0       0       0
       0       0       0       0       0       0       0       0       0       0
       0       0       0       0       0       0       0       0       0       0
       0       0       0       0       0       0       0       0       0       0
       0       0       0       0       0       0       0       0       0       0
       0       0       0       0       0       0       0       0       0       0
       0       0       0       0       0       0       0       0       0       0
       0       0       0       0       0       0       0       0       0       0
       0       0       0       0       0       0       0       0       0       0
       0       0       0       0       0       0       0       0       0       0
       0       0       0       0       0       0       0       0       0       0
       0       0       0       0       0       0       0       0       0       0
       0       0       0       0       0       0       0       0       0       0
       0       0       0       0       0       0       0       0       0       0
       0       0       0       0       0       0       0       0       0       0
       0       0       0       0       0       0       0       0       0       0
       0       0       0       0       0       0       0       0       0       0
       0       0       0       0       0       0       0       0       0       0
       0       0       0       0       0       0       0       0       0       0
       0       0       0       0       0       0       0       0       0       0
       0       0       0       0       0       0       0       0       0       0
       0       0       0       0       0       0       0       0       0       0
       0       0       0       0       0       0       0       0       0       0
       0       0       0       0       0       0       0       0       0       0
       0       0       0       0       0       0       0       0       0       0
       0       0       0       0       0       0       0       0       0       0
       0       0       0       0       0       0       0       0       0       0
       0       0       0       0       0       0       0       0       0       0
       0       0       0       0       0       0       0       0       0       0
       0       0       0       0       0       0       0       0       0       0
       0       0       0       0       0       0       0       0       0       0
       0       0       0       0       0       0       0       0       0       0
       0       0       0       0       0       0       0       0       0       0
       0       0       0       0       0       0       0       0       0       0
       0       0       0       0       0       0       0       0       0       0
       0       0       0       0       0       0       0       0       0       0
       0       0       0       0       0       0       0       0       0       0
       0       0       0       0       0       0       0       0       0       0
       0       0       0       0       0       0       0       0       0       0
       0       0       0       0       0       0       0       0       0       0
       0       0       0       0       0       0       0       0       0       0
       0       0       0       0       0       0       0       0       0       0
       0       0       0       0       0       0       0       0       0       0
       0       0       0       0       0       0       0       0       0       0
       0       0       0       0       0       0       0       0       0       0
       0       0       0       0       0       0       0       0       0       0
       0       0       0       0       0       0       0       0       0       0
       0       0       0       0       0       0       0       0       0       0
       0       0       0       0       0       0       0       0       0       0
       0       0       0       0       0       0       0       0       0       0
       0       0       0       0       0       0       0       0       0       0
       0       0       0       0       0       0       0       0       0       0
       0       0       0       0       0       0       0       0       0       0
       0       0       0       0       0       0       0       0       0       0
       0       0       0       0       0       0       0       0       0       0
       0       0       0       0       0       0       0       0       0       0
       0       0       0       0       0       0       0       0       0       0
       0       0       0       0       0       0       0       0       0       0
       0       0       0       0       0       0       0       0       0       0
       0       0       0       0       0       0       0       0       0       0
       0       0       0       0       0       0       0       0       0       0
       0       0       0       0       0       0       0       0       0       0
       0       0       0       0       0       0       0       0       0       0
       0       0       0       0       0       0       0       0       0       0
       0       0       0       0       0       0       0       0       0       0
       0       0       0       0       0       0       0       0       0       0
       0       0       0       0       0       0       0       0       0       0
       0       0       0       0       0       0       0       0       0       0
       0       0       0       0       0       0       0       0       0       0
       0       0       0       0       0       0       0       0       0       0
       0       0       0       0       0       0       0       0       0       0
       0       0       0       0       0       0       0       0       0       0
       0       0       0       0       0       0       0       0       0       0
       0       0       0       0       0       0       0       0       0       0
       0       0       0       0       0       0       0       0       0       0
       0       0       0       0       0       0       0       0       0       0
       0       0       0       0       0       0       0       0       0       0
       0       0       0       0       0       0       0       0       0       0
       0       0       0       0       0       0       0       0       0       0
       0       0       0       0       0       0       0       0       0       0
       0       0       0       0       0       0       0       0       0       0
       0       0       0       0       0       0       0       0       0       0
       0       0       0       0       0       0       0       0       0       0
       0       0       0       0       0       0       0       0       0       0
       0       0       0       0       0       0       0       0       0       0
       0       0       0       0       0       0       0       0       0       0
       0       0       0       0       0       0       0       0       0       0
       0       0       0       0       0       0       0       0       0       0
       0       0       0       0       0       0       0       0       0       0
       0       0       0       0       0       0       0       0       0       0
       0       0       0       0       0       0       0       0       0       0
       0       0       0       0       0       0       0       0       0       0
       0       0       0       0       0       0       0       0       0       0
       0       0       0       0       0       0       0       0       0       0
       0       0       0       0       0       0       0       0       0       0
       0       0       0       0       0       0       0       0       0       0
       0       0       0       0       0       0       0       0       0       0
       0       0       0       0       0       0       0       0       0       0
       0       0       0       0       0       0       0       0       0       0
       0       0       0       0       0       0       0       0       0       0
       0       0       0       0       0       0       0       0       0       0
       0       0       0       0       0       0       0       0       0       0
       0       0       0       0       0       0       0       0       0       0
       0       0       0       0       0       0       0       0       0       0
       0       0       0       0       0       0       0       0       0       0
       0       0       0       0       0       0       0       0       0       0
       0       0       0       0       0       0       0       0       0       0
       0       0       0       0       0       0       0       0       0       0
       0       0       0       0       0       0       0       0       0       0
       0       0       0       0       0       0       0       0       0       0
       0       0       0       0       0       0       0       0       0       0
       0       0       0       0       0       0       0       0       0       0
       0       0       0       0       0       0       0       0       0       0
       0       0       0       0       0       0       0       0       0       0
       0       0       0       0       0       0       0       0       0       0
       0       0       0       0       0       0       0       0       0       0
       0       0       0       0       0       0       0       0       0       0
       0       0       0       0       0       0       0       0       0       0
       0       0       0       0       0       0       0       0       0       0
       0       0       0       0       0       0       0       0       0       0
       0       0       0       0       0       0       0       0       0       0
       0       0       0       0       0       0       0       0       0       0
       0       0       0       0       0       0       0       0       0       0
       0       0       0       0       0       0       0       0       0       0
       0       0       0       0       0       0       0       0       0       0
       0       0       0       0       0       0       0       0       0       0
       0       0       0       0       0       0       0       0       0       0
       0       0       0       0       0       0       0       0       0       0
       0       0       0       0       0       0       0       0       0       0
       0       0       0       0       0       0       0       0       0       0
       0       0       0       0       0       0       0       0       0       0
       0       0       0       0       0       0       0       0       0       0
       0       0       0       0       0       0       0       0       0       0
       0       0       0       0       0       0       0       0       0       0
       0       0       0       0       0       0       0       0       0       0
       0       0       0       0       0       0       0       0       0       0
       0       0       0       0       0       0       0       0       0       0
       0       0       0       0       0       0       0       0       0       0
       0       0       0       0       0       0       0       0       0       0
       0       0       0       0       0       0       0       0       0       0
       0       0       0       0       0       0       0       0       0       0
       0       0       0       0       0       0       0       0       0       0
       0       0       0       0       0       0       0       0       0       0
       0       0       0       0       0       0       0       0       0       0
       0       0       0       0       0       0       0       0       0       0
       0       0       0       0       0       0       0       0       0       0
       0       0       0       0       0       0       0       0       0       0
       0       0       0       0       0       0       0       0       0       0
       0       0       0       0       0       0       0       0       0       0
       0       0       0       0       0       0       0       0       0       0
       0       0       0       0       0       0       0       0       0       0
       0       0       0       0       0       0       0       0       0       0
       0       0       0       0       0       0       0       0       0       0
       0       0       0       0       0       0       0       0       0       0
       0       0       0       0       0       0       0       0       0       0
       0       0       0       0       0       0       0       0       0       0
       0       0       0       0       0       0       0       0       0       0
       0       0       0       0       0       0       0       0       0       0
       0       0       0       0       0       0       0       0       0       0
       0       0       0       0       0       0       0       0       0       0
       0       0       0       0       0       0       0       0       0       0
       0       0       0       0       0       0       0       0       0       0
       0       0       0       0       0       0       0       0       0       0
       0       0       0       0       0       0       0       0       0       0
       0       0       0       0       0       0       0       0       0       0
       0       0       0       0       0       0       0       0       0       0
       0       0       0       0       0       0       0       0       0       0
       0       0       0       0       0       0       0       0       0       0
       0       0       0       0       0       0       0       0       0       0
       0       0       0       0       0       0       0       0       0       0
       0       0       0       0       0       0       0       0       0       0
       0       0       0       0       0       0       0       0       0       0
       0       0       0       0       0       0       0       0       0       0
       0       0       0       0       0       0       0       0       0       0
       0       0       0       0       0       0       0       0       0       0
       0       0       0       0       0       0       0       0       0       0
       0       0       0       0       0       0       0       0       0       0
       0       0       0       0       0       0       0       0       0       0
       0       0       0       0       0       0       0       0       0       0
       0       0       0       0       0       0       0       0       0       0
       0       0       0       0       0       0       0       0       0       0
       0       0       0       0       0       0       0       0       0       0
       0       0       0       0       0       0       0       0       0       0
       0       0       0       0       0       0       0       0       0       0
       0       0       0       0       0       0       0       0       0       0
       0       0       0       0       0       0       0       0       0       0
       0       0       0       0       0       0       0       0       0       0
       0       0       0       0       0       0       0       0       0       0
       0       0       0       0       0       0       0       0       0       0
       0       0       0       0       0       0       0       0       0       0
       0       0       0       0       0       0       0       0       0       0
       0       0       0       0       0       0       0       0       0       0
       0       0       0       0       0       0       0       0       0       0
       0       0       0       0       0       0       0       0       0       0
       0       0       0       0       0       0       0       0       0       0
       0       0       0       0       0       0       0       0       0       0
       0       0       0       0       0       0       0       0       0       0
       0       0       0       0       0       0       0       0       0       0
       0       0       0       0       0       0       0       0       0       0
       0       0       0       0       0       0       0       0       0       0
       0       0       0       0       0       0       0       0       0       0
       0       0       0       0       0       0       0       0       0       0
       0       0       0       0       0       0       0       0       0       0
       0       0       0       0       0       0       0       0       0       0
       0       0       0       0       0       0       0       0       0       0
       0       0       0       0       0       0       0       0       0       0
       0       0       0       0       0       0       0       0       0       0
       0       0       0       0       0       0       0       0       0       0
       0       0       0       0       0       0       0       0       0       0
       0       0       0       0       0       0       0       0       0       0
       0       0       0       0       0       0       0       0       0       0
       0       0       0       0       0       0       0       0       0       0
       0       0       0       0       0       0       0       0       0       0
       0       0       0       0       0       0       0       0       0       0
       0       0       0       0       0       0       0       0       0       0
       0       0       0       0       0       0       0       0       0       0
       0       0       0       0       0       0       0       0       0       0
       0       0       0       0       0       0       0       0       0       0
       0       0       0       0       0       0       0       0       0       0
       0       0       0       0       0       0       0       0       0       0
       0       0       0       0       0       0       0       0       0       0
       0       0       0       0       0       0       0       0       0       0
       0       0       0       0       0       0       0       0       0       0
       0       0       0       0       0       0       0       0       0       0
       0       0       0       0       0       0       0       0       0       0
       0       0       0       0       0       0       0       0       0       0
       0       0       0       0       0       0       0       0       0       0
       0       0       0       0       0       0       0       0       0       0
       0       0       0       0       0       0       0       0       0       0
       0       0       0       0       0       0       0       0       0       0
       0       0       0       0       0       0       0       0       0       0
       0       0       0       0       0       0       0       0       0       0
       0       0       0       0       0       0       0       0       0       0
       0       0       0       0       0       0       0       0       0       0
       0       0       0       0       0       0       0       0       0       0
       0       0       0       0       0       0       0       0       0       0
       0       0       0       0       0       0       0       0       0       0
       0       0       0       0       0       0       0       0       0       0
       0       0       0       0       0       0       0       0       0       0
       0       0       0       0       0       0       0       0       0       0
       0       0       0       0       0       0       0       0       0       0
       0       0       0       0       0       0       0       0       0       0
       0       0       0       0       0       0       0       0       0       0
       0       0       0       0       0       0       0       0       0       0
       0       0       0       0       0       0       0       0       0       0
       0       0       0       0       0       0       0       0       0       0
       0       0       0       0       0       0       0       0       0       0
       0       0       0       0       0       0       0       0       0       0
       0       0       0       0       0       0       0       0       0       0
       0       0       0       0       0       0       0       0       0       0
       0       0       0       0       0       0       0       0       0       0
       0       0       0       0       0       0       0       0       0       0
       0       0       0       0       0       0       0       0       0       0
       0       0       0       0       0       0       0       0       0       0
       0       0       0       0       0       0       0       0       0       0
       0       0       0       0       0       0       0       0       0       0
       0       0       0       0       0       0       0       0       0       0
       0       0       0       0       0       0       0       0       0       0
       0       0       0       0       0       0       0       0       0       0
       0       0       0       0       0       0       0       0       0       0
       0       0       0       0       0       0       0       0       0       0
       0       0       0       0       0       0       0       0       0       0
       0       0       0       0       0       0       0       0       0       0
       0       0       0       0       0       0       0       0       0       0
       0       0       0       0       0       0       0       0       0       0
       0       0       0       0       0       0       0       0       0       0
       0       0       0       0       0       0       0       0       0       0
       0       0       0       0       0       0       0       0       0       0
       0       0       0       0       0       0       0       0       0       0
       0       0       0       0       0       0       0       0       0       0
       0       0       0       0       0       0       0       0       0       0
       0       0       0       0       0       0       0       0       0       0
       0       0       0       0       0       0       0       0       0       0
       0       0       0       0       0       0       0       0       0       0
       0       0       0       0       0       0       0       0       0       0
       0       0       0       0       0       0       0       0       0       0
       0       0       0       0       0       0       0       0       0       0
       0       0       0       0       0       0       0       0       0       0
       0       0       0       0       0       0       0       0       0       0
       0       0       0       0       0       0       0       0       0       0
       0       0       0       0       0       0       0       0       0       0
       0       0       0       0       0       0       0       0       0       0
       0       0       0       0       0       0       0       0       0       0
       0       0       0       0       0       0       0       0       0       0
       0       0       0       0       0       0       0       0       0       0
       0       0       0       0       0       0       0       0       0       0
       0       0       0       0       0       0       0       0       0       0
       0       0       0       0       0       0       0       0       0       0
       0       0       0       0       0       0       0       0       0       0
       0       0       0       0       0       0       0       0       0       0
       0       0       0       0       0       0       0       0       0       0
       0       0       0       0       0       0       0       0       0       0
       0       0       0       0       0       0       0       0       0       0
       0       0       0       0       0       0       0       0       0       0
       0       0       0       0       0       0       0       0       0       0
       0       0       0       0       0       0       0       0       0       0
       0       0       0       0       0       0       0       0       0       0
       0       0       0       0       0       0       0       0       0       0
       0       0       0       0       0       0       0       0       0       0
       0       0       0       0       0       0       0       0       0       0
       0       0       0       0       0       0       0       0       0       0
       0       0       0       0       0       0       0       0       0       0
       0       0       0       0       0       0       0       0       0       0
       0       0       0       0       0       0       0       0       0       0
       0       0       0       0       0       0       0       0       0       0
       0       0       0       0       0       0       0       0       0       0
       0       0       0       0       0       0       0       0       0       0
       0       0       0       0       0       0       0       0       0       0
       0       0       0       0       0       0       0       0       0       0
       0       0       0       0       0       0       0       0       0       0
       0       0       0       0       0       0       0       0       0       0
       0       0       0       0       0       0       0       0       0       0
       0       0       0       0       0       0       0       0       0       0
       0       0       0       0       0       0       0       0       0       0
       0       0       0       0       0       0       0       0       0       0
       0       0       0       0       0       0       0       0       0       0
       0       0       0       0       0       0       0       0       0       0
       0       0       0       0       0       0       0       0       0       0
       0       0       0       0       0       0       0       0       0       0
       0       0       0       0       0       0       0       0       0       0
       0       0       0       0       0       0       0       0       0       0
       0       0       0       0       0       0       0       0       0       0
       0       0       0       0       0       0       0       0       0       0
       0       0       0       0       0       0       0       0       0       0
       0       0       0       0       0       0       0       0       0       0
       0       0       0       0       0       0       0       0       0       0
       0       0       0       0       0       0       0       0       0       0
       0       0       0       0       0       0       0       0       0       0
       0       0       0       0       0       0       0       0       0       0
       0       0       0       0       0       0       0       0       0       0
       0       0       0       0       0       0       0       0       0       0
       0       0       0       0       0       0       0       0       0       0
       0       0       0       0       0       0       0       0       0       0
       0       0       0       0       0       0       0       0       0       0
       0       0       0       0       0       0       0       0       0       0
       0       0       0       0       0       0       0       0       0       0
       0       0       0       0       0       0       0       0       0       0
       0       0       0       0       0       0       0       0       0       0
       0       0       0       0       0       0       0       0       0       0
       0       0       0       0       0       0       0       0       0       0
       0       0       0       0       0       0       0       0       0       0
       0       0       0       0       0       0       0       0       0       0
       0       0       0       0       0       0       0       0       0       0
       0       0       0       0       0       0       0       0       0       0
       0       0       0       0       0       0       0       0       0       0
       0       0       0       0       0       0       0       0       0       0
       0       0       0       0       0       0       0       0       0       0
       0       0       0       0       0       0       0       0       0       0
       0       0       0       0       0       0       0       0       0       0
       0       0       0       0       0       0       0       0       0       0
       0       0       0       0       0       0       0       0       0       0
       0       0       0       0       0       0       0       0       0       0
       0       0       0       0       0       0       0       0       0       0
       0       0       0       0       0       0       0       0       0       0
       0       0       0       0       0       0       0       0       0       0
       0       0       0       0       0       0       0       0       0       0
       0       0       0       0       0       0       0       0       0       0
       0       0       0       0       0       0       0       0       0       0
       0       0       0       0       0       0       0       0       0       0
       0       0       0       0       0       0       0       0       0       0
       0       0       0       0       0       0       0       0       0       0
       0       0       0       0       0       0       0       0       0       0
       0       0       0       0       0       0       0       0       0       0
       0       0       0       0       0       0       0       0       0       0
       0       0       0       0       0       0       0       0       0       0
       0       0       0       0       0       0       0       0       0       0
       0       0       0       0       0       0       0       0       0       0
       0       0       0       0       0       0       0       0       0       0
       0       0       0       0       0       0       0       0       0       0
       0       0       0       0       0       0       0       0       0       0
       0       0       0       0       0       0       0       0       0       0
       0       0       0       0       0       0       0       0       0       0
       0       0       0       0       0       0       0       0       0       0
       0       0       0       0       0       0       0       0       0       0
       0       0       0       0       0       0       0       0       0       0
       0       0       0       0       0       0       0       0       0       0
       0       0       0       0       0       0       0       0       0       0
       0       0       0       0       0       0       0       0       0       0
       0       0       0       0       0       0       0       0       0       0
       0       0       0       0       0       0       0       0       0       0
       0       0       0       0       0       0       0       0       0       0
       0       0       0       0       0       0       0       0       0       0
       0       0       0       0       0       0       0       0       0       0
       0       0       0       0       0       0       0       0       0       0
       0       0       0       0       0       0       0       0       0       0
       0       0       0       0       0       0       0       0       0       0
       0       0       0       0       0       0       0       0       0       0
       0       0       0       0       0       0       0       0       0       0
       0       0       0       0       0       0       0       0       0       0
       0       0       0       0       0       0       0       0       0       0
       0       0       0       0       0       0       0       0       0       0
       0       0       0       0       0       0       0       0       0       0
       0       0       0       0       0       0       0       0       0       0
       0       0       0       0       0       0       0       0       0       0
       0       0       0       0       0       0       0       0       0       0
       0       0       0       0       0       0       0       0       0       0
       0       0       0       0       0       0       0       0       0       0
       0       0       0       0       0       0       0       0       0       0
       0       0       0       0       0       0       0       0       0       0
       0       0       0       0       0       0       0       0       0       0
       0       0       0       0       0       0       0       0       0       0
       0       0       0       0       0       0       0       0       0       0
       0       0       0       0       0       0       0       0       0       0
       0       0       0       0       0       0       0       0       0       0
       0       0       0       0       0       0       0       0       0       0
       0       0       0       0       0       0       0       0       0       0
       0       0       0       0       0       0       0       0       0       0
       0       0       0       0       0       0       0       0       0       0
       0       0       0       0       0       0       0       0       0       0
       0       0       0       0       0       0       0       0       0       0
       0       0       0       0       0       0       0       0       0       0
       0       0       0       0       0       0       0       0       0       0
       0       0       0       0       0       0       0       0       0       0
       0       0       0       0       0       0       0       0       0       0
       0       0       0       0       0       0       0       0       0       0
       0       0       0       0       0       0       0       0       0       0
       0       0       0       0       0       0       0       0       0       0
       0       0       0       0       0       0       0       0       0       0
       0       0       0       0       0       0       0       0       0       0
       0       0       0       0       0       0       0       0       0       0
       0       0       0       0       0       0       0       0       0       0
       0       0       0       0       0       0       0       0       0       0
       0       0       0       0       0       0       0       0       0       0
       0       0       0       0       0       0       0       0       0       0
       0       0       0       0       0       0       0       0       0       0
       0       0       0       0       0       0       0       0       0       0
       0       0       0       0       0       0       0       0       0       0
       0       0       0       0       0       0       0       0       0       0
       0       0       0       0       0       0       0       0       0       0
       0       0       0       0       0       0       0       0       0       0
       0       0       0       0       0       0       0       0       0       0
       0       0       0       0       0       0       0       0       0       0
       0       0       0       0       0       0       0       0       0       0
       0       0       0       0       0       0       0       0       0       0
       0       0       0       0       0       0       0       0       0       0
       0       0       0       0       0       0       0       0       0       0
       0       0       0       0       0       0       0       0       0       0
       0       0       0       0       0       0       0       0       0       0
       0       0       0       0       0       0       0       0       0       0
       0       0       0       0       0       0       0       0       0       0
       0       0       0       0       0       0       0       0       0       0
       0       0       0       0       0       0       0       0       0       0
       0       0       0       0       0       0       0       0       0       0
       0       0       0       0       0       0       0       0       0       0
       0       0       0       0       0       0       0       0       0       0
       0       0       0       0       0       0       0       0       0       0
       0       0       0       0       0       0       0       0       0       0
       0       0       0       0       0       0       0       0       0       0
       0       0       0       0       0       0       0       0       0       0
       0       0       0       0       0       0       0       0       0       0
       0       0       0       0       0       0       0       0       0       0
       0       0       0       0       0       0       0       0       0       0
       0       0       0       0       0       0       0       0       0       0
       0       0       0       0       0       0       0       0       0       0
       0       0       0       0       0       0       0       0       0       0
       0       0       0       0       0       0       0       0       0       0
       0       0       0       0       0       0       0       0       0       0
       0       0       0       0       0       0       0       0       0       0
       0       0       0       0       0       0       0       0       0       0
       0       0       0       0       0       0       0       0       0       0
       0       0       0       0       0       0       0       0       0       0
       0       0       0       0       0       0       0       0       0       0
       0       0       0       0       0       0       0       0       0       0
       0       0       0       0       0       0       0       0       0       0
       0       0       0       0       0       0       0       0       0       0
       0       0       0       0       0       0       0       0       0       0
       0       0       0       0       0       0       0       0       0       0
       0       0       0       0       0       0       0       0       0       0
       0       0       0       0       0       0       0       0       0       0
       0       0       0       0       0       0       0       0       0       0
       0       0       0       0       0       0       0       0       0       0
       0       0       0       0       0       0       0       0       0       0
       0       0       0       0       0       0       0       0       0       0
       0       0       0       0       0       0       0       0       0       0
       0       0       0       0       0       0       0       0       0       0
       0       0       0       0       0       0       0       0       0       0
       0       0       0       0       0       0       0       0       0       0
       0       0       0       0       0       0       0       0       0       0
       0       0       0       0       0       0       0       0       0       0
       0       0       0       0       0       0       0       0       0       0
       0       0       0       0       0       0       0       0       0       0
       0       0       0       0       0       0       0       0       0       0
       0       0       0       0       0       0       0       0       0       0
       0       0       0       0       0       0       0       0       0       0
       0       0       0       0       0       0       0       0       0       0
       0       0       0       0       0       0       0       0       0       0
       0       0       0       0       0       0       0       0       0       0
       0       0       0       0       0       0       0       0       0       0
       0       0       0       0       0       0       0       0       0       0
       0       0       0       0       0       0       0       0       0       0
       0       0       0       0       0       0       0       0       0       0
       0       0       0       0       0       0       0       0       0       0
       0       0       0       0       0       0       0       0       0       0
       0       0       0       0       0       0       0       0       0       0
       0       0       0       0       0       0       0       0       0       0
       0       0       0       0       0       0       0       0       0       0
       0       0       0       0       0       0       0       0       0       0
       0       0       0       0       0       0       0       0       0       0
       0       0       0       0       0       0       0       0       0       0
       0       0       0       0       0       0       0       0       0       0
       0       0       0       0       0       0       0       0       0       0
       0       0       0       0       0       0       0       0       0       0
       0       0       0       0       0       0       0       0       0       0
       0       0       0       0       0       0       0       0       0       0
       0       0       0       0       0       0       0       0       0       0
       0       0       0       0       0       0       0       0       0       0
       0       0       0       0       0       0       0       0       0       0
       0       0       0       0       0       0       0       0       0       0
       0       0       0       0       0       0       0       0       0       0
       0       0       0       0       0       0       0       0       0       0
       0       0       0       0       0       0       0       0       0       0
       0       0       0       0       0       0       0       0       0       0
       0       0       0       0       0       0       0       0       0       0
       0       0       0       0       0       0       0       0       0       0
       0       0       0       0       0       0       0       0       0       0
       0       0       0       0       0       0       0       0       0       0
       0       0       0       0       0       0       0       0       0       0
       0       0       0       0       0       0       0       0       0       0
       0       0       0       0       0       0       0       0       0       0
       0       0       0       0       0       0       0       0       0       0
       0       0       0       0       0       0       0       0       0       0
       0       0       0       0       0       0       0       0       0       0
       0       0       0       0       0       0       0       0       0       0
       0       0       0       0       0       0       0       0       0       0
       0       0       0       0       0       0       0       0       0       0
       0       0       0       0       0       0       0       0       0       0
       0       0       0       0       0       0       0       0       0       0
       0       0       0       0       0       0       0       0       0       0
       0       0       0       0       0       0       0       0       0       0
       0       0       0       0       0       0       0       0       0       0
       0       0       0       0       0       0       0       0       0       0
       0       0       0       0       0       0       0       0       0       0
       0       0       0       0       0       0       0       0       0       0
       0       0       0       0       0       0       0       0       0       0
       0       0       0       0       0       0       0       0       0       0
       0       0       0       0       0       0       0       0       0       0
       0       0       0       0       0       0       0       0       0       0
       0       0       0       0       0       0       0       0       0       0
       0       0       0       0       0       0       0       0       0       0
       0       0       0       0       0       0       0       0       0       0
       0       0       0       0       0       0       0       0       0       0
       0       0       0       0       0       0       0       0       0       0
       0       0       0       0       0       0       0       0       0       0
       0       0       0       0       0       0       0       0       0       0
       0       0       0       0       0       0       0       0       0       0
       0       0       0       0       0       0       0       0       0       0
       0       0       0       0       0       0       0       0       0       0
       0       0       0       0       0       0       0       0       0       0
       0       0       0       0       0       0       0       0       0       0
       0       0       0       0       0       0       0       0       0       0
       0       0       0       0       0       0       0       0       0       0
       0       0       0       0       0       0       0       0       0       0
       0       0       0       0       0       0       0       0       0       0
       0       0       0       0       0       0       0       0       0       0
       0       0       0       0       0       0       0       0       0       0
       0       0       0       0       0       0       0       0       0       0
       0       0       0       0       0       0       0       0       0       0
       0       0       0       0       0       0       0       0       0       0
       0       0       0       0       0       0       0       0       0       0
       0       0       0       0       0       0       0       0       0       0
       0       0       0       0       0       0       0       0       0       0
       0       0       0       0       0       0       0       0       0       0
       0       0       0       0       0       0       0       0       0       0
       0       0       0       0       0       0       0       0       0       0
       0       0       0       0       0       0       0       0       0       0
       0       0       0       0       0       0       0       0       0       0
       0       0       0       0       0       0       0       0       0       0
       0       0       0       0       0       0       0       0       0       0
       0       0       0       0       0       0       0       0       0       0
       0       0       0       0       0       0       0       0       0       0
       0       0       0       0       0       0       0       0       0       0
       0       0       0       0       0       0       0       0       0       0
       0       0       0       0       0       0       0       0       0       0
       0       0       0       0       0       0       0       0       0       0
       0       0       0       0       0       0       0       0       0       0
       0       0       0       0       0       0       0       0       0       0
       0       0       0       0       0       0       0       0       0       0
       0       0       0       0       0       0       0       0       0       0
       0       0       0       0       0       0       0       0       0       0
       0       0       0       0       0       0       0       0       0       0
       0       0       0       0       0       0       0       0       0       0
       0       0       0       0       0       0       0       0       0       0
       0       0       0       0       0       0       0       0       0       0
       0       0       0       0       0       0       0       0       0       0
       0       0       0       0       0       0       0       0       0       0
       0       0       0       0       0       0       0       0       0       0
       0       0       0       0       0       0       0       0       0       0
       0       0       0       0       0       0       0       0       0       0
       0       0       0       0       0       0       0       0       0       0
       0       0       0       0       0       0       0       0       0       0
       0       0       0       0       0       0       0       0       0       0
       0       0       0       0       0       0       0       0       0       0
       0       0       0       0       0       0       0       0       0       0
       0       0       0       0       0       0       0       0       0       0
       0       0       0       0       0       0       0       0       0       0
       0       0       0       0       0       0       0       0       0       0
       0       0       0       0       0       0       0       0       0       0
       0       0       0       0       0       0       0       0       0       0
       0       0       0       0       0       0       0       0       0       0
       0       0       0       0       0       0       0       0       0       0
       0       0       0       0       0       0       0       0       0       0
       0       0       0       0       0       0       0       0       0       0
       0       0       0       0       0       0       0       0       0       0
       0       0       0       0       0       0       0       0       0       0
       0       0       0       0       0       0       0       0       0       0
       0       0       0       0       0       0       0       0       0       0
       0       0       0       0       0       0       0       0       0       0
       0       0       0       0       0       0       0       0       0       0
       0       0       0       0       0       0       0       0       0       0
       0       0       0       0       0       0       0       0       0       0
       0       0       0       0       0       0       0       0       0       0
       0       0       0       0       0       0       0       0       0       0
       0       0       0       0       0       0       0       0       0       0
       0       0       0       0       0       0       0       0       0       0
       0       0       0       0       0       0       0       0       0       0
       0       0       0       0       0       0       0       0       0       0
       0       0       0       0       0       0       0       0       0       0
       0       0       0       0       0       0       0       0       0       0
       0       0       0       0       0       0       0       0       0       0
       0       0       0       0       0       0       0       0       0       0
       0       0       0       0       0       0       0       0       0       0
       0       0       0       0       0       0       0       0       0       0
       0       0       0       0       0       0       0       0       0       0
       0       0       0       0       0       0       0       0       0       0
       0       0       0       0       0       0       0       0       0       0
       0       0       0       0       0       0       0       0       0       0
       0       0       0       0       0       0       0       0       0       0
       0       0       0       0       0       0       0       0       0       0
       0       0       0       0       0       0       0       0       0       0
       0       0       0       0       0       0       0       0       0       0
       0       0       0       0       0       0       0       0       0       0
       0       0       0       0       0       0       0       0       0       0
       0       0       0       0       0       0       0       0       0       0
       0       0       0       0       0       0       0       0       0       0
       0       0       0       0       0       0       0       0       0       0
       0       0       0       0       0       0       0       0       0       0
       0       0       0       0       0       0       0       0       0       0
       0       0       0       0       0       0       0       0       0       0
       0       0       0       0       0       0       0       0       0       0
       0       0       0       0       0       0       0       0       0       0
       0       0       0       0       0       0       0       0       0       0
       0       0       0       0       0       0       0       0       0       0
       0       0       0       0       0       0       0       0       0       0
       0       0       0       0       0       0       0       0       0       0
       0       0       0       0       0       0       0       0       0       0
       0       0       0       0       0       0       0       0       0       0
       0       0       0       0       0       0       0       0       0       0
       0       0       0       0       0       0       0       0       0       0
       0       0       0       0       0       0       0       0       0       0
       0       0       0       0       0       0       0       0       0       0
       0       0       0       0       0       0       0       0       0       0
       0       0       0       0       0       0       0       0       0       0
       0       0       0       0       0       0       0       0       0       0
       0       0       0       0       0       0       0       0       0       0
       0       0       0       0       0       0       0       0       0       0
       0       0       0       0       0       0       0       0       0       0
       0       0       0       0       0       0       0       0       0       0
       0       0       0       0       0       0       0       0       0       0
       0       0       0       0       0       0       0       0       0       0
       0       0       0       0       0       0       0       0       0       0
       0       0       0       0       0       0       0       0       0       0
       0       0       0       0       0       0       0       0       0       0
       0       0       0       0       0       0       0       0       0       0
       0       0       0       0       0       0       0       0       0       0
       0       0       0       0       0       0       0       0       0       0
       0       0       0       0       0       0       0       0       0       0
       0       0       0       0       0       0       0       0       0       0
       0       0       0       0       0       0       0       0       0       0
       0       0       0       0       0       0       0       0       0       0
       0       0       0       0       0       0       0       0       0       0
       0       0       0       0       0       0       0       0       0       0
       0       0       0       0       0       0       0       0       0       0
       0       0       0       0       0       0       0       0       0       0
       0       0       0       0       0       0       0       0       0       0
       0       0       0       0       0       0       0       0       0       0
       0       0       0       0       0       0       0       0       0       0
       0       0       0       0       0       0       0       0       0       0
       0       0       0       0       0       0       0       0       0       0
       0       0       0       0       0       0       0       0       0       0
       0       0       0       0       0       0       0       0       0       0
       0       0       0       0       0       0       0       0       0       0
       0       0       0       0       0       0       0       0       0       0
       0       0       0       0       0       0       0       0       0       0
       0       0       0       0       0       0       0       0       0       0
       0       0       0       0       0       0       0       0       0       0
       0       0       0       0       0       0       0       0       0       0
       0       0       0       0       0       0       0       0       0       0
       0       0       0       0       0       0       0       0       0       0
       0       0       0       0       0       0       0       0       0       0
       0       0       0       0       0       0       0       0       0       0
       0       0       0       0       0       0       0       0       0       0
       0       0       0       0       0       0       0       0       0       0
       0       0       0       0       0       0       0       0       0       0
       0       0       0       0       0       0       0       0       0       0
       0       0       0       0       0       0       0       0       0       0
       0       0       0       0       0       0       0       0       0       0
       0       0       0       0       0       0       0       0       0       0
       0       0       0       0       0       0       0       0       0       0
       0       0       0       0       0       0       0       0       0       0
       0       0       0       0       0       0       0       0       0       0
       0       0       0       0       0       0       0       0       0       0
       0       0       0       0       0       0       0       0       0       0
       0       0       0       0       0       0       0       0       0       0
       0       0       0       0       0       0       0       0       0       0
       0       0       0       0       0       0       0       0       0       0
       0       0       0       0       0       0       0       0       0       0
       0       0       0       0       0       0       0       0       0       0
       0       0       0       0       0       0       0       0       0       0
       0       0       0       0       0       0       0       0       0       0
       0       0       0       0       0       0       0       0       0       0
       0       0       0       0       0       0       0       0       0       0
       0       0       0       0       0       0       0       0       0       0
       0       0       0       0       0       0       0       0       0       0
       0       0       0       0       0       0       0       0       0       0
       0       0       0       0       0       0       0       0       0       0
       0       0       0       0       0       0       0       0       0       0
       0       0       0       0       0       0       0       0       0       0
       0       0       0       0       0       0       0       0       0       0
       0       0       0       0       0       0       0       0       0       0
       0       0       0       0       0       0       0       0       0       0
       0       0       0       0       0       0       0       0       0       0
       0       0       0       0       0       0       0       0       0       0
       0       0       0       0       0       0       0       0       0       0
       0       0       0       0       0       0       0       0       0       0
       0       0       0       0       0       0       0       0       0       0
       0       0       0       0       0       0       0       0       0       0
       0       0       0       0       0       0       0       0       0       0
       0       0       0       0       0       0       0       0       0       0
       0       0       0       0       0       0       0       0       0       0
       0       0       0       0       0       0       0       0       0       0
       0       0       0       0       0       0       0       0       0       0
       0       0       0       0       0       0       0       0       0       0
       0       0       0       0       0       0       0       0       0       0
       0       0       0       0       0       0       0       0       0       0
       0       0       0       0       0       0       0       0       0       0
       0       0       0       0       0       0       0       0       0       0
       0       0       0       0       0       0       0       0       0       0
       0       0       0       0       0       0       0       0       0       0
       0       0       0       0       0       0       0       0       0       0
       0       0       0       0       0       0       0       0       0       0
       0       0       0       0       0       0       0       0       0       0
       0       0       0       0       0       0       0       0       0       0
       0       0       0       0       0       0       0       0       0       0
       0       0       0       0       0       0       0       0       0       0
       0       0       0       0       0       0       0       0       0       0
       0       0       0       0       0       0       0       0       0       0
       0       0       0       0       0       0       0       0       0       0
       0       0       0       0       0       0       0       0       0       0
       0       0       0       0       0       0       0       0       0       0
       0       0       0       0       0       0       0       0       0       0
       0       0       0       0       0       0       0       0       0       0
       0       0       0       0       0       0       0       0       0       0
       0       0       0       0       0       0       0       0       0       0
       0       0       0       0       0       0       0       0       0       0
       0       0       0       0       0       0       0       0       0       0
       0       0       0       0       0       0       0       0       0       0
       0       0       0       0       0       0       0       0       0       0
       0       0       0       0       0       0       0       0       0       0
       0       0       0       0       0       0       0       0       0       0
       0       0       0       0       0       0       0       0       0       0
       0       0       0       0       0       0       0       0       0       0
       0       0       0       0       0       0       0       0       0       0
       0       0       0       0       0       0       0       0       0       0
       0       0       0       0       0       0       0       0       0       0
       0       0       0       0       0       0       0       0       0       0
       0       0       0       0       0       0       0       0       0       0
       0       0       0       0       0       0       0       0       0       0
       0       0       0       0       0       0       0       0       0       0
       0       0       0       0       0       0       0       0       0       0
       0       0       0       0       0       0       0       0       0       0
       0       0       0       0       0       0       0       0       0       0
       0       0       0       0       0       0       0       0       0       0
       0       0       0       0       0       0       0       0       0       0
       0       0       0       0       0       0       0       0       0       0
       0       0       0       0       0       0       0       0       0       0
       0       0       0       0       0       0       0       0       0       0
       0       0       0       0       0       0       0       0       0       0
       0       0       0       0       0       0       0       0       0       0
       0       0       0       0       0       0       0       0       0       0
       0       0       0       0       0       0       0       0       0       0
       0       0       0       0       0       0       0       0       0       0
       0       0       0       0       0       0       0       0       0       0
       0       0       0       0       0       0       0       0       0       0
       0       0       0       0       0       0       0       0       0       0
       0       0       0       0       0       0       0       0       0       0
       0       0       0       0       0       0       0       0       0       0
       0       0       0       0       0       0       0       0       0       0
       0       0       0       0       0       0       0       0       0       0
       0       0       0       0       0       0       0       0       0       0
       0       0       0       0       0       0       0       0       0       0
       0       0       0       0       0       0       0       0       0       0
       0       0       0       0       0       0       0       0       0       0
       0       0       0       0       0       0       0       0       0       0
       0       0       0       0       0       0       0       0       0       0
       0       0       0       0       0       0       0       0       0       0
       0       0       0       0       0       0       0       0       0       0
       0       0       0       0       0       0       0       0       0       0
       0       0       0       0       0       0       0       0       0       0
       0       0       0       0       0       0       0       0       0       0
       0       0       0       0       0       0       0       0       0       0
       0       0       0       0       0       0       0       0       0       0
       0       0       0       0       0       0       0       0       0       0
       0       0       0       0       0       0       0       0       0       0
       0       0       0       0       0       0       0       0       0       0
       0       0       0       0       0       0       0       0       0       0
       0       0       0       0       0       0       0       0       0       0
       0       0       0       0       0       0       0       0       0       0
       0       0       0       0       0       0       0       0       0       0
       0       0       0       0       0       0       0       0       0       0
       0       0       0       0       0       0       0       0       0       0
       0       0       0       0       0       0       0       0       0       0
       0       0       0       0       0       0       0       0       0       0
       0       0       0       0       0       0       0       0       0       0
       0       0       0       0       0       0       0       0       0       0
       0       0       0       0       0       0       0       0       0       0
       0       0       0       0       0       0       0       0       0       0
       0       0       0       0       0       0       0       0       0       0
       0       0       0       0       0       0       0       0       0       0
       0       0       0       0       0       0       0       0       0       0
       0       0       0       0       0       0       0       0       0       0
       0       0       0       0       0       0       0       0       0       0
       0       0       0       0       0       0       0       0       0       0
       0       0       0       0       0       0       0       0       0       0
       0       0       0       0       0       0       0       0       0       0
       0       0       0       0       0       0       0       0       0       0
       0       0       0       0       0       0       0       0       0       0
       0       0       0       0       0       0       0       0       0       0
       0       0       0       0       0       0       0       0       0       0
       0       0       0       0       0       0       0       0       0       0
       0       0       0       0       0       0       0       0       0       0
       0       0       0       0       0       0       0       0       0       0
       0       0       0       0       0       0       0       0       0       0
       0       0       0       0       0       0       0       0       0       0
       0       0       0       0       0       0       0       0       0       0
       0       0       0       0       0       0       0       0       0       0
       0       0       0       0       0       0       0       0       0       0
       0       0       0       0       0       0       0       0       0       0
       0       0       0       0       0       0       0       0       0       0
       0       0       0       0       0       0       0       0       0       0
       0       0       0       0       0       0       0       0       0       0
       0       0       0       0       0       0       0       0       0       0
       0       0       0       0       0       0       0       0       0       0
       0       0       0       0       0       0       0       0       0       0
       0       0       0       0       0       0       0       0       0       0
       0       0       0       0       0       0       0       0       0       0
       0       0       0       0       0       0       0       0       0       0
       0       0       0       0       0       0       0       0       0       0
       0       0       0       0       0       0       0       0       0       0
       0       0       0       0       0       0       0       0       0       0
       0       0       0       0       0       0       0       0       0       0
       0       0       0       0       0       0       0       0       0       0
       0       0       0       0       0       0       0       0       0       0
       0       0       0       0       0       0       0       0       0       0
       0       0       0       0       0       0       0       0       0       0
       0       0       0       0       0       0       0       0       0       0
       0       0       0       0       0       0       0       0       0       0
       0       0       0       0       0       0       0       0       0       0
       0       0       0       0       0       0       0       0       0       0
       0       0       0       0       0       0       0       0       0       0
       0       0       0       0       0       0       0       0       0       0
       0       0       0       0       0       0       0       0       0       0
       0       0       0       0       0       0       0       0       0       0
       0       0       0       0       0       0       0       0       0       0
       0       0       0       0       0       0       0       0       0       0
       0       0       0       0       0       0       0       0       0       0
       0       0       0       0       0       0       0       0       0       0
       0       0       0       0       0       0       0       0       0       0
       0       0       0       0       0       0       0       0       0       0
       0       0       0       0       0       0       0       0       0       0
       0       0       0       0       0       0       0       0       0       0
       0       0       0       0       0       0       0       0       0       0
       0       0       0       0       0       0       0       0       0       0
       0       0       0       0       0       0       0       0       0       0
       0       0       0       0       0       0       0       0       0       0
       0       0       0       0       0       0       0       0       0       0
       0       0       0       0       0       0       0       0       0       0
       0       0       0       0       0       0       0       0       0       0
       0       0       0       0       0       0       0       0       0       0
       0       0       0       0       0       0       0       0       0       0
       0       0       0       0       0       0       0       0       0       0
       0       0       0       0       0       0       0       0       0       0
       0       0       0       0       0       0       0       0       0       0
       0       0       0       0       0       0       0       0       0       0
       0       0       0       0       0       0       0       0       0       0
       0       0       0       0       0       0       0       0       0       0
       0       0       0       0       0       0       0       0       0       0
       0       0       0       0       0       0       0       0       0       0
       0       0       0       0       0       0       0       0       0       0
       0       0       0       0       0       0       0       0       0       0
       0       0       0       0       0       0       0       0       0       0
       0       0       0       0       0       0       0       0       0       0
       0       0       0       0       0       0       0       0       0       0
       0       0       0       0       0       0       0       0       0       0
       0       0       0       0       0       0       0       0       0       0
       0       0       0       0       0       0       0       0       0       0
       0       0       0       0       0       0       0       0       0       0
       0       0       0       0       0       0       0       0       0       0
       0       0       0       0       0       0       0       0       0       0
       0       0       0       0       0       0       0       0       0       0
       0       0       0       0       0       0       0       0       0       0
       0       0       0       0       0       0       0       0       0       0
       0       0       0       0       0       0       0       0       0       0
       0       0       0       0       0       0       0       0       0       0
       0       0       0       0       0       0       0       0       0       0
       0       0       0       0       0       0       0       0       0       0
       0       0       0       0       0       0       0       0       0       0
       0       0       0       0       0       0       0       0       0       0
       0       0       0       0       0       0       0       0       0       0
       0       0       0       0       0       0       0       0       0       0
       0       0       0       0       0       0       0       0       0       0
       0       0       0       0       0       0       0       0       0       0
       0       0       0       0       0       0       0       0       0       0
       0       0       0       0       0       0       0       0       0       0
       0       0       0       0       0       0       0       0       0       0
       0       0       0       0       0       0       0       0       0       0
       0       0       0       0       0       0       0       0       0       0
       0       0       0       0       0       0       0       0       0       0
       0       0       0       0       0       0       0       0       0       0
       0       0       0       0       0       0       0       0       0       0
       0       0       0       0       0       0       0       0       0       0
       0       0       0       0       0       0       0       0       0       0
       0       0       0       0       0       0       0       0       0       0
       0       0       0       0       0       0       0       0       0       0
       0       0       0       0       0       0       0       0       0       0
       0       0       0       0       0       0       0       0       0       0
       0       0       0       0       0       0       0       0       0       0
       0       0       0       0       0       0       0       0       0       0
       0       0       0       0       0       0       0       0       0       0
       0       0       0       0       0       0       0       0       0       0
       0       0       0       0       0       0       0       0       0       0
       0       0       0       0       0       0       0       0       0       0
       0       0       0       0       0       0       0       0       0       0
       0       0       0       0       0       0       0       0       0       0
       0       0       0       0       0       0       0       0       0       0
       0       0       0       0       0       0       0       0       0       0
       0       0       0       0       0       0       0       0       0       0
       0       0       0       0       0       0       0       0       0       0
       0       0       0       0       0       0       0       0       0       0
       0       0       0       0       0       0       0       0       0       0
       0       0       0       0       0       0       0       0       0       0
       0       0       0       0       0       0       0       0       0       0
       0       0       0       0       0       0       0       0       0       0
       0       0       0       0       0       0       0       0       0       0
       0       0       0       0       0       0       0       0       0       0
       0       0       0       0       0       0       0       0       0       0
       0       0       0       0       0       0       0       0       0       0
       0       0       0       0       0       0       0       0       0       0
       0       0       0       0       0       0       0       0       0       0
       0       0       0       0       0       0       0       0       0       0
       0       0       0       0       0       0       0       0       0       0
       0       0       0       0       0       0       0       0       0       0
       0       0       0       0       0       0       0       0       0       0
       0       0       0       0       0       0       0       0       0       0
       0       0       0       0       0       0       0       0       0       0
       0       0       0       0       0       0       0       0       0       0
       0       0       0       0       0       0       0       0       0       0
       0       0       0       0       0       0       0       0       0       0
       0       0       0       0       0       0       0       0       0       0
       0       0       0       0       0       0       0       0       0       0
       0       0       0       0       0       0       0       0       0       0
       0       0       0       0       0       0       0       0       0       0
       0       0       0       0       0       0       0       0       0       0
       0       0       0       0       0       0       0       0       0       0
       0       0       0       0       0       0       0       0       0       0
       0       0       0       0       0       0       0       0       0       0
       0       0       0       0       0       0       0       0       0       0
       0       0       0       0       0       0       0       0       0       0
       0       0       0       0       0       0       0       0       0       0
       0       0       0       0       0       0       0       0       0       0
       0       0       0       0       0       0       0       0       0       0
       0       0       0       0       0       0       0       0       0       0
       0       0       0       0       0       0       0       0       0       0
       0       0       0       0       0       0       0       0       0       0
       0       0       0       0       0       0       0       0       0       0
       0       0       0       0       0       0       0       0       0       0
       0       0       0       0       0       0       0       0       0       0
       0       0       0       0       0       0       0       0       0       0
       0       0       0       0       0       0       0       0       0       0
       0       0       0       0       0       0       0       0       0       0
       0       0       0       0       0       0       0       0       0       0
       0       0       0       0       0       0       0       0       0       0
       0       0       0       0       0       0       0       0       0       0
       0       0       0       0       0       0       0       0       0       0
       0       0       0       0       0       0       0       0       0       0
       0       0       0       0       0       0       0       0       0       0
       0       0       0       0       0       0       0       0       0       0
       0       0       0       0       0       0       0       0       0       0
       0       0       0       0       0       0       0       0       0       0
       0       0       0       0       0       0       0       0       0       0
       0       0       0       0       0       0       0       0       0       0
       0       0       0       0       0       0       0       0       0       0
       0       0       0       0       0       0       0       0       0       0
       0       0       0       0       0       0       0       0       0       0
       0       0       0       0       0       0       0       0       0       0
       0       0       0       0       0       0       0       0       0       0
       0       0       0       0       0       0       0       0       0       0
       0       0       0       0       0       0       0       0       0       0
       0       0       0       0       0       0       0       0       0       0
       0       0       0       0       0       0       0       0       0       0
       0       0       0       0       0       0       0       0       0       0
       0       0       0       0       0       0       0       0       0       0
       0       0       0       0       0       0       0       0       0       0
       0       0       0       0       0       0       0       0       0       0
       0       0       0       0       0       0       0       0       0       0
       0       0       0       0       0       0       0       0       0       0
       0       0       0       0       0       0       0       0       0       0
       0       0       0       0       0       0       0       0       0       0
       0       0       0       0       0       0       0       0       0       0
       0       0       0       0       0       0       0       0       0       0
       0       0       0       0       0       0       0       0       0       0
       0       0       0       0       0       0       0       0       0       0
       0       0       0       0       0       0       0       0       0       0
       0       0       0       0       0       0       0       0       0       0
       0       0       0       0       0       0       0       0       0       0
       0       0       0       0       0       0       0       0       0       0
       0       0       0       0       0       0       0       0       0       0
       0       0       0       0       0       0       0       0       0       0
       0       0       0       0       0       0       0       0       0       0
       0       0       0       0       0       0       0       0       0       0
       0       0       0       0       0       0       0       0       0       0
       0       0       0       0       0       0       0       0       0       0
       0       0       0       0       0       0       0       0       0       0
       0       0       0       0       0       0       0       0       0       0
       0       0       0       0       0       0       0       0       0       0
       0       0       0       0       0       0       0       0       0       0
       0       0       0       0       0       0       0       0       0       0
       0       0       0       0       0       0       0       0       0       0
       0       0       0       0       0       0       0       0       0       0
       0       0       0       0       0       0       0       0       0       0
       0       0       0       0       0       0       0       0       0       0
       0       0       0       0       0       0       0       0       0       0
       0       0       0       0       0       0       0       0       0       0
       0       0       0       0       0       0       0       0       0       0
       0       0       0       0       0       0       0       0       0       0
       0       0       0       0       0       0       0       0       0       0
       0       0       0       0       0       0       0       0       0       0
       0       0       0       0       0       0       0       0       0       0
       0       0       0       0       0       0       0       0       0       0
       0       0       0       0       0       0       0       0       0       0
       0       0       0       0       0       0       0       0       0       0
       0       0       0       0       0       0       0       0       0       0
       0       0       0       0       0       0       0       0       0       0
       0       0       0       0       0       0       0       0       0       0
       0       0       0       0       0       0       0       0       0       0
       0       0       0       0       0       0       0       0       0       0
       0       0       0       0       0       0       0       0       0       0
       0       0       0       0       0       0       0       0       0       0
       0       0       0       0       0       0       0       0       0       0
       0       0       0       0       0       0       0       0       0       0
       0       0       0       0       0       0       0       0       0       0
       0       0       0       0       0       0       0       0       0       0
       0       0       0       0       0       0       0       0       0       0
       0       0       0       0       0       0       0       0       0       0
       0       0       0       0       0       0       0       0       0       0
       0       0       0       0       0       0       0       0       0       0
       0       0       0       0       0       0       0       0       0       0
       0       0       0       0       0       0       0       0       0       0
       0       0       0       0       0       0       0       0       0       0
       0       0       0       0       0       0       0       0       0       0
       0       0       0       0       0       0       0       0       0       0
       0       0       0       0       0       0       0       0       0       0
       0       0       0       0       0       0       0       0       0       0
       0       0       0       0       0       0       0       0       0       0
       0       0       0       0       0       0       0       0       0       0
       0       0       0       0       0       0       0       0       0       0
       0       0       0       0       0       0       0       0       0       0
       0       0       0       0       0       0       0       0       0       0
       0       0       0       0       0       0       0       0       0       0
       0       0       0       0       0       0       0       0       0       0
       0       0       0       0       0       0       0       0       0       0
       0       0       0       0       0       0       0       0       0       0
       0       0       0       0       0       0       0       0       0       0
       0       0       0       0       0       0       0       0       0       0
       0       0       0       0       0       0       0       0       0       0
       0       0       0       0       0       0       0       0       0       0
       0       0       0       0       0       0       0       0       0       0
       0       0       0       0       0       0       0       0       0       0
       0       0       0       0       0       0       0       0       0       0
       0       0       0       0       0       0       0       0       0       0
       0       0       0       0       0       0       0       0       0       0
       0       0       0       0       0       0       0       0       0       0
       0       0       0       0       0       0       0       0       0       0
       0       0       0       0       0       0       0       0       0       0
       0       0       0       0       0       0       0       0       0       0
       0       0       0       0       0       0       0       0       0       0
       0       0       0       0       0       0       0       0       0       0
       0       0       0       0       0       0       0       0       0       0
       0       0       0       0       0       0       0       0       0       0
       0       0       0       0       0       0       0       0       0       0
       0       0       0       0       0       0       0       0       0       0
       0       0       0       0       0       0       0       0       0       0
       0       0       0       0       0       0       0       0       0       0
       0       0       0       0       0       0       0       0       0       0
       0       0       0       0       0       0       0       0       0       0
       0       0       0       0       0       0       0       0       0       0
       0       0       0       0       0       0       0       0       0       0
       0       0       0       0       0       0       0       0       0       0
       0       0       0       0       0       0       0       0       0       0
       0       0       0       0       0       0       0       0       0       0
       0       0       0       0       0       0       0       0       0       0
       0       0       0       0       0       0       0       0       0       0
       0       0       0       0       0       0       0       0       0       0
       0       0       0       0       0       0       0       0       0       0
       0       0       0       0       0       0       0       0       0       0
       0       0       0       0       0       0       0       0       0       0
       0       0       0       0       0       0       0       0       0       0
       0       0       0       0       0       0       0       0       0       0
       0       0       0       0       0       0       0       0       0       0
       0       0       0       0       0       0       0       0       0       0
       0       0       0       0       0       0       0       0       0       0
       0       0       0       0       0       0       0       0       0       0
       0       0       0       0       0       0       0       0       0       0
       0       0       0       0       0       0       0       0       0       0
       0       0       0       0       0       0       0       0       0       0
       0       0       0       0       0       0       0       0       0       0
       0       0       0       0       0       0       0       0       0       0
       0       0       0       0       0       0       0       0       0       0
       0       0       0       0       0       0       0       0       0       0
       0       0       0       0       0       0       0       0       0       0
       0       0       0       0       0       0       0       0       0       0
       0       0       0       0       0       0       0       0       0       0
       0       0       0       0       0       0       0       0       0       0
       0       0       0       0       0       0       0       0       0       0
       0       0       0       0       0       0       0       0       0       0
       0       0       0       0       0       0       0       0       0       0
       0       0       0       0       0       0       0       0       0       0
       0       0       0       0       0       0       0       0       0       0
       0       0       0       0       0       0       0       0       0       0
       0       0       0       0       0       0       0       0       0       0
       0       0       0       0       0       0       0       0       0       0
       0       0       0       0       0       0       0       0       0       0
       0       0       0       0       0       0       0       0       0       0
       0       0       0       0       0       0       0       0       0       0
       0       0       0       0       0       0       0       0       0       0
       0       0       0       0       0       0       0       0       0       0
       0       0       0       0       0       0       0       0       0       0
       0       0       0       0       0       0       0       0       0       0
       0       0       0       0       0       0       0       0       0       0
       0       0       0       0       0       0       0       0       0       0
       0       0       0       0       0       0       0       0       0       0
       0       0       0       0       0       0       0       0       0       0
       0       0       0       0       0       0       0       0       0       0
       0       0       0       0       0       0       0       0       0       0
       0       0       0       0       0       0       0       0       0       0
       0       0       0       0       0       0       0       0       0       0
       0       0       0       0       0       0       0       0       0       0
       0       0       0       0       0       0       0       0       0       0
       0       0       0       0       0       0       0       0       0       0
       0       0       0       0       0       0       0       0       0       0
       0       0       0       0       0       0       0       0       0       0
       0       0       0       0       0       0       0       0       0       0
       0       0       0       0       0       0       0       0       0       0
       0       0       0       0       0       0       0       0       0       0
       0       0       0       0       0       0       0       0       0       0
       0       0       0       0       0       0       0       0       0       0
       0       0       0       0       0       0       0       0       0       0
       0       0       0       0       0       0       0       0       0       0
       0       0       0       0       0       0       0       0       0       0
       0       0       0       0       0       0       0       0       0       0
       0       0       0       0       0       0       0       0       0       0
       0       0       0       0       0       0       0       0       0       0
       0       0       0       0       0       0       0       0       0       0
       0       0       0       0       0       0       0       0       0       0
       0       0       0       0       0       0       0       0       0       0
       0       0       0       0       0       0       0       0       0       0
       0       0       0       0       0       0       0       0       0       0
       0       0       0       0       0       0       0       0       0       0
       0       0       0       0       0       0       0       0       0       0
       0       0       0       0       0       0       0       0       0       0
       0       0       0       0       0       0       0       0       0       0
       0       0       0       0       0       0       0       0       0       0
       0       0       0       0       0       0       0       0       0       0
       0       0       0       0       0       0       0       0       0       0
       0       0       0       0       0       0       0       0       0       0
       0       0       0       0       0       0       0       0       0       0
       0       0       0       0       0       0       0       0       0       0
       0       0       0       0       0       0       0       0       0       0
       0       0       0       0       0       0       0       0       0       0
       0       0       0       0       0       0       0       0       0       0
       0       0       0       0       0       0       0       0       0       0
       0       0       0       0       0       0       0       0       0       0
       0       0       0       0       0       0       0       0       0       0
       0       0       0       0       0       0       0       0       0       0
       0       0       0       0       0       0       0       0       0       0
       0       0       0       0       0       0       0       0       0       0
       0       0       0       0       0       0       0       0       0       0
       0       0       0       0       0       0       0       0       0       0
       0       0       0       0       0       0       0       0       0       0
       0       0       0       0       0       0       0       0       0       0
       0       0       0       0       0       0       0       0       0       0
       0       0       0       0       0       0       0       0       0       0
       0       0       0       0       0       0       0       0       0       0
       0       0       0       0       0       0       0       0       0       0
       0       0       0       0       0       0       0       0       0       0
       0       0       0       0       0       0       0       0       0       0
       0       0       0       0       0       0       0       0       0       0
       0       0       0       0       0       0       0       0       0       0
       0       0       0       0       0       0       0       0       0       0
       0       0       0       0       0       0       0       0       0       0
       0       0       0       0       0       0       0       0       0       0
       0       0       0       0       0       0       0       0       0       0
       0       0       0       0       0       0       0       0       0       0
       0       0       0       0       0       0       0       0       0       0
       0       0       0       0       0       0       0       0       0       0
       0       0       0       0       0       0       0       0       0       0
       0       0       0       0       0       0       0       0       0       0
       0       0       0       0       0       0       0       0       0       0
       0       0       0       0       0       0       0       0       0       0
       0       0       0       0       0       0       0       0       0       0
       0       0       0       0       0       0       0       0       0       0
       0       0       0       0       0       0       0       0       0       0
       0       0       0       0       0       0       0       0       0       0
       0       0       0       0       0       0       0       0       0       0
       0       0       0       0       0       0       0       0       0       0
       0       0       0       0       0       0       0       0       0       0
       0       0       0       0       0       0       0       0       0       0
       0       0       0       0       0       0       0       0       0       0
       0       0       0       0       0       0       0       0       0       0
       0       0       0       0       0       0       0       0       0       0
       0       0       0       0       0       0       0       0       0       0
       0       0       0       0       0       0       0       0       0       0
       0       0       0       0       0       0       0       0       0       0
       0       0       0       0       0       0       0       0       0       0
       0       0       0       0       0       0       0       0       0       0
       0       0       0       0       0       0       0       0       0       0
       0       0       0       0       0       0       0       0       0       0
       0       0       0       0       0       0       0       0       0       0
       0       0       0       0       0       0       0       0       0       0
       0       0       0       0       0       0       0       0       0       0
       0       0       0       0       0       0       0       0       0       0
       0       0       0       0       0       0       0       0       0       0
       0       0       0       0       0       0       0       0       0       0
       0       0       0       0       0       0       0       0       0       0
       0       0       0       0       0       0       0       0       0       0
       0       0       0       0       0       0       0       0       0       0
       0       0       0       0       0       0       0       0       0       0
       0       0       0       0       0       0       0       0       0       0
       0       0       0       0       0       0       0       0       0       0
       0       0       0       0       0       0       0       0       0       0
       0       0       0       0       0       0       0       0       0       0
       0       0       0       0       0       0       0       0       0       0
       0       0       0       0       0       0       0       0       0       0
       0       0       0       0       0       0       0       0       0       0
       0       0       0       0       0       0       0       0       0       0
       0       0       0       0       0       0       0       0       0       0
       0       0       0       0       0       0       0       0       0       0
       0       0       0       0       0       0       0       0       0       0
       0       0       0       0       0       0       0       0       0       0
       0       0       0       0       0       0       0       0       0       0
       0       0       0       0       0       0       0       0       0       0
       0       0       0       0       0       0       0       0       0       0
       0       0       0       0       0       0       0       0       0       0
       0       0       0       0       0       0       0       0       0       0
       0       0       0       0       0       0       0       0       0       0
       0       0       0       0       0       0       0       0       0       0
       0       0       0       0       0       0       0       0       0       0
       0       0       0       0       0       0       0       0       0       0
       0       0       0       0       0       0       0       0       0       0
       0       0       0       0       0       0       0       0       0       0
       0       0       0       0       0       0       0       0       0       0
       0       0       0       0       0       0       0       0       0       0
       0       0       0       0       0       0       0       0       0       0
       0       0       0       0       0       0       0       0       0       0
       0       0       0       0       0       0       0       0       0       0
       0       0       0       0       0       0       0       0       0       0
       0       0       0       0       0       0       0       0       0       0
       0       0       0       0       0       0       0       0       0       0
       0       0       0       0       0       0       0       0       0       0
       0       0       0       0       0       0       0       0       0       0
       0       0       0       0       0       0       0       0       0       0
       0       0       0       0       0       0       0       0       0       0
       0       0       0       0       0       0       0       0       0       0
       0       0       0       0       0       0       0       0       0       0
       0       0       0       0       0       0       0       0       0       0
       0       0       0       0       0       0       0       0       0       0
       0       0       0       0       0       0       0       0       0       0
       0       0       0       0       0       0       0       0       0       0
       0       0       0       0       0       0       0       0       0       0
       0       0       0       0       0       0       0       0       0       0
       0       0       0       0       0       0       0       0       0       0
       0       0       0       0       0       0       0       0       0       0
       0       0       0       0       0       0       0       0       0       0
       0       0       0       0       0       0       0       0       0       0
       0       0       0       0       0       0       0       0       0       0
       0       0       0       0       0       0       0       0       0       0
       0       0       0       0       0       0       0       0       0       0
       0       0       0       0       0       0       0       0       0       0
       0       0       0       0       0       0       0       0       0       0
       0       0       0       0       0       0       0       0       0       0
       0       0       0       0       0       0       0       0       0       0
       0       0       0       0       0       0       0       0       0       0
       0       0       0       0       0       0       0       0       0       0
       0       0       0       0       0       0       0       0       0       0
       0       0       0       0       0       0       0       0       0       0
       0       0       0       0       0       0       0       0       0       0
       0       0       0       0       0       0       0       0       0       0
       0       0       0       0       0       0       0       0       0       0
       0       0       0       0       0       0       0       0       0       0
       0       0       0       0       0       0       0       0       0       0
       0       0       0       0       0       0       0       0       0       0
       0       0       0       0       0       0       0       0       0       0
       0       0       0       0       0       0       0       0       0       0
       0       0       0       0       0       0       0       0       0       0
       0       0       0       0       0       0       0       0       0       0
       0       0       0       0       0       0       0       0       0       0
       0       0       0       0       0       0       0       0       0       0
       0       0       0       0       0       0       0       0       0       0
       0       0       0       0       0       0       0       0       0       0
       0       0       0       0       0       0       0       0       0       0
       0       0       0       0       0       0       0       0       0       0
       0       0       0       0       0       0       0       0       0       0
       0       0       0       0       0       0       0       0       0       0
       0       0       0       0       0       0       0       0       0       0
       0       0       0       0       0       0       0       0       0       0
       0       0       0       0       0       0       0       0       0       0
       0       0       0       0       0       0       0       0       0       0
       0       0       0       0       0       0       0       0       0       0
       0       0       0       0       0       0       0       0       0       0
       0       0       0       0       0       0       0       0       0       0
       0       0       0       0       0       0       0       0       0       0
       0       0       0       0       0       0       0       0       0       0
       0       0       0       0       0       0       0       0       0       0
       0       0       0       0       0       0       0       0       0       0
       0       0       0       0       0       0       0       0       0       0
       0       0       0       0       0       0       0       0       0       0
       0       0       0       0       0       0       0       0       0       0
       0       0       0       0       0       0       0       0       0       0
       0       0       0       0       0       0       0       0       0       0
       0       0       0       0       0       0       0       0       0       0
       0       0       0       0       0       0       0       0       0       0
       0       0       0       0       0       0       0       0       0       0
       0       0       0       0       0       0       0       0       0       0
       0       0       0       0       0       0       0       0       0       0
       0       0       0       0       0       0       0       0       0       0
       0       0       0       0       0       0       0       0       0       0
       0       0       0       0       0       0       0       0       0       0
       0       0       0       0       0       0       0       0       0       0
       0       0       0       0       0       0       0       0       0       0
       0       0       0       0       0       0       0       0       0       0
       0       0       0       0       0       0       0       0       0       0
       0       0       0       0       0       0       0       0       0       0
       0       0       0       0       0       0       0       0       0       0
       0       0       0       0       0       0       0       0       0       0
       0       0       0       0       0       0       0       0       0       0
       0       0       0       0       0       0       0       0       0       0
       0       0       0       0       0       0       0       0       0       0
       0       0       0       0       0       0       0       0       0       0
       0       0       0       0       0       0       0       0       0       0
       0       0       0       0       0       0       0       0       0       0
       0       0       0       0       0       0       0       0       0       0
       0       0       0       0       0       0       0       0       0       0
       0       0       0       0       0       0       0       0       0       0
       0       0       0       0       0       0       0       0       0       0
       0       0       0       0       0       0       0       0       0       0
       0       0       0       0       0       0       0       0       0       0
       0       0       0       0       0       0       0       0       0       0
       0       0       0       0       0       0       0       0       0       0
       0       0       0       0       0       0       0       0       0       0
       0       0       0       0       0       0       0       0       0       0
       0       0       0       0       0       0       0       0       0       0
       0       0       0       0       0       0       0       0       0       0
       0       0       0       0       0       0       0       0       0       0
       0       0       0       0       0       0       0       0       0       0
       0       0       0       0       0       0       0       0       0       0
       0       0       0       0       0       0       0       0       0       0
       0       0       0       0       0       0       0       0       0       0
       0       0       0       0       0       0       0       0       0       0
       0       0       0       0       0       0       0       0       0       0
       0       0       0       0       0       0       0       0       0       0
       0       0       0       0       0       0       0       0       0       0
       0       0       0       0       0       0       0       0       0       0
       0       0       0       0       0       0       0       0       0       0
       0       0       0       0       0       0       0       0       0       0
       0       0       0       0       0       0       0       0       0       0
       0       0       0       0       0       0       0       0       0       0
       0       0       0       0       0       0       0       0       0       0
       0       0       0       0       0       0       0       0       0       0
       0       0       0       0       0       0       0       0       0       0
       0       0       0       0       0       0       0       0       0       0
       0       0       0       0       0       0       0       0       0       0
       0       0       0       0       0       0       0       0       0       0
       0       0       0       0       0       0       0       0       0       0
       0       0       0       0       0       0       0       0       0       0
       0       0       0       0       0       0       0       0       0       0
       0       0       0       0       0       0       0       0       0       0
       0       0       0       0       0       0       0       0       0       0
       0       0       0       0       0       0       0       0       0       0
       0       0       0       0       0       0       0       0       0       0
       0       0       0       0       0       0       0       0       0       0
       0       0       0       0       0       0       0       0       0       0
       0       0       0       0       0       0       0       0       0       0
       0       0       0       0       0       0       0       0       0       0
       0       0       0       0       0       0       0       0       0       0
       0       0       0       0       0       0       0       0       0       0
       0       0       0       0       0       0       0       0       0       0
       0       0       0       0       0       0       0       0       0       0
       0       0       0       0       0       0       0       0       0       0
       0       0       0       0       0       0       0       0       0       0
       0       0       0       0       0       0       0       0       0       0
       0       0       0       0       0       0       0       0       0       0
       0       0       0       0       0       0       0       0       0       0
       0       0       0       0       0       0       0       0       0       0
       0       0       0       0       0       0       0       0       0       0
       0       0       0       0       0       0       0       0       0       0
       0       0       0       0       0       0       0       0       0       0
       0       0       0       0       0       0       0       0       0       0
       0       0       0       0       0       0       0       0       0       0
       0       0       0       0       0       0       0       0       0       0
       0       0       0       0       0       0       0       0       0       0
       0       0       0       0       0       0       0       0       0       0
       0       0       0       0       0       0       0       0       0       0
       0       0       0       0       0       0       0       0       0       0
       0       0       0       0       0       0       0       0       0       0
       0       0       0       0       0       0       0       0       0       0
       0       0       0       0       0       0       0       0       0       0
       0       0       0       0       0       0       0       0       0       0
       0       0       0       0       0       0       0       0       0       0
       0       0       0       0       0       0       0       0       0       0
       0       0       0       0       0       0       0       0       0       0
       0       0       0       0       0       0       0       0       0       0
       0       0       0       0       0       0       0       0       0       0
       0       0       0       0       0       0       0       0       0       0
       0       0       0       0       0       0       0       0       0       0
       0       0       0       0       0       0       0       0       0       0
       0       0       0       0       0       0       0       0       0       0
       0       0       0       0       0       0       0       0       0       0
       0       0       0       0       0       0       0       0       0       0
       0       0       0       0       0       0       0       0       0       0
       0       0       0       0       0       0       0       0       0       0
       0       0       0       0       0       0       0       0       0       0
       0       0       0       0       0       0       0       0       0       0
       0       0       0       0       0       0       0       0       0       0
       0       0       0       0       0       0       0       0       0       0
       0       0       0       0       0       0       0       0       0       0
       0       0       0       0       0       0       0       0       0       0
       0       0       0       0       0       0       0       0       0       0
       0       0       0       0       0       0       0       0       0       0
       0       0       0       0       0       0       0       0       0       0
       0       0       0       0       0       0       0       0       0       0
       0       0       0       0       0       0       0       0       0       0
       0       0       0       0       0       0       0       0       0       0
       0       0       0       0       0       0       0       0       0       0
       0       0       0       0       0       0       0       0       0       0
       0       0       0       0       0       0       0       0       0       0
       0       0       0       0       0       0       0       0       0       0
       0       0       0       0       0       0       0       0       0       0
       0       0       0       0       0       0       0       0       0       0
       0       0       0       0       0       0       0       0       0       0
       0       0       0       0       0       0       0       0       0       0
       0       0       0       0       0       0       0       0       0       0
       0       0       0       0       0       0       0       0       0       0
       0       0       0       0       0       0       0       0       0       0
       0       0       0       0       0       0       0       0       0       0
       0       0       0       0       0       0       0       0       0       0
       0       0       0       0       0       0       0       0       0       0
       0       0       0       0       0       0       0       0       0       0
       0       0       0       0       0       0       0       0       0       0
       0       0       0       0       0       0       0       0       0       0
       0       0       0       0       0       0       0       0       0       0
       0       0       0       0       0       0       0       0       0       0
       0       0       0       0       0       0       0       0       0       0
       0       0       0       0       0       0       0       0       0       0
       0       0       0       0       0       0       0       0       0       0
       0       0       0       0       0       0       0       0       0       0
       0       0       0       0       0       0       0       0       0       0
       0       0       0       0       0       0       0       0       0       0
       0       0       0       0       0       0       0       0       0       0
       0       0       0       0       0       0       0       0       0       0
       0       0       0       0       0       0       0       0       0       0
       0       0       0       0       0       0       0       0       0       0
       0       0       0       0       0       0       0       0       0       0
       0       0       0       0       0       0       0       0       0       0
       0       0       0       0       0       0       0       0       0       0
       0       0       0       0       0       0       0       0       0       0
       0       0       0       0       0       0       0       0       0       0
       0       0       0       0       0       0       0       0       0       0
       0       0       0       0       0       0       0       0       0       0
       0       0       0       0       0       0       0       0       0       0
       0       0       0       0       0       0       0       0       0       0
       0       0       0       0       0       0       0       0       0       0
       0       0       0       0       0       0       0       0       0       0
       0       0       0       0       0       0       0       0       0       0
       0       0       0       0       0       0       0       0       0       0
       0       0       0       0       0       0       0       0       0       0
       0       0       0       0       0       0       0       0       0       0
       0       0       0       0       0       0       0       0       0       0
       0       0       0       0       0       0       0       0       0       0
       0       0       0       0       0       0       0       0       0       0
       0       0       0       0       0       0       0       0       0       0
       0       0       0       0       0       0       0       0       0       0
       0       0       0       0       0       0       0       0       0       0
       0       0       0       0       0       0       0       0       0       0
       0       0       0       0       0       0       0       0       0       0
       0       0       0       0       0       0       0       0       0       0
       0       0       0       0       0       0       0       0       0       0
       0       0       0       0       0       0       0       0       0       0
       0       0       0       0       0       0       0       0       0       0
       0       0       0       0       0       0       0       0       0       0
       0       0       0       0       0       0       0       0       0       0
       0       0       0       0       0       0       0       0       0       0
       0       0       0       0       0       0       0       0       0       0
       0       0       0       0       0       0       0       0       0       0
       0       0       0       0       0       0       0       0       0       0
       0       0       0       0       0       0       0       0       0       0
       0       0       0       0       0       0       0       0       0       0
       0       0       0       0       0       0       0       0       0       0
       0       0       0       0       0       0       0       0       0       0
       0       0       0       0       0       0       0       0       0       0
       0       0       0       0       0       0       0       0       0       0
       0       0       0       0       0       0       0       0       0       0
       0       0       0       0       0       0       0       0       0       0
       0       0       0       0       0       0       0       0       0       0
       0       0       0       0       0       0       0       0       0       0
       0       0       0       0       0       0       0       0       0       0
       0       0       0       0       0       0       0       0       0       0
       0       0       0       0       0       0       0       0       0       0
       0       0       0       0       0       0       0       0       0       0
       0       0       0       0       0       0       0       0       0       0
       0       0       0       0       0       0       0       0       0       0
       0       0       0       0       0       0       0       0       0       0
       0       0       0       0       0       0       0       0       0       0
       0       0       0       0       0       0       0       0       0       0
       0       0       0       0       0       0       0       0       0       0
       0       0       0       0       0       0       0       0       0       0
       0       0       0       0       0       0       0       0       0       0
       0       0       0       0       0       0       0       0       0       0
       0       0       0       0       0       0       0       0       0       0
       0       0       0       0       0       0       0       0       0       0
       0       0       0       0       0       0       0       0       0       0
       0       0       0       0       0       0       0       0       0       0
       0       0       0       0       0       0       0       0       0       0
       0       0       0       0       0       0       0       0       0       0
       0       0       0       0       0       0       0       0       0       0
       0       0       0       0       0       0       0       0       0       0
       0       0       0       0       0       0       0       0       0       0
       0       0       0       0       0       0       0       0       0       0
       0       0       0       0       0       0       0       0       0       0
       0       0       0       0       0       0       0       0       0       0
       0       0       0       0       0       0       0       0       0       0
       0       0       0       0       0       0       0       0       0       0
       0       0       0       0       0       0       0       0       0       0
       0       0       0       0       0       0       0       0       0       0
       0       0       0       0       0       0       0       0       0       0
       0       0       0       0       0       0       0       0       0       0
       0       0       0       0       0       0       0       0       0       0
       0       0       0       0       0       0       0       0       0       0
       0       0       0       0       0       0       0       0       0       0
       0       0       0       0       0       0       0       0       0       0
       0       0       0       0       0       0       0       0       0       0
       0       0       0       0       0       0       0       0       0       0
       0       0       0       0       0       0       0       0       0       0
       0       0       0       0       0       0       0       0       0       0
       0       0       0       0       0       0       0       0       0       0
       0       0       0       0       0       0       0       0       0       0
       0       0       0       0       0       0       0       0       0       0
       0       0       0       0       0       0       0       0       0       0
       0       0       0       0       0       0       0       0       0       0
       0       0       0       0       0       0       0       0       0       0
       0       0       0       0       0       0       0       0       0       0
       0       0       0       0       0       0       0       0       0       0
       0       0       0       0       0       0       0       0       0       0
       0       0       0       0       0       0       0       0       0       0
       0       0       0       0       0       0       0       0       0       0
       0       0       0       0       0       0       0       0       0       0
       0       0       0       0       0       0       0       0       0       0
       0       0       0       0       0       0       0       0       0       0
       0       0       0       0       0       0       0       0       0       0
       0       0       0       0       0       0       0       0       0       0
       0       0       0       0       0       0       0       0       0       0
       0       0       0       0       0       0       0       0       0       0
       0       0       0       0       0       0       0       0       0       0
       0       0       0       0       0       0       0       0       0       0
       0       0       0       0       0       0       0       0       0       0
       0       0       0       0       0       0       0       0       0       0
       0       0       0       0       0       0       0       0       0       0
       0       0       0       0       0       0       0       0       0       0
       0       0       0       0       0       0       0       0       0       0
       0       0       0       0       0       0       0       0       0       0
       0       0       0       0       0       0       0       0       0       0
       0       0       0       0       0       0       0       0       0       0
       0       0       0       0       0       0       0       0       0       0
       0       0       0       0       0       0       0       0       0       0
       0       0       0       0       0       0       0       0       0       0
       0       0       0       0       0       0       0       0       0       0
       0       0       0       0       0       0       0       0       0       0
       0       0       0       0       0       0       0       0       0       0
       0       0       0       0       0       0       0       0       0       0
       0       0       0       0       0       0       0       0       0       0
       0       0       0       0       0       0       0       0       0       0
       0       0       0       0       0       0       0       0       0       0
       0       0       0       0       0       0       0       0       0       0
       0       0       0       0       0       0       0       0       0       0
       0       0       0       0       0       0       0       0       0       0
       0       0       0       0       0       0       0       0       0       0
       0       0       0       0       0       0       0       0       0       0
       0       0       0       0       0       0       0       0       0       0
       0       0       0       0       0       0       0       0       0       0
       0       0       0       0       0       0       0       0       0       0
       0       0       0       0       0       0       0       0       0       0
       0       0       0       0       0       0       0       0       0       0
       0       0       0       0       0       0       0       0       0       0
       0       0       0       0       0       0       0       0       0       0
       0       0       0       0       0       0       0       0       0       0
       0       0       0       0       0       0       0       0       0       0
       0       0       0       0       0       0       0       0       0       0
       0       0       0       0       0       0       0       0       0       0
       0       0       0       0       0       0       0       0       0       0
       0       0       0       0       0       0       0       0       0       0
       0       0       0       0       0       0       0       0       0       0
       0       0       0       0       0       0       0       0       0       0
       0       0       0       0       0       0       0       0       0       0
       0       0       0       0       0       0       0       0       0       0
       0       0       0       0       0       0       0       0       0       0
       0       0       0       0       0       0       0       0       0       0
       0       0       0       0       0       0       0       0       0       0
       0       0       0       0       0       0       0       0       0       0
       0       0       0       0       0       0       0       0       0       0
       0       0       0       0       0       0       0       0       0       0
       0       0       0       0       0       0       0       0       0       0
       0       0       0       0       0       0       0       0       0       0
       0       0       0       0       0       0       0       0       0       0
       0       0       0       0       0       0       0       0       0       0
       0       0       0       0       0       0       0       0       0       0
       0       0       0       0       0       0       0       0       0       0
       0       0       0       0       0       0       0       0       0       0
       0       0       0       0       0       0       0       0       0       0
       0       0       0       0       0       0       0       0       0       0
       0       0       0       0       0       0       0       0       0       0
       0       0       0       0       0       0       0       0       0       0
       0       0       0       0       0       0       0       0       0       0
       0       0       0       0       0       0       0       0       0       0
       0       0       0       0       0       0       0       0       0       0
       0       0       0       0       0       0       0       0       0       0
       0       0       0       0       0       0       0       0       0       0
       0       0       0       0       0       0       0       0       0       0
       0       0       0       0       0       0       0       0       0       0
       0       0       0       0       0       0       0       0       0       0
       0       0       0       0       0       0       0       0       0       0
       0       0       0       0       0       0       0       0       0       0
       0       0       0       0       0       0       0       0       0       0
       0       0       0       0       0       0       0       0       0       0
       0       0       0       0       0       0       0       0       0       0
       0       0       0       0       0       0       0       0       0       0
       0       0       0       0       0       0       0       0       0       0
       0       0       0       0       0       0       0       0       0       0
       0       0       0       0       0       0       0       0       0       0
       0       0       0       0       0       0       0       0       0       0
       0       0       0       0       0       0       0       0       0       0
       0       0       0       0       0       0       0       0       0       0
       0       0       0       0       0       0       0       0       0       0
       0       0       0       0       0       0       0       0       0       0
       0       0       0       0       0       0       0       0       0       0
       0       0       0       0       0       0       0       0       0       0
       0       0       0       0       0       0       0       0       0       0
       0       0       0       0       0       0       0       0       0       0
       0       0       0       0       0       0       0       0       0       0
       0       0       0       0       0       0       0       0       0       0
       0       0       0       0       0       0       0       0       0       0
       0       0       0       0       0       0       0       0       0       0
       0       0       0       0       0       0       0       0       0       0
       0       0       0       0       0       0       0       0       0       0
       0       0       0       0       0       0       0       0       0       0
       0       0       0       0       0       0       0       0       0       0
       0       0       0       0       0       0       0       0       0       0
       0       0       0       0       0       0       0       0       0       0
       0       0       0       0       0       0       0       0       0       0
       0       0       0       0       0       0       0       0       0       0
       0       0       0       0       0       0       0       0       0       0
       0       0       0       0       0       0       0       0       0       0
       0       0       0       0       0       0       0       0       0       0
       0       0       0       0       0       0       0       0       0       0
       0       0       0       0       0       0       0       0       0       0
       0       0       0       0       0       0       0       0       0       0
       0       0       0       0       0       0       0       0       0       0
       0       0       0       0       0       0       0       0       0       0
       0       0       0       0       0       0       0       0       0       0
       0       0       0       0       0       0       0       0       0       0
       0       0       0       0       0       0       0       0       0       0
       0       0       0       0       0       0       0       0       0       0
       0       0       0       0       0       0       0       0       0       0
       0       0       0       0       0       0       0       0       0       0
       0       0       0       0       0       0       0       0       0       0
       0       0       0       0       0       0       0       0       0       0
       0       0       0       0       0       0       0       0       0       0
       0       0       0       0       0       0       0       0       0       0
       0       0       0       0       0       0       0       0       0       0
       0       0       0       0       0       0       0       0       0       0
       0       0       0       0       0       0       0       0       0       0
       0       0       0       0       0       0       0       0       0       0
       0       0       0       0       0       0       0       0       0       0
       0       0       0       0       0       0       0       0       0       0
       0       0       0       0       0       0       0       0       0       0
       0       0       0       0       0       0       0       0       0       0
       0       0       0       0       0       0       0       0       0       0
       0       0       0       0       0       0       0       0       0       0
       0       0       0       0       0       0       0       0       0       0
       0       0       0       0       0       0       0       0       0       0
       0       0       0       0       0       0       0       0       0       0
       0       0       0       0       0       0       0       0       0       0
       0       0       0       0       0       0       0       0       0       0
       0       0       0       0       0       0       0       0       0       0
       0       0       0       0       0       0       0       0       0       0
       0       0       0       0       0       0       0       0       0       0
       0       0       0       0       0       0       0       0       0       0
       0       0       0       0       0       0       0       0       0       0
       0       0       0       0       0       0       0       0       0       0
       0       0       0       0       0       0       0       0       0       0
       0       0       0       0       0       0       0       0       0       0
       0       0       0       0       0       0       0       0       0       0
       0       0       0       0       0       0       0       0       0       0
       0       0       0       0       0       0       0       0       0       0
       0       0       0       0       0       0       0       0       0       0
       0       0       0       0       0       0       0       0       0       0
       0       0       0       0       0       0       0       0       0       0
       0       0       0       0       0       0       0       0       0       0
       0       0       0       0       0       0       0       0       0       0
       0       0       0       0       0       0       0       0       0       0
       0       0       0       0       0       0       0       0       0       0
       0       0       0       0       0       0       0       0       0       0
       0       0       0       0       0       0       0       0       0       0
       0       0       0       0       0       0       0       0       0       0
       0       0       0       0       0       0       0       0       0       0
       0       0       0       0       0       0       0       0       0       0
       0       0       0       0       0       0       0       0       0       0
       0       0       0       0       0       0       0       0       0       0
       0       0       0       0       0       0       0       0       0       0
       0       0       0       0       0       0       0       0       0       0
       0       0       0       0       0       0       0       0       0       0
       0       0       0       0       0       0       0       0       0       0
       0       0       0       0       0       0       0       0       0       0
       0       0       0       0       0       0       0       0       0       0
       0       0       0       0       0       0       0       0       0       0
       0       0       0       0       0       0       0       0       0       0
       0       0       0       0       0       0       0       0       0       0
       0       0       0       0       0       0       0       0       0       0
       0       0       0       0       0       0       0       0       0       0
       0       0       0       0       0       0       0       0       0       0
       0       0       0       0       0       0       0       0       0       0
       0       0       0       0       0       0       0       0       0       0
       0       0       0       0       0       0       0       0       0       0
       0       0       0       0       0       0       0       0       0       0
       0       0       0       0       0       0       0       0       0       0
       0       0       0       0       0       0       0       0       0       0
       0       0       0       0       0       0       0       0       0       0
       0       0       0       0       0       0       0       0       0       0
       0       0       0       0       0       0       0       0       0       0
       0       0       0       0       0       0       0       0       0       0
       0       0       0       0       0       0       0       0       0       0
       0       0       0       0       0       0       0       0       0
%FLAG IROTAT                                                                    
%FORMAT(10I8)                                                                   
       0       0       0       0       0       0       0       0       0       0
       0       0       0       0       0       0       0       0       0       0
       0       0       0       0       0       0       0       0       0       0
       0       0       0       0       0       0       0       0       0       0
       0       0       0       0       0       0       0       0       0       0
       0       0       0       0       0       0       0       0       0       0
       0       0       0       0       0       0       0       0       0       0
       0       0       0       0       0       0       0       0       0       0
       0       0       0       0       0       0       0       0       0       0
       0       0       0       0       0       0       0       0       0       0
       0       0       0       0       0       0       0       0       0       0
       0       0       0       0       0       0       0       0       0       0
       0       0       0       0       0       0       0       0       0       0
       0       0       0       0       0       0       0       0       0       0
       0       0       0       0       0       0       0       0       0       0
       0       0       0       0       0       0       0       0       0       0
       0       0       0       0       0       0       0       0       0       0
       0       0       0       0       0       0       0       0       0       0
       0       0       0       0       0       0       0       0       0       0
       0       0       0       0       0       0       0       0       0       0
       0       0       0       0       0       0       0       0       0       0
       0       0       0       0       0       0       0       0       0       0
       0       0       0       0       0       0       0       0       0       0
       0       0       0       0       0       0       0       0       0       0
       0       0       0       0       0       0       0       0       0       0
       0       0       0       0       0       0       0       0       0       0
       0       0       0       0       0       0       0       0       0       0
       0       0       0       0       0       0       0       0       0       0
       0       0       0       0       0       0       0       0       0       0
       0       0       0       0       0       0       0       0       0       0
       0       0       0       0       0       0       0       0       0       0
       0       0       0       0       0       0       0       0       0       0
       0       0       0       0       0       0       0       0       0       0
       0       0       0       0       0       0       0       0       0       0
       0       0       0       0       0       0       0       0       0       0
       0       0       0       0       0       0       0       0       0       0
       0       0       0       0       0       0       0       0       0       0
       0       0       0       0       0       0       0       0       0       0
       0       0       0       0       0       0       0       0       0       0
       0       0       0       0       0       0       0       0       0       0
       0       0       0       0       0       0       0       0       0       0
       0       0       0       0       0       0       0       0       0       0
       0       0       0       0       0       0       0       0       0       0
       0       0       0       0       0       0       0       0       0       0
       0       0       0       0       0       0       0       0       0       0
       0       0       0       0       0       0       0       0       0       0
       0       0       0       0       0       0       0       0       0       0
       0       0       0       0       0       0       0       0       0       0
       0       0       0       0       0       0       0       0       0       0
       0       0       0       0       0       0       0       0       0       0
       0       0       0       0       0       0       0       0       0       0
       0       0       0       0       0       0       0       0       0       0
       0       0       0       0       0       0       0       0       0       0
       0       0       0       0       0       0       0       0       0       0
       0       0       0       0       0       0       0       0       0       0
       0       0       0       0       0       0       0       0       0       0
       0       0       0       0       0       0       0       0       0       0
       0       0       0       0       0       0       0       0       0       0
       0       0       0       0       0       0       0       0       0       0
       0       0       0       0       0       0       0       0       0       0
       0       0       0       0       0       0       0       0       0       0
       0       0       0       0       0       0       0       0       0       0
       0       0       0       0       0       0       0       0       0       0
       0       0       0       0       0       0       0       0       0       0
       0       0       0       0       0       0       0       0       0       0
       0       0       0       0       0       0       0       0       0       0
       0       0       0       0       0       0       0       0       0       0
       0       0       0       0       0       0       0       0       0       0
       0       0       0       0       0       0       0       0       0       0
       0       0       0       0       0       0       0       0       0       0
       0       0       0       0       0       0       0       0       0       0
       0       0       0       0       0       0       0       0       0       0
       0       0       0       0       0       0       0       0       0       0
       0       0       0       0       0       0       0       0       0       0
       0       0       0       0       0       0       0       0       0       0
       0       0       0       0       0       0       0       0       0       0
       0       0       0       0       0       0       0       0       0       0
       0       0       0       0       0       0       0       0       0       0
       0       0       0       0       0       0       0       0       0       0
       0       0       0       0       0       0       0       0       0       0
       0       0       0       0       0       0       0       0       0       0
       0       0       0       0       0       0       0       0       0       0
       0       0       0       0       0       0       0       0       0       0
       0       0       0       0       0       0       0       0       0       0
       0       0       0       0       0       0       0       0       0       0
       0       0       0       0       0       0       0       0       0       0
       0       0       0       0       0       0       0       0       0       0
       0       0       0       0       0       0       0       0       0       0
       0       0       0       0       0       0       0       0       0       0
       0       0       0       0       0       0       0       0       0       0
       0       0       0       0       0       0       0       0       0       0
       0       0       0       0       0       0       0       0       0       0
       0       0       0       0       0       0       0       0       0       0
       0       0       0       0       0       0       0       0       0       0
       0       0       0       0       0       0       0       0       0       0
       0       0       0       0       0       0       0       0       0       0
       0       0       0       0       0       0       0       0       0       0
       0       0       0       0       0       0       0       0       0       0
       0       0       0       0       0       0       0       0       0       0
       0       0       0       0       0       0       0       0       0       0
       0       0       0       0       0       0       0       0       0       0
       0       0       0       0       0       0       0       0       0       0
       0       0       0       0       0       0       0       0       0       0
       0       0       0       0       0       0       0       0       0       0
       0       0       0       0       0       0       0       0       0       0
       0       0       0       0       0       0       0       0       0       0
       0       0       0       0       0       0       0       0       0       0
       0       0       0       0       0       0       0       0       0       0
       0       0       0       0       0       0       0       0       0       0
       0       0       0       0       0       0       0       0       0       0
       0       0       0       0       0       0       0       0       0       0
       0       0       0       0       0       0       0       0       0       0
       0       0       0       0       0       0       0       0       0       0
       0       0       0       0       0       0       0       0       0       0
       0       0       0       0       0       0       0       0       0       0
       0       0       0       0       0       0       0       0       0       0
       0       0       0       0       0       0       0       0       0       0
       0       0       0       0       0       0       0       0       0       0
       0       0       0       0       0       0       0       0       0       0
       0       0       0       0       0       0       0       0       0       0
       0       0       0       0       0       0       0       0       0       0
       0       0       0       0       0       0       0       0       0       0
       0       0       0       0       0       0       0       0       0       0
       0       0       0       0       0       0       0       0       0       0
       0       0       0       0       0       0       0       0       0       0
       0       0       0       0       0       0       0       0       0       0
       0       0       0       0       0       0       0       0       0       0
       0       0       0       0       0       0       0       0       0       0
       0       0       0       0       0       0       0       0       0       0
       0       0       0       0       0       0       0       0       0       0
       0       0       0       0       0       0       0       0       0       0
       0       0       0       0       0       0       0       0       0       0
       0       0       0       0       0       0       0       0       0       0
       0       0       0       0       0       0       0       0       0       0
       0       0       0       0       0       0       0       0       0       0
       0       0       0       0       0       0       0       0       0       0
       0       0       0       0       0       0       0       0       0       0
       0       0       0       0       0       0       0       0       0       0
       0       0       0       0       0       0       0       0       0       0
       0       0       0       0       0       0       0       0       0       0
       0       0       0       0       0       0       0       0       0       0
       0       0       0       0       0       0       0       0       0       0
       0       0       0       0       0       0       0       0       0       0
       0       0       0       0       0       0       0       0       0       0
       0       0       0       0       0       0       0       0       0       0
       0       0       0       0       0       0       0       0       0       0
       0       0       0       0       0       0       0       0       0       0
       0       0       0       0       0       0       0       0       0       0
       0       0       0       0       0       0       0       0       0       0
       0       0       0       0       0       0       0       0       0       0
       0       0       0       0       0       0       0       0       0       0
       0       0       0       0       0       0       0       0       0       0
       0       0       0       0       0       0       0       0       0       0
       0       0       0       0       0       0       0       0       0       0
       0       0       0       0       0       0       0       0       0       0
       0       0       0       0       0       0       0       0       0       0
       0       0       0       0       0       0       0       0       0       0
       0       0       0       0       0       0       0       0       0       0
       0       0       0       0       0       0       0       0       0       0
       0       0       0       0       0       0       0       0       0       0
       0       0       0       0       0       0       0       0       0       0
       0       0       0       0       0       0       0       0       0       0
       0       0       0       0       0       0       0       0       0       0
       0       0       0       0       0       0       0       0       0       0
       0       0       0       0       0       0       0       0       0       0
       0       0       0       0       0       0       0       0       0       0
       0       0       0       0       0       0       0       0       0       0
       0       0       0       0       0       0       0       0       0       0
       0       0       0       0       0       0       0       0       0       0
       0       0       0       0       0       0       0       0       0       0
       0       0       0       0       0       0       0       0       0       0
       0       0       0       0       0       0       0       0       0       0
       0       0       0       0       0       0       0       0       0       0
       0       0       0       0       0       0       0       0       0       0
       0       0       0       0       0       0       0       0       0       0
       0       0       0       0       0       0       0       0       0       0
       0       0       0       0       0       0       0       0       0       0
       0       0       0       0       0       0       0       0       0       0
       0       0       0       0       0       0       0       0       0       0
       0       0       0       0       0       0       0       0       0       0
       0       0       0       0       0       0       0       0       0       0
       0       0       0       0       0       0       0       0       0       0
       0       0       0       0       0       0       0       0       0       0
       0       0       0       0       0       0       0       0       0       0
       0       0       0       0       0       0       0       0       0       0
       0       0       0       0       0       0       0       0       0       0
       0       0       0       0       0       0       0       0       0       0
       0       0       0       0       0       0       0       0       0       0
       0       0       0       0       0       0       0       0       0       0
       0       0       0       0       0       0       0       0       0       0
       0       0       0       0       0       0       0       0       0       0
       0       0       0       0       0       0       0       0       0       0
       0       0       0       0       0       0       0       0       0       0
       0       0       0       0       0       0       0       0       0       0
       0       0       0       0       0       0       0       0       0       0
       0       0       0       0       0       0       0       0       0       0
       0       0       0       0       0       0       0       0       0       0
       0       0       0       0       0       0       0       0       0       0
       0       0       0       0       0       0       0       0       0       0
       0       0       0       0       0       0       0       0       0       0
       0       0       0       0       0       0       0       0       0       0
       0       0       0       0       0       0       0       0       0       0
       0       0       0       0       0       0       0       0       0       0
       0       0       0       0       0       0       0       0       0       0
       0       0       0       0       0       0       0       0       0       0
       0       0       0       0       0       0       0       0       0       0
       0       0       0       0       0       0       0       0       0       0
       0       0       0       0       0       0       0       0       0       0
       0       0       0       0       0       0       0       0       0       0
       0       0       0       0       0       0       0       0       0       0
       0       0       0       0       0       0       0       0       0       0
       0       0       0       0       0       0       0       0       0       0
       0       0       0       0       0       0       0       0       0       0
       0       0       0       0       0       0       0       0       0       0
       0       0       0       0       0       0       0       0       0       0
       0       0       0       0       0       0       0       0       0       0
       0       0       0       0       0       0       0       0       0       0
       0       0       0       0       0       0       0       0       0       0
       0       0       0       0       0       0       0       0       0       0
       0       0       0       0       0       0       0       0       0       0
       0       0       0       0       0       0       0       0       0       0
       0       0       0       0       0       0       0       0       0       0
       0       0       0       0       0       0       0       0       0       0
       0       0       0       0       0       0       0       0       0       0
       0       0       0       0       0       0       0       0       0       0
       0       0       0       0       0       0       0       0       0       0
       0       0       0       0       0       0       0       0       0       0
       0       0       0       0       0       0       0       0       0       0
       0       0       0       0       0       0       0       0       0       0
       0       0       0       0       0       0       0       0       0       0
       0       0       0       0       0       0       0       0       0       0
       0       0       0       0       0       0       0       0       0       0
       0       0       0       0       0       0       0       0       0       0
       0       0       0       0       0       0       0       0       0       0
       0       0       0       0       0       0       0       0       0       0
       0       0       0       0       0       0       0       0       0       0
       0       0       0       0       0       0       0       0       0       0
       0       0       0       0       0       0       0       0       0       0
       0       0       0       0       0       0       0       0       0       0
       0       0       0       0       0       0       0       0       0       0
       0       0       0       0       0       0       0       0       0       0
       0       0       0       0       0       0       0       0       0       0
       0       0       0       0       0       0       0       0       0       0
       0       0       0       0       0       0       0       0       0       0
       0       0       0       0       0       0       0       0       0       0
       0       0       0       0       0       0       0       0       0       0
       0       0       0       0       0       0       0       0       0       0
       0       0       0       0       0       0       0       0       0       0
       0       0       0       0       0       0       0       0       0       0
       0       0       0       0       0       0       0       0       0       0
       0       0       0       0       0       0       0       0       0       0
       0       0       0       0       0       0       0       0       0       0
       0       0       0       0       0       0       0       0       0       0
       0       0       0       0       0       0       0       0       0       0
       0       0       0       0       0       0       0       0       0       0
       0       0       0       0       0       0       0       0       0       0
       0       0       0       0       0       0       0       0       0       0
       0       0       0       0       0       0       0       0       0       0
       0       0       0       0       0       0       0       0       0       0
       0       0       0       0       0       0       0       0       0       0
       0       0       0       0       0       0       0       0       0       0
       0       0       0       0       0       0       0       0       0       0
       0       0       0       0       0       0       0       0       0       0
       0       0       0       0       0       0       0       0       0       0
       0       0       0       0       0       0       0       0       0       0
       0       0       0       0       0       0       0       0       0       0
       0       0       0       0       0       0       0       0       0       0
       0       0       0       0       0       0       0       0       0       0
       0       0       0       0       0       0       0       0       0       0
       0       0       0       0       0       0       0       0       0       0
       0       0       0       0       0       0       0       0       0       0
       0       0       0       0       0       0       0       0       0       0
       0       0       0       0       0       0       0       0       0       0
       0       0       0       0       0       0       0       0       0       0
       0       0       0       0       0       0       0       0       0       0
       0       0       0       0       0       0       0       0       0       0
       0       0       0       0       0       0       0       0       0       0
       0       0       0       0       0       0       0       0       0       0
       0       0       0       0       0       0       0       0       0       0
       0       0       0       0       0       0       0       0       0       0
       0       0       0       0       0       0       0       0       0       0
       0       0       0       0       0       0       0       0       0       0
       0       0       0       0       0       0       0       0       0       0
       0       0       0       0       0       0       0       0       0       0
       0       0       0       0       0       0       0       0       0       0
       0       0       0       0       0       0       0       0       0       0
       0       0       0       0       0       0       0       0       0       0
       0       0       0       0       0       0       0       0       0       0
       0       0       0       0       0       0       0       0       0       0
       0       0       0       0       0       0       0       0       0       0
       0       0       0       0       0       0       0       0       0       0
       0       0       0       0       0       0       0       0       0       0
       0       0       0       0       0       0       0       0       0       0
       0       0       0       0       0       0       0       0       0       0
       0       0       0       0       0       0       0       0       0       0
       0       0       0       0       0       0       0       0       0       0
       0       0       0       0       0       0       0       0       0       0
       0       0       0       0       0       0       0       0       0       0
       0       0       0       0       0       0       0       0       0       0
       0       0       0       0       0       0       0       0       0       0
       0       0       0       0       0       0       0       0       0       0
       0       0       0       0       0       0       0       0       0       0
       0       0       0       0       0       0       0       0       0       0
       0       0       0       0       0       0       0       0       0       0
       0       0       0       0       0       0       0       0       0       0
       0       0       0       0       0       0       0       0       0       0
       0       0       0       0       0       0       0       0       0       0
       0       0       0       0       0       0       0       0       0       0
       0       0       0       0       0       0       0       0       0       0
       0       0       0       0       0       0       0       0       0       0
       0       0       0       0       0       0       0       0       0       0
       0       0       0       0       0       0       0       0       0       0
       0       0       0       0       0       0       0       0       0       0
       0       0       0       0       0       0       0       0       0       0
       0       0       0       0       0       0       0       0       0       0
       0       0       0       0       0       0       0       0       0       0
       0       0       0       0       0       0       0       0       0       0
       0       0       0       0       0       0       0       0       0       0
       0       0       0       0       0       0       0       0       0       0
       0       0       0       0       0       0       0       0       0       0
       0       0       0       0       0       0       0       0       0       0
       0       0       0       0       0       0       0       0       0       0
       0       0       0       0       0       0       0       0       0       0
       0       0       0       0       0       0       0       0       0       0
       0       0       0       0       0       0       0       0       0       0
       0       0       0       0       0       0       0       0       0       0
       0       0       0       0       0       0       0       0       0       0
       0       0       0       0       0       0       0       0       0       0
       0       0       0       0       0       0       0       0       0       0
       0       0       0       0       0       0       0       0       0       0
       0       0       0       0       0       0       0       0       0       0
       0       0       0       0       0       0       0       0       0       0
       0       0       0       0       0       0       0       0       0       0
       0       0       0       0       0       0       0       0       0       0
       0       0       0       0       0       0       0       0       0       0
       0       0       0       0       0       0       0       0       0       0
       0       0       0       0       0       0       0       0       0       0
       0       0       0       0       0       0       0       0       0       0
       0       0       0       0       0       0       0       0       0       0
       0       0       0       0       0       0       0       0       0       0
       0       0       0       0       0       0       0       0       0       0
       0       0       0       0       0       0       0       0       0       0
       0       0       0       0       0       0       0       0       0       0
       0       0       0       0       0       0       0       0       0       0
       0       0       0       0       0       0       0       0       0       0
       0       0       0       0       0       0       0       0       0       0
       0       0       0       0       0       0       0       0       0       0
       0       0       0       0       0       0       0       0       0       0
       0       0       0       0       0       0       0       0       0       0
       0       0       0       0       0       0       0       0       0       0
       0       0       0       0       0       0       0       0       0       0
       0       0       0       0       0       0       0       0       0       0
       0       0       0       0       0       0       0       0       0       0
       0       0       0       0       0       0       0       0       0       0
       0       0       0       0       0       0       0       0       0       0
       0       0       0       0       0       0       0       0       0       0
       0       0       0       0       0       0       0       0       0       0
       0       0       0       0       0       0       0       0       0       0
       0       0       0       0       0       0       0       0       0       0
       0       0       0       0       0       0       0       0       0       0
       0       0       0       0       0       0       0       0       0       0
       0       0       0       0       0       0       0       0       0       0
       0       0       0       0       0       0       0       0       0       0
       0       0       0       0       0       0       0       0       0       0
       0       0       0       0       0       0       0       0       0       0
       0       0       0       0       0       0       0       0       0       0
       0       0       0       0       0       0       0       0       0       0
       0       0       0       0       0       0       0       0       0       0
       0       0       0       0       0       0       0       0       0       0
       0       0       0       0       0       0       0       0       0       0
       0       0       0       0       0       0       0       0       0       0
       0       0       0       0       0       0       0       0       0       0
       0       0       0       0       0       0       0       0       0       0
       0       0       0       0       0       0       0       0       0       0
       0       0       0       0       0       0       0       0       0       0
       0       0       0       0       0       0       0       0       0       0
       0       0       0       0       0       0       0       0       0       0
       0       0       0       0       0       0       0       0       0       0
       0       0       0       0       0       0       0       0       0       0
       0       0       0       0       0       0       0       0       0       0
       0       0       0       0       0       0       0       0       0       0
       0       0       0       0       0       0       0       0       0       0
       0       0       0       0       0       0       0       0       0       0
       0       0       0       0       0       0       0       0       0       0
       0       0       0       0       0       0       0       0       0       0
       0       0       0       0       0       0       0       0       0       0
       0       0       0       0       0       0       0       0       0       0
       0       0       0       0       0       0       0       0       0       0
       0       0       0       0       0       0       0       0       0       0
       0       0       0       0       0       0       0       0       0       0
       0       0       0       0       0       0       0       0       0       0
       0       0       0       0       0       0       0       0       0       0
       0       0       0       0       0       0       0       0       0       0
       0       0       0       0       0       0       0       0       0       0
       0       0       0       0       0       0       0       0       0       0
       0       0       0       0       0       0       0       0       0       0
       0       0       0       0       0       0       0       0       0       0
       0       0       0       0       0       0       0       0       0       0
       0       0       0       0       0       0       0       0       0       0
       0       0       0       0       0       0       0       0       0       0
       0       0       0       0       0       0       0       0       0       0
       0       0       0       0       0       0       0       0       0       0
       0       0       0       0       0       0       0       0       0       0
       0       0       0       0       0       0       0       0       0       0
       0       0       0       0       0       0       0       0       0       0
       0       0       0       0       0       0       0       0       0       0
       0       0       0       0       0       0       0       0       0       0
       0       0       0       0       0       0       0       0       0       0
       0       0       0       0       0       0       0       0       0       0
       0       0       0       0       0       0       0       0       0       0
       0       0       0       0       0       0       0       0       0       0
       0       0       0       0       0       0       0       0       0       0
       0       0       0       0       0       0       0       0       0       0
       0       0       0       0       0       0       0       0       0       0
       0       0       0       0       0       0       0       0       0       0
       0       0       0       0       0       0       0       0       0       0
       0       0       0       0       0       0       0       0       0       0
       0       0       0       0       0       0       0       0       0       0
       0       0       0       0       0       0       0       0       0       0
       0       0       0       0       0       0       0       0       0       0
       0       0       0       0       0       0       0       0       0       0
       0       0       0       0       0       0       0       0       0       0
       0       0       0       0       0       0       0       0       0       0
       0       0       0       0       0       0       0       0       0       0
       0       0       0       0       0       0       0       0       0       0
       0       0       0       0       0       0       0       0       0       0
       0       0       0       0       0       0       0       0       0       0
       0       0       0       0       0       0       0       0       0       0
       0       0       0       0       0       0       0       0       0       0
       0       0       0       0       0       0       0       0       0       0
       0       0       0       0       0       0       0       0       0       0
       0       0       0       0       0       0       0       0       0       0
       0       0       0       0       0       0       0       0       0       0
       0       0       0       0       0       0       0       0       0       0
       0       0       0       0       0       0       0       0       0       0
       0       0       0       0       0       0       0       0       0       0
       0       0       0       0       0       0       0       0       0       0
       0       0       0       0       0       0       0       0       0       0
       0       0       0       0       0       0       0       0       0       0
       0       0       0       0       0       0       0       0       0       0
       0       0       0       0       0       0       0       0       0       0
       0       0       0       0       0       0       0       0       0       0
       0       0       0       0       0       0       0       0       0       0
       0       0       0       0       0       0       0       0       0       0
       0       0       0       0       0       0       0       0       0       0
       0       0       0       0       0       0       0       0       0       0
       0       0       0       0       0       0       0       0       0       0
       0       0       0       0       0       0       0       0       0       0
       0       0       0       0       0       0       0       0       0       0
       0       0       0       0       0       0       0       0       0       0
       0       0       0       0       0       0       0       0       0       0
       0       0       0       0       0       0       0       0       0       0
       0       0       0       0       0       0       0       0       0       0
       0       0       0       0       0       0       0       0       0       0
       0       0       0       0       0       0       0       0       0       0
       0       0       0       0       0       0       0       0       0       0
       0       0       0       0       0       0       0       0       0       0
       0       0       0       0       0       0       0       0       0       0
       0       0       0       0       0       0       0       0       0       0
       0       0       0       0       0       0       0       0       0       0
       0       0       0       0       0       0       0       0       0       0
       0       0       0       0       0       0       0       0       0       0
       0       0       0       0       0       0       0       0       0       0
       0       0       0       0       0       0       0       0       0       0
       0       0       0       0       0       0       0       0       0       0
       0       0       0       0       0       0       0       0       0       0
       0       0       0       0       0       0       0       0       0       0
       0       0       0       0       0       0       0       0       0       0
       0       0       0       0       0       0       0       0       0       0
       0       0       0       0       0       0       0       0       0       0
       0       0       0       0       0       0       0       0       0       0
       0       0       0       0       0       0       0       0       0       0
       0       0       0       0       0       0       0       0       0       0
       0       0       0       0       0       0       0       0       0       0
       0       0       0       0       0       0       0       0       0       0
       0       0       0       0       0       0       0       0       0       0
       0       0       0       0       0       0       0       0       0       0
       0       0       0       0       0       0       0       0       0       0
       0       0       0       0       0       0       0       0       0       0
       0       0       0       0       0       0       0       0       0       0
       0       0       0       0       0       0       0       0       0       0
       0       0       0       0       0       0       0       0       0       0
       0       0       0       0       0       0       0       0       0       0
       0       0       0       0       0       0       0       0       0       0
       0       0       0       0       0       0       0       0       0       0
       0       0       0       0       0       0       0       0       0       0
       0       0       0       0       0       0       0       0       0       0
       0       0       0       0       0       0       0       0       0       0
       0       0       0       0       0       0       0       0       0       0
       0       0       0       0       0       0       0       0       0       0
       0       0       0       0       0       0       0       0       0       0
       0       0       0       0       0       0       0       0       0       0
       0       0       0       0       0       0       0       0       0       0
       0       0       0       0       0       0       0       0       0       0
       0       0       0       0       0       0       0       0       0       0
       0       0       0       0       0       0       0       0       0       0
       0       0       0       0       0       0       0       0       0       0
       0       0       0       0       0       0       0       0       0       0
       0       0       0       0       0       0       0       0       0       0
       0       0       0       0       0       0       0       0       0       0
       0       0       0       0       0       0       0       0       0       0
       0       0       0       0       0       0       0       0       0       0
       0       0       0       0       0       0       0       0       0       0
       0       0       0       0       0       0       0       0       0       0
       0       0       0       0       0       0       0       0       0       0
       0       0       0       0       0       0       0       0       0       0
       0       0       0       0       0       0       0       0       0       0
       0       0       0       0       0       0       0       0       0       0
       0       0       0       0       0       0       0       0       0       0
       0       0       0       0       0       0       0       0       0       0
       0       0       0       0       0       0       0       0       0       0
       0       0       0       0       0       0       0       0       0       0
       0       0       0       0       0       0       0       0       0       0
       0       0       0       0       0       0       0       0       0       0
       0       0       0       0       0       0       0       0       0       0
       0       0       0       0       0       0       0       0       0       0
       0       0       0       0       0       0       0       0       0       0
       0       0       0       0       0       0       0       0       0       0
       0       0       0       0       0       0       0       0       0       0
       0       0       0       0       0       0       0       0       0       0
       0       0       0       0       0       0       0       0       0       0
       0       0       0       0       0       0       0       0       0       0
       0       0       0       0       0       0       0       0       0       0
       0       0       0       0       0       0       0       0       0       0
       0       0       0       0       0       0       0       0       0       0
       0       0       0       0       0       0       0       0       0       0
       0       0       0       0       0       0       0       0       0       0
       0       0       0       0       0       0       0       0       0       0
       0       0       0       0       0       0       0       0       0       0
       0       0       0       0       0       0       0       0       0       0
       0       0       0       0       0       0       0       0       0       0
       0       0       0       0       0       0       0       0       0       0
       0       0       0       0       0       0       0       0       0       0
       0       0       0       0       0       0       0       0       0       0
       0       0       0       0       0       0       0       0       0       0
       0       0       0       0       0       0       0       0       0       0
       0       0       0       0       0       0       0       0       0       0
       0       0       0       0       0       0       0       0       0       0
       0       0       0       0       0       0       0       0       0       0
       0       0       0       0       0       0       0       0       0       0
       0       0       0       0       0       0       0       0       0       0
       0       0       0       0       0       0       0       0       0       0
       0       0       0       0       0       0       0       0       0       0
       0       0       0       0       0       0       0       0       0       0
       0       0       0       0       0       0       0       0       0       0
       0       0       0       0       0       0       0       0       0       0
       0       0       0       0       0       0       0       0       0       0
       0       0       0       0       0       0       0       0       0       0
       0       0       0       0       0       0       0       0       0       0
       0       0       0       0       0       0       0       0       0       0
       0       0       0       0       0       0       0       0       0       0
       0       0       0       0       0       0       0       0       0       0
       0       0       0       0       0       0       0       0       0       0
       0       0       0       0       0       0       0       0       0       0
       0       0       0       0       0       0       0       0       0       0
       0       0       0       0       0       0       0       0       0       0
       0       0       0       0       0       0       0       0       0       0
       0       0       0       0       0       0       0       0       0       0
       0       0       0       0       0       0       0       0       0       0
       0       0       0       0       0       0       0       0       0       0
       0       0       0       0       0       0       0       0       0       0
       0       0       0       0       0       0       0       0       0       0
       0       0       0       0       0       0       0       0       0       0
       0       0       0       0       0       0       0       0       0       0
       0       0       0       0       0       0       0       0       0       0
       0       0       0       0       0       0       0       0       0       0
       0       0       0       0       0       0       0       0       0       0
       0       0       0       0       0       0       0       0       0       0
       0       0       0       0       0       0       0       0       0       0
       0       0       0       0       0       0       0       0       0       0
       0       0       0       0       0       0       0       0       0       0
       0       0       0       0       0       0       0       0       0       0
       0       0       0       0       0       0       0       0       0       0
       0       0       0       0       0       0       0       0       0       0
       0       0       0       0       0       0       0       0       0       0
       0       0       0       0       0       0       0       0       0       0
       0       0       0       0       0       0       0       0       0       0
       0       0       0       0       0       0       0       0       0       0
       0       0       0       0       0       0       0       0       0       0
       0       0       0       0       0       0       0       0       0       0
       0       0       0       0       0       0       0       0       0       0
       0       0       0       0       0       0       0       0       0       0
       0       0       0       0       0       0       0       0       0       0
       0       0       0       0       0       0       0       0       0       0
       0       0       0       0       0       0       0       0       0       0
       0       0       0       0       0       0       0       0       0       0
       0       0       0       0       0       0       0       0       0       0
       0       0       0       0       0       0       0       0       0       0
       0       0       0       0       0       0       0       0       0       0
       0       0       0       0       0       0       0       0       0       0
       0       0       0       0       0       0       0       0       0       0
       0       0       0       0       0       0       0       0       0       0
       0       0       0       0       0       0       0       0       0       0
       0       0       0       0       0       0       0       0       0       0
       0       0       0       0       0       0       0       0       0       0
       0       0       0       0       0       0       0       0       0       0
       0       0       0       0       0       0       0       0       0       0
       0       0       0       0       0       0       0       0       0       0
       0       0       0       0       0       0       0       0       0       0
       0       0       0       0       0       0       0       0       0       0
       0       0       0       0       0       0       0       0       0       0
       0       0       0       0       0       0       0       0       0       0
       0       0       0       0       0       0       0       0       0       0
       0       0       0       0       0       0       0       0       0       0
       0       0       0       0       0       0       0       0       0       0
       0       0       0       0       0       0       0       0       0       0
       0       0       0       0       0       0       0       0       0       0
       0       0       0       0       0       0       0       0       0       0
       0       0       0       0       0       0       0       0       0       0
       0       0       0       0       0       0       0       0       0       0
       0       0       0       0       0       0       0       0       0       0
       0       0       0       0       0       0       0       0       0       0
       0       0       0       0       0       0       0       0       0       0
       0       0       0       0       0       0       0       0       0       0
       0       0       0       0       0       0       0       0       0       0
       0       0       0       0       0       0       0       0       0       0
       0       0       0       0       0       0       0       0       0       0
       0       0       0       0       0       0       0       0       0       0
       0       0       0       0       0       0       0       0       0       0
       0       0       0       0       0       0       0       0       0       0
       0       0       0       0       0       0       0       0       0       0
       0       0       0       0       0       0       0       0       0       0
       0       0       0       0       0       0       0       0       0       0
       0       0       0       0       0       0       0       0       0       0
       0       0       0       0       0       0       0       0       0       0
       0       0       0       0       0       0       0       0       0       0
       0       0       0       0       0       0       0       0       0       0
       0       0       0       0       0       0       0       0       0       0
       0       0       0       0       0       0       0       0       0       0
       0       0       0       0       0       0       0       0       0       0
       0       0       0       0       0       0       0       0       0       0
       0       0       0       0       0       0       0       0       0       0
       0       0       0       0       0       0       0       0       0       0
       0       0       0       0       0       0       0       0       0       0
       0       0       0       0       0       0       0       0       0       0
       0       0       0       0       0       0       0       0       0       0
       0       0       0       0       0       0       0       0       0       0
       0       0       0       0       0       0       0       0       0       0
       0       0       0       0       0       0       0       0       0       0
       0       0       0       0       0       0       0       0       0       0
       0       0       0       0       0       0       0       0       0       0
       0       0       0       0       0       0       0       0       0       0
       0       0       0       0       0       0       0       0       0       0
       0       0       0       0       0       0       0       0       0       0
       0       0       0       0       0       0       0       0       0       0
       0       0       0       0       0       0       0       0       0       0
       0       0       0       0       0       0       0       0       0       0
       0       0       0       0       0       0       0       0       0       0
       0       0       0       0       0       0       0       0       0       0
       0       0       0       0       0       0       0       0       0       0
       0       0       0       0       0       0       0       0       0       0
       0       0       0       0       0       0       0       0       0       0
       0       0       0       0       0       0       0       0       0       0
       0       0       0       0       0       0       0       0       0       0
       0       0       0       0       0       0       0       0       0       0
       0       0       0       0       0       0       0       0       0       0
       0       0       0       0       0       0       0       0       0       0
       0       0       0       0       0       0       0       0       0       0
       0       0       0       0       0       0       0       0       0       0
       0       0       0       0       0       0       0       0       0       0
       0       0       0       0       0       0       0       0       0       0
       0       0       0       0       0       0       0       0       0       0
       0       0       0       0       0       0       0       0       0       0
       0       0       0       0       0       0       0       0       0       0
       0       0       0       0       0       0       0       0       0       0
       0       0       0       0       0       0       0       0       0       0
       0       0       0       0       0       0       0       0       0       0
       0       0       0       0       0       0       0       0       0       0
       0       0       0       0       0       0       0       0       0       0
       0       0       0       0       0       0       0       0       0       0
       0       0       0       0       0       0       0       0       0       0
       0       0       0       0       0       0       0       0       0       0
       0       0       0       0       0       0       0       0       0       0
       0       0       0       0       0       0       0       0       0       0
       0       0       0       0       0       0       0       0       0       0
       0       0       0       0       0       0       0       0       0       0
       0       0       0       0       0       0       0       0       0       0
       0       0       0       0       0       0       0       0       0       0
       0       0       0       0       0       0       0       0       0       0
       0       0       0       0       0       0       0       0       0       0
       0       0       0       0       0       0       0       0       0       0
       0       0       0       0       0       0       0       0       0       0
       0       0       0       0       0       0       0       0       0       0
       0       0       0       0       0       0       0       0       0       0
       0       0       0       0       0       0       0       0       0       0
       0       0       0       0       0       0       0       0       0       0
       0       0       0       0       0       0       0       0       0       0
       0       0       0       0       0       0       0       0       0       0
       0       0       0       0       0       0       0       0       0       0
       0       0       0       0       0       0       0       0       0       0
       0       0       0       0       0       0       0       0       0       0
       0       0       0       0       0       0       0       0       0       0
       0       0       0       0       0       0       0       0       0       0
       0       0       0       0       0       0       0       0       0       0
       0       0       0       0       0       0       0       0       0       0
       0       0       0       0       0       0       0       0       0       0
       0       0       0       0       0       0       0       0       0       0
       0       0       0       0       0       0       0       0       0       0
       0       0       0       0       0       0       0       0       0       0
       0       0       0       0       0       0       0       0       0       0
       0       0       0       0       0       0       0       0       0       0
       0       0       0       0       0       0       0       0       0       0
       0       0       0       0       0       0       0       0       0       0
       0       0       0       0       0       0       0       0       0       0
       0       0       0       0       0       0       0       0       0       0
       0       0       0       0       0       0       0       0       0       0
       0       0       0       0       0       0       0       0       0       0
       0       0       0       0       0       0       0       0       0       0
       0       0       0       0       0       0       0       0       0       0
       0       0       0       0       0       0       0       0       0       0
       0       0       0       0       0       0       0       0       0       0
       0       0       0       0       0       0       0       0       0       0
       0       0       0       0       0       0       0       0       0       0
       0       0       0       0       0       0       0       0       0       0
       0       0       0       0       0       0       0       0       0       0
       0       0       0       0       0       0       0       0       0       0
       0       0       0       0       0       0       0       0       0       0
       0       0       0       0       0       0       0       0       0       0
       0       0       0       0       0       0       0       0       0       0
       0       0       0       0       0       0       0       0       0       0
       0       0       0       0       0       0       0       0       0       0
       0       0       0       0       0       0       0       0       0       0
       0       0       0       0       0       0       0       0       0       0
       0       0       0       0       0       0       0       0       0       0
       0       0       0       0       0       0       0       0       0       0
       0       0       0       0       0       0       0       0       0       0
       0       0       0       0       0       0       0       0       0       0
       0       0       0       0       0       0       0       0       0       0
       0       0       0       0       0       0       0       0       0       0
       0       0       0       0       0       0       0       0       0       0
       0       0       0       0       0       0       0       0       0       0
       0       0       0       0       0       0       0       0       0       0
       0       0       0       0       0       0       0       0       0       0
       0       0       0       0       0       0       0       0       0       0
       0       0       0       0       0       0       0       0       0       0
       0       0       0       0       0       0       0       0       0       0
       0       0       0       0       0       0       0       0       0       0
       0       0       0       0       0       0       0       0       0       0
       0       0       0       0       0       0       0       0       0       0
       0       0       0       0       0       0       0       0       0       0
       0       0       0       0       0       0       0       0       0       0
       0       0       0       0       0       0       0       0       0       0
       0       0       0       0       0       0       0       0       0       0
       0       0       0       0       0       0       0       0       0       0
       0       0       0       0       0       0       0       0       0       0
       0       0       0       0       0       0       0       0       0       0
       0       0       0       0       0       0       0       0       0       0
       0       0       0       0       0       0       0       0       0       0
       0       0       0       0       0       0       0       0       0       0
       0       0       0       0       0       0       0       0       0       0
       0       0       0       0       0       0       0       0       0       0
       0       0       0       0       0       0       0       0       0       0
       0       0       0       0       0       0       0       0       0       0
       0       0       0       0       0       0       0       0       0       0
       0       0       0       0       0       0       0       0       0       0
       0       0       0       0       0       0       0       0       0       0
       0       0       0       0       0       0       0       0       0       0
       0       0       0       0       0       0       0       0       0       0
       0       0       0       0       0       0       0       0       0       0
       0       0       0       0       0       0       0       0       0       0
       0       0       0       0       0       0       0       0       0       0
       0       0       0       0       0       0       0       0       0       0
       0       0       0       0       0       0       0       0       0       0
       0       0       0       0       0       0       0       0       0       0
       0       0       0       0       0       0       0       0       0       0
       0       0       0       0       0       0       0       0       0       0
       0       0       0       0       0       0       0       0       0       0
       0       0       0       0       0       0       0       0       0       0
       0       0       0       0       0       0       0       0       0       0
       0       0       0       0       0       0       0       0       0       0
       0       0       0       0       0       0       0       0       0       0
       0       0       0       0       0       0       0       0       0       0
       0       0       0       0       0       0       0       0       0       0
       0       0       0       0       0       0       0       0       0       0
       0       0       0       0       0       0       0       0       0       0
       0       0       0       0       0       0       0       0       0       0
       0       0       0       0       0       0       0       0       0       0
       0       0       0       0       0       0       0       0       0       0
       0       0       0       0       0       0       0       0       0       0
       0       0       0       0       0       0       0       0       0       0
       0       0       0       0       0       0       0       0       0       0
       0       0       0       0       0       0       0       0       0       0
       0       0       0       0       0       0       0       0       0       0
       0       0       0       0       0       0       0       0       0       0
       0       0       0       0       0       0       0       0       0       0
       0       0       0       0       0       0       0       0       0       0
       0       0       0       0       0       0       0       0       0       0
       0       0       0       0       0       0       0       0       0       0
       0       0       0       0       0       0       0       0       0       0
       0       0       0       0       0       0       0       0       0       0
       0       0       0       0       0       0       0       0       0       0
       0       0       0       0       0       0       0       0       0       0
       0       0       0       0       0       0       0       0       0       0
       0       0       0       0       0       0       0       0       0       0
       0       0       0       0       0       0       0       0       0       0
       0       0       0       0       0       0       0       0       0       0
       0       0       0       0       0       0       0       0       0       0
       0       0       0       0       0       0       0       0       0       0
       0       0       0       0       0       0       0       0       0       0
       0       0       0       0       0       0       0       0       0       0
       0       0       0       0       0       0       0       0       0       0
       0       0       0       0       0       0       0       0       0       0
       0       0       0       0       0       0       0       0       0       0
       0       0       0       0       0       0       0       0       0       0
       0       0       0       0       0       0       0       0       0       0
       0       0       0       0       0       0       0       0       0       0
       0       0       0       0       0       0       0       0       0       0
       0       0       0       0       0       0       0       0       0       0
       0       0       0       0       0       0       0       0       0       0
       0       0       0       0       0       0       0       0       0       0
       0       0       0       0       0       0       0       0       0       0
       0       0       0       0       0       0       0       0       0       0
       0       0       0       0       0       0       0       0       0       0
       0       0       0       0       0       0       0       0       0       0
       0       0       0       0       0       0       0       0       0       0
       0       0       0       0       0       0       0       0       0       0
       0       0       0       0       0       0       0       0       0       0
       0       0       0       0       0       0       0       0       0       0
       0       0       0       0       0       0       0       0       0       0
       0       0       0       0       0       0       0       0       0       0
       0       0       0       0       0       0       0       0       0       0
       0       0       0       0       0       0       0       0       0       0
       0       0       0       0       0       0       0       0       0       0
       0       0       0       0       0       0       0       0       0       0
       0       0       0       0       0       0       0       0       0       0
       0       0       0       0       0       0       0       0       0       0
       0       0       0       0       0       0       0       0       0       0
       0       0       0       0       0       0       0       0       0       0
       0       0       0       0       0       0       0       0       0       0
       0       0       0       0       0       0       0       0       0       0
       0       0       0       0       0       0       0       0       0       0
       0       0       0       0       0       0       0       0       0       0
       0       0       0       0       0       0       0       0       0       0
       0       0       0       0       0       0       0       0       0       0
       0       0       0       0       0       0       0       0       0       0
       0       0       0       0       0       0       0       0       0       0
       0       0       0       0       0       0       0       0       0       0
       0       0       0       0       0       0       0       0       0       0
       0       0       0       0       0       0       0       0       0       0
       0       0       0       0       0       0       0       0       0       0
       0       0       0       0       0       0       0       0       0       0
       0       0       0       0       0       0       0       0       0       0
       0       0       0       0       0       0       0       0       0       0
       0       0       0       0       0       0       0       0       0       0
       0       0       0       0       0       0       0       0       0       0
       0       0       0       0       0       0       0       0       0       0
       0       0       0       0       0       0       0       0       0       0
       0       0       0       0       0       0       0       0       0       0
       0       0       0       0       0       0       0       0       0       0
       0       0       0       0       0       0       0       0       0       0
       0       0       0       0       0       0       0       0       0       0
       0       0       0       0       0       0       0       0       0       0
       0       0       0       0       0       0       0       0       0       0
       0       0       0       0       0       0       0       0       0       0
       0       0       0       0       0       0       0       0       0       0
       0       0       0       0       0       0       0       0       0       0
       0       0       0       0       0       0       0       0       0       0
       0       0       0       0       0       0       0       0       0       0
       0       0       0       0       0       0       0       0       0       0
       0       0       0       0       0       0       0       0       0       0
       0       0       0       0       0       0       0       0       0       0
       0       0       0       0       0       0       0       0       0       0
       0       0       0       0       0       0       0       0       0       0
       0       0       0       0       0       0       0       0       0       0
       0       0       0       0       0       0       0       0       0       0
       0       0       0       0       0       0       0       0       0       0
       0       0       0       0       0       0       0       0       0       0
       0       0       0       0       0       0       0       0       0       0
       0       0       0       0       0       0       0       0       0       0
       0       0       0       0       0       0       0       0       0       0
       0       0       0       0       0       0       0       0       0       0
       0       0       0       0       0       0       0       0       0       0
       0       0       0       0       0       0       0       0       0       0
       0       0       0       0       0       0       0       0       0       0
       0       0       0       0       0       0       0       0       0       0
       0       0       0       0       0       0       0       0       0       0
       0       0       0       0       0       0       0       0       0       0
       0       0       0       0       0       0       0       0       0       0
       0       0       0       0       0       0       0       0       0       0
       0       0       0       0       0       0       0       0       0       0
       0       0       0       0       0       0       0       0       0       0
       0       0       0       0       0       0       0       0       0       0
       0       0       0       0       0       0       0       0       0       0
       0       0       0       0       0       0       0       0       0       0
       0       0       0       0       0       0       0       0       0       0
       0       0       0       0       0       0       0       0       0       0
       0       0       0       0       0       0       0       0       0       0
       0       0       0       0       0       0       0       0       0       0
       0       0       0       0       0       0       0       0       0       0
       0       0       0       0       0       0       0       0       0       0
       0       0       0       0       0       0       0       0       0       0
       0       0       0       0       0       0       0       0       0       0
       0       0       0       0       0       0       0       0       0       0
       0       0       0       0       0       0       0       0       0       0
       0       0       0       0       0       0       0       0       0       0
       0       0       0       0       0       0       0       0       0       0
       0       0       0       0       0       0       0       0       0       0
       0       0       0       0       0       0       0       0       0       0
       0       0       0       0       0       0       0       0       0       0
       0       0       0       0       0       0       0       0       0       0
       0       0       0       0       0       0       0       0       0       0
       0       0       0       0       0       0       0       0       0       0
       0       0       0       0       0       0       0       0       0       0
       0       0       0       0       0       0       0       0       0       0
       0       0       0       0       0       0       0       0       0       0
       0       0       0       0       0       0       0       0       0       0
       0       0       0       0       0       0       0       0       0       0
       0       0       0       0       0       0       0       0       0       0
       0       0       0       0       0       0       0       0       0       0
       0       0       0       0       0       0       0       0       0       0
       0       0       0       0       0       0       0       0       0       0
       0       0       0       0       0       0       0       0       0       0
       0       0       0       0       0       0       0       0       0       0
       0       0       0       0       0       0       0       0       0       0
       0       0       0       0       0       0       0       0       0       0
       0       0       0       0       0       0       0       0       0       0
       0       0       0       0       0       0       0       0       0       0
       0       0       0       0       0       0       0       0       0       0
       0       0       0       0       0       0       0       0       0       0
       0       0       0       0       0       0       0       0       0       0
       0       0       0       0       0       0       0       0       0       0
       0       0       0       0       0       0       0       0       0       0
       0       0       0       0       0       0       0       0       0       0
       0       0       0       0       0       0       0       0       0       0
       0       0       0       0       0       0       0       0       0       0
       0       0       0       0       0       0       0       0       0       0
       0       0       0       0       0       0       0       0       0       0
       0       0       0       0       0       0       0       0       0       0
       0       0       0       0       0       0       0       0       0       0
       0       0       0       0       0       0       0       0       0       0
       0       0       0       0       0       0       0       0       0       0
       0       0       0       0       0       0       0       0       0       0
       0       0       0       0       0       0       0       0       0       0
       0       0       0       0       0       0       0       0       0       0
       0       0       0       0       0       0       0       0       0       0
       0       0       0       0       0       0       0       0       0       0
       0       0       0       0       0       0       0       0       0       0
       0       0       0       0       0       0       0       0       0       0
       0       0       0       0       0       0       0       0       0       0
       0       0       0       0       0       0       0       0       0       0
       0       0       0       0       0       0       0       0       0       0
       0       0       0       0       0       0       0       0       0       0
       0       0       0       0       0       0       0       0       0       0
       0       0       0       0       0       0       0       0       0       0
       0       0       0       0       0       0       0       0       0       0
       0       0       0       0       0       0       0       0       0       0
       0       0       0       0       0       0       0       0       0       0
       0       0       0       0       0       0       0       0       0       0
       0       0       0       0       0       0       0       0       0       0
       0       0       0       0       0       0       0       0       0       0
       0       0       0       0       0       0       0       0       0       0
       0       0       0       0       0       0       0       0       0       0
       0       0       0       0       0       0       0       0       0       0
       0       0       0       0       0       0       0       0       0       0
       0       0       0       0       0       0       0       0       0       0
       0       0       0       0       0       0       0       0       0       0
       0       0       0       0       0       0       0       0       0       0
       0       0       0       0       0       0       0       0       0       0
       0       0       0       0       0       0       0       0       0       0
       0       0       0       0       0       0       0       0       0       0
       0       0       0       0       0       0       0       0       0       0
       0       0       0       0       0       0       0       0       0       0
       0       0       0       0       0       0       0       0       0       0
       0       0       0       0       0       0       0       0       0       0
       0       0       0       0       0       0       0       0       0       0
       0       0       0       0       0       0       0       0       0       0
       0       0       0       0       0       0       0       0       0       0
       0       0       0       0       0       0       0       0       0       0
       0       0       0       0       0       0       0       0       0       0
       0       0       0       0       0       0       0       0       0       0
       0       0       0       0       0       0       0       0       0       0
       0       0       0       0       0       0       0       0       0       0
       0       0       0       0       0       0       0       0       0       0
       0       0       0       0       0       0       0       0       0       0
       0       0       0       0       0       0       0       0       0       0
       0       0       0       0       0       0       0       0       0       0
       0       0       0       0       0       0       0       0       0       0
       0       0       0       0       0       0       0       0       0       0
       0       0       0       0       0       0       0       0       0       0
       0       0       0       0       0       0       0       0       0       0
       0       0       0       0       0       0       0       0       0       0
       0       0       0       0       0       0       0       0       0       0
       0       0       0       0       0       0       0       0       0       0
       0       0       0       0       0       0       0       0       0       0
       0       0       0       0       0       0       0       0       0       0
       0       0       0       0       0       0       0       0       0       0
       0       0       0       0       0       0       0       0       0       0
       0       0       0       0       0       0       0       0       0       0
       0       0       0       0       0       0       0       0       0       0
       0       0       0       0       0       0       0       0       0       0
       0       0       0       0       0       0       0       0       0       0
       0       0       0       0       0       0       0       0       0       0
       0       0       0       0       0       0       0       0       0       0
       0       0       0       0       0       0       0       0       0       0
       0       0       0       0       0       0       0       0       0       0
       0       0       0       0       0       0       0       0       0       0
       0       0       0       0       0       0       0       0       0       0
       0       0       0       0       0       0       0       0       0       0
       0       0       0       0       0       0       0       0       0       0
       0       0       0       0       0       0       0       0       0       0
       0       0       0       0       0       0       0       0       0       0
       0       0       0       0       0       0       0       0       0       0
       0       0       0       0       0       0       0       0       0       0
       0       0       0       0       0       0       0       0       0       0
       0       0       0       0       0       0       0       0       0       0
       0       0       0       0       0       0       0       0       0       0
       0       0       0       0       0       0       0       0       0       0
       0       0       0       0       0       0       0       0       0       0
       0       0       0       0       0       0       0       0       0       0
       0       0       0       0       0       0       0       0       0       0
       0       0       0       0       0       0       0       0       0       0
       0       0       0       0       0       0       0       0       0       0
       0       0       0       0       0       0       0       0       0       0
       0       0       0       0       0       0       0       0       0       0
       0       0       0       0       0       0       0       0       0       0
       0       0       0       0       0       0       0       0       0       0
       0       0       0       0       0       0       0       0       0       0
       0       0       0       0       0       0       0       0       0       0
       0       0       0       0       0       0       0       0       0       0
       0       0       0       0       0       0       0       0       0       0
       0       0       0       0       0       0       0       0       0       0
       0       0       0       0       0       0       0       0       0       0
       0       0       0       0       0       0       0       0       0       0
       0       0       0       0       0       0       0       0       0       0
       0       0       0       0       0       0       0       0       0       0
       0       0       0       0       0       0       0       0       0       0
       0       0       0       0       0       0       0       0       0       0
       0       0       0       0       0       0       0       0       0       0
       0       0       0       0       0       0       0       0       0       0
       0       0       0       0       0       0       0       0       0       0
       0       0       0       0       0       0       0       0       0       0
       0       0       0       0       0       0       0       0       0       0
       0       0       0       0       0       0       0       0       0       0
       0       0       0       0       0       0       0       0       0       0
       0       0       0       0       0       0       0       0       0       0
       0       0       0       0       0       0       0       0       0       0
       0       0       0       0       0       0       0       0       0       0
       0       0       0       0       0       0       0       0       0       0
       0       0       0       0       0       0       0       0       0       0
       0       0       0       0       0       0       0       0       0       0
       0       0       0       0       0       0       0       0       0       0
       0       0       0       0       0       0       0       0       0       0
       0       0       0       0       0       0       0       0       0       0
       0       0       0       0       0       0       0       0       0       0
       0       0       0       0       0       0       0       0       0       0
       0       0       0       0       0       0       0       0       0       0
       0       0       0       0       0       0       0       0       0       0
       0       0       0       0       0       0       0       0       0       0
       0       0       0       0       0       0       0       0       0       0
       0       0       0       0       0       0       0       0       0       0
       0       0       0       0       0       0       0       0       0       0
       0       0       0       0       0       0       0       0       0       0
       0       0       0       0       0       0       0       0       0       0
       0       0       0       0       0       0       0       0       0       0
       0       0       0       0       0       0       0       0       0       0
       0       0       0       0       0       0       0       0       0       0
       0       0       0       0       0       0       0       0       0       0
       0       0       0       0       0       0       0       0       0       0
       0       0       0       0       0       0       0       0       0       0
       0       0       0       0       0       0       0       0       0       0
       0       0       0       0       0       0       0       0       0       0
       0       0       0       0       0       0       0       0       0       0
       0       0       0       0       0       0       0       0       0       0
       0       0       0       0       0       0       0       0       0       0
       0       0       0       0       0       0       0       0       0       0
       0       0       0       0       0       0       0       0       0       0
       0       0       0       0       0       0       0       0       0       0
       0       0       0       0       0       0       0       0       0       0
       0       0       0       0       0       0       0       0       0       0
       0       0       0       0       0       0       0       0       0       0
       0       0       0       0       0       0       0       0       0       0
       0       0       0       0       0       0       0       0       0       0
       0       0       0       0       0       0       0       0       0       0
       0       0       0       0       0       0       0       0       0       0
       0       0       0       0       0       0       0       0       0       0
       0       0       0       0       0       0       0       0       0       0
       0       0       0       0       0       0       0       0       0       0
       0       0       0       0       0       0       0       0       0       0
       0       0       0       0       0       0       0       0       0       0
       0       0       0       0       0       0       0       0       0       0
       0       0       0       0       0       0       0       0       0       0
       0       0       0       0       0       0       0       0       0       0
       0       0       0       0       0       0       0       0       0       0
       0       0       0       0       0       0       0       0       0       0
       0       0       0       0       0       0       0       0       0       0
       0       0       0       0       0       0       0       0       0       0
       0       0       0       0       0       0       0       0       0       0
       0       0       0       0       0       0       0       0       0       0
       0       0       0       0       0       0       0       0       0       0
       0       0       0       0       0       0       0       0       0       0
       0       0       0       0       0       0       0       0       0       0
       0       0       0       0       0       0       0       0       0       0
       0       0       0       0       0       0       0       0       0       0
       0       0       0       0       0       0       0       0       0       0
       0       0       0       0       0       0       0       0       0       0
       0       0       0       0       0       0       0       0       0       0
       0       0       0       0       0       0       0       0       0       0
       0       0       0       0       0       0       0       0       0       0
       0       0       0       0       0       0       0       0       0       0
       0       0       0       0       0       0       0       0       0       0
       0       0       0       0       0       0       0       0       0       0
       0       0       0       0       0       0       0       0       0       0
       0       0       0       0       0       0       0       0       0       0
       0       0       0       0       0       0       0       0       0       0
       0       0       0       0       0       0       0       0       0       0
       0       0       0       0       0       0       0       0       0       0
       0       0       0       0       0       0       0       0       0       0
       0       0       0       0       0       0       0       0       0       0
       0       0       0       0       0       0       0       0       0       0
       0       0       0       0       0       0       0       0       0       0
       0       0       0       0       0       0       0       0       0       0
       0       0       0       0       0       0       0       0       0       0
       0       0       0       0       0       0       0       0       0       0
       0       0       0       0       0       0       0       0       0       0
       0       0       0       0       0       0       0       0       0       0
       0       0       0       0       0       0       0       0       0       0
       0       0       0       0       0       0       0       0       0       0
       0       0       0       0       0       0       0       0       0       0
       0       0       0       0       0       0       0       0       0       0
       0       0       0       0       0       0       0       0       0       0
       0       0       0       0       0       0       0       0       0       0
       0       0       0       0       0       0       0       0       0       0
       0       0       0       0       0       0       0       0       0       0
       0       0       0       0       0       0       0       0       0       0
       0       0       0       0       0       0       0       0       0       0
       0       0       0       0       0       0       0       0       0       0
       0       0       0       0       0       0       0       0       0       0
       0       0       0       0       0       0       0       0       0       0
       0       0       0       0       0       0       0       0       0       0
       0       0       0       0       0       0       0       0       0       0
       0       0       0       0       0       0       0       0       0       0
       0       0       0       0       0       0       0       0       0       0
       0       0       0       0       0       0       0       0       0       0
       0       0       0       0       0       0       0       0       0       0
       0       0       0       0       0       0       0       0       0       0
       0       0       0       0       0       0       0       0       0       0
       0       0       0       0       0       0       0       0       0       0
       0       0       0       0       0       0       0       0       0       0
       0       0       0       0       0       0       0       0       0       0
       0       0       0       0       0       0       0       0       0       0
       0       0       0       0       0       0       0       0       0       0
       0       0       0       0       0       0       0       0       0       0
       0       0       0       0       0       0       0       0       0       0
       0       0       0       0       0       0       0       0       0       0
       0       0       0       0       0       0       0       0       0       0
       0       0       0       0       0       0       0       0       0       0
       0       0       0       0       0       0       0       0       0       0
       0       0       0       0       0       0       0       0       0       0
       0       0       0       0       0       0       0       0       0       0
       0       0       0       0       0       0       0       0       0       0
       0       0       0       0       0       0       0       0       0       0
       0       0       0       0       0       0       0       0       0       0
       0       0       0       0       0       0       0       0       0       0
       0       0       0       0       0       0       0       0       0       0
       0       0       0       0       0       0       0       0       0       0
       0       0       0       0       0       0       0       0       0       0
       0       0       0       0       0       0       0       0       0       0
       0       0       0       0       0       0       0       0       0       0
       0       0       0       0       0       0       0       0       0       0
       0       0       0       0       0       0       0       0       0       0
       0       0       0       0       0       0       0       0       0       0
       0       0       0       0       0       0       0       0       0       0
       0       0       0       0       0       0       0       0       0       0
       0       0       0       0       0       0       0       0       0       0
       0       0       0       0       0       0       0       0       0       0
       0       0       0       0       0       0       0       0       0       0
       0       0       0       0       0       0       0       0       0       0
       0       0       0       0       0       0       0       0       0       0
       0       0       0       0       0       0       0       0       0       0
       0       0       0       0       0       0       0       0       0       0
       0       0       0       0       0       0       0       0       0       0
       0       0       0       0       0       0       0       0       0       0
       0       0       0       0       0       0       0       0       0       0
       0       0       0       0       0       0       0       0       0       0
       0       0       0       0       0       0       0       0       0       0
       0       0       0       0       0       0       0       0       0       0
       0       0       0       0       0       0       0       0       0       0
       0       0       0       0       0       0       0       0       0       0
       0       0       0       0       0       0       0       0       0       0
       0       0       0       0       0       0       0       0       0       0
       0       0       0       0       0       0       0       0       0       0
       0       0       0       0       0       0       0       0       0       0
       0       0       0       0       0       0       0       0       0       0
       0       0       0       0       0       0       0       0       0       0
       0       0       0       0       0       0       0       0       0       0
       0       0       0       0       0       0       0       0       0       0
       0       0       0       0       0       0       0       0       0       0
       0       0       0       0       0       0       0       0       0       0
       0       0       0       0       0       0       0       0       0       0
       0       0       0       0       0       0       0       0       0       0
       0       0       0       0       0       0       0       0       0       0
       0       0       0       0       0       0       0       0       0       0
       0       0       0       0       0       0       0       0       0       0
       0       0       0       0       0       0       0       0       0       0
       0       0       0       0       0       0       0       0       0       0
       0       0       0       0       0       0       0       0       0       0
       0       0       0       0       0       0       0       0       0       0
       0       0       0       0       0       0       0       0       0       0
       0       0       0       0       0       0       0       0       0       0
       0       0       0       0       0       0       0       0       0       0
       0       0       0       0       0       0       0       0       0       0
       0       0       0       0       0       0       0       0       0       0
       0       0       0       0       0       0       0       0       0       0
       0       0       0       0       0       0       0       0       0       0
       0       0       0       0       0       0       0       0       0       0
       0       0       0       0       0       0       0       0       0       0
       0       0       0       0       0       0       0       0       0       0
       0       0       0       0       0       0       0       0       0       0
       0       0       0       0       0       0       0       0       0       0
       0       0       0       0       0       0       0       0       0       0
       0       0       0       0       0       0       0       0       0       0
       0       0       0       0       0       0       0       0       0       0
       0       0       0       0       0       0       0       0       0       0
       0       0       0       0       0       0       0       0       0       0
       0       0       0       0       0       0       0       0       0       0
       0       0       0       0       0       0       0       0       0       0
       0       0       0       0       0       0       0       0       0       0
       0       0       0       0       0       0       0       0       0       0
       0       0       0       0       0       0       0       0       0       0
       0       0       0       0       0       0       0       0       0       0
       0       0       0       0       0       0       0       0       0       0
       0       0       0       0       0       0       0       0       0       0
       0       0       0       0       0       0       0       0       0       0
       0       0       0       0       0       0       0       0       0       0
       0       0       0       0       0       0       0       0       0       0
       0       0       0       0       0       0       0       0       0       0
       0       0       0       0       0       0       0       0       0       0
       0       0       0       0       0       0       0       0       0       0
       0       0       0       0       0       0       0       0       0       0
       0       0       0       0       0       0       0       0       0       0
       0       0       0       0       0       0       0       0       0       0
       0       0       0       0       0       0       0       0       0       0
       0       0       0       0       0       0       0       0       0       0
       0       0       0       0       0       0       0       0       0       0
       0       0       0       0       0       0       0       0       0       0
       0       0       0       0       0       0       0       0       0       0
       0       0       0       0       0       0       0       0       0       0
       0       0       0       0       0       0       0       0       0       0
       0       0       0       0       0       0       0       0       0       0
       0       0       0       0       0       0       0       0       0       0
       0       0       0       0       0       0       0       0       0       0
       0       0       0       0       0       0       0       0       0       0
       0       0       0       0       0       0       0       0       0       0
       0       0       0       0       0       0       0       0       0       0
       0       0       0       0       0       0       0       0       0       0
       0       0       0       0       0       0       0       0       0       0
       0       0       0       0       0       0       0       0       0       0
       0       0       0       0       0       0       0       0       0       0
       0       0       0       0       0       0       0       0       0       0
       0       0       0       0       0       0       0       0       0       0
       0       0       0       0       0       0       0       0       0       0
       0       0       0       0       0       0       0       0       0       0
       0       0       0       0       0       0       0       0       0       0
       0       0       0       0       0       0       0       0       0       0
       0       0       0       0       0       0       0       0       0       0
       0       0       0       0       0       0       0       0       0       0
       0       0       0       0       0       0       0       0       0       0
       0       0       0       0       0       0       0       0       0       0
       0       0       0       0       0       0       0       0       0       0
       0       0       0       0       0       0       0       0       0       0
       0       0       0       0       0       0       0       0       0       0
       0       0       0       0       0       0       0       0       0       0
       0       0       0       0       0       0       0       0       0       0
       0       0       0       0       0       0       0       0       0       0
       0       0       0       0       0       0       0       0       0       0
       0       0       0       0       0       0       0       0       0       0
       0       0       0       0       0       0       0       0       0       0
       0       0       0       0       0       0       0       0       0       0
       0       0       0       0       0       0       0       0       0       0
       0       0       0       0       0       0       0       0       0       0
       0       0       0       0       0       0       0       0       0       0
       0       0       0       0       0       0       0       0       0       0
       0       0       0       0       0       0       0       0       0       0
       0       0       0       0       0       0       0       0       0       0
       0       0       0       0       0       0       0       0       0       0
       0       0       0       0       0       0       0       0       0       0
       0       0       0       0       0       0       0       0       0       0
       0       0       0       0       0       0       0       0       0       0
       0       0       0       0       0       0       0       0       0       0
       0       0       0       0       0       0       0       0       0       0
       0       0       0       0       0       0       0       0       0       0
       0       0       0       0       0       0       0       0       0       0
       0       0       0       0       0       0       0       0       0       0
       0       0       0       0       0       0       0       0       0       0
       0       0       0       0       0       0       0       0       0       0
       0       0       0       0       0       0       0       0       0       0
       0       0       0       0       0       0       0       0       0       0
       0       0       0       0       0       0       0       0       0       0
       0       0       0       0       0       0       0       0       0       0
       0       0       0       0       0       0       0       0       0       0
       0       0       0       0       0       0       0       0       0       0
       0       0       0       0       0       0       0       0       0       0
       0       0       0       0       0       0       0       0       0       0
       0       0       0       0       0       0       0       0       0       0
       0       0       0       0       0       0       0       0       0       0
       0       0       0       0       0       0       0       0       0       0
       0       0       0       0       0       0       0       0       0       0
       0       0       0       0       0       0       0       0       0       0
       0       0       0       0       0       0       0       0       0       0
       0       0       0       0       0       0       0       0       0       0
       0       0       0       0       0       0       0       0       0       0
       0       0       0       0       0       0       0       0       0       0
       0       0       0       0       0       0       0       0       0       0
       0       0       0       0       0       0       0       0       0       0
       0       0       0       0       0       0       0       0       0       0
       0       0       0       0       0       0       0       0       0       0
       0       0       0       0       0       0       0       0       0       0
       0       0       0       0       0       0       0       0       0       0
       0       0       0       0       0       0       0       0       0       0
       0       0       0       0       0       0       0       0       0       0
       0       0       0       0       0       0       0       0       0       0
       0       0       0       0       0       0       0       0       0       0
       0       0       0       0       0       0       0       0       0       0
       0       0       0       0       0       0       0       0       0       0
       0       0       0       0       0       0       0       0       0       0
       0       0       0       0       0       0       0       0       0       0
       0       0       0       0       0       0       0       0       0       0
       0       0       0       0       0       0       0       0       0       0
       0       0       0       0       0       0       0       0       0       0
       0       0       0       0       0       0       0       0       0       0
       0       0       0       0       0       0       0       0       0       0
       0       0       0       0       0       0       0       0       0       0
       0       0       0       0       0       0       0       0       0       0
       0       0       0       0       0       0       0       0       0       0
       0       0       0       0       0       0       0       0       0       0
       0       0       0       0       0       0       0       0       0       0
       0       0       0       0       0       0       0       0       0       0
       0       0       0       0       0       0       0       0       0       0
       0       0       0       0       0       0       0       0       0       0
       0       0       0       0       0       0       0       0       0       0
       0       0       0       0       0       0       0       0       0       0
       0       0       0       0       0       0       0       0       0       0
       0       0       0       0       0       0       0       0       0       0
       0       0       0       0       0       0       0       0       0       0
       0       0       0       0       0       0       0       0       0       0
       0       0       0       0       0       0       0       0       0       0
       0       0       0       0       0       0       0       0       0       0
       0       0       0       0       0       0       0       0       0       0
       0       0       0       0       0       0       0       0       0       0
       0       0       0       0       0       0       0       0       0       0
       0       0       0       0       0       0       0       0       0       0
       0       0       0       0       0       0       0       0       0       0
       0       0       0       0       0       0       0       0       0       0
       0       0       0       0       0       0       0       0       0       0
       0       0       0       0       0       0       0       0       0       0
       0       0       0       0       0       0       0       0       0       0
       0       0       0       0       0       0       0       0       0       0
       0       0       0       0       0       0       0       0       0       0
       0       0       0       0       0       0       0       0       0       0
       0       0       0       0       0       0       0       0       0       0
       0       0       0       0       0       0       0       0       0       0
       0       0       0       0       0       0       0       0       0       0
       0       0       0       0       0       0       0       0       0       0
       0       0       0       0       0       0       0       0       0       0
       0       0       0       0       0       0       0       0       0       0
       0       0       0       0       0       0       0       0       0       0
       0       0       0       0       0       0       0       0       0       0
       0       0       0       0       0       0       0       0       0       0
       0       0       0       0       0       0       0       0       0       0
       0       0       0       0       0       0       0       0       0       0
       0       0       0       0       0       0       0       0       0       0
       0       0       0       0       0       0       0       0       0       0
       0       0       0       0       0       0       0       0       0       0
       0       0       0       0       0       0       0       0       0       0
       0       0       0       0       0       0       0       0       0       0
       0       0       0       0       0       0       0       0       0       0
       0       0       0       0       0       0       0       0       0       0
       0       0       0       0       0       0       0       0       0       0
       0       0       0       0       0       0       0       0       0       0
       0       0       0       0       0       0       0       0       0       0
       0       0       0       0       0       0       0       0       0       0
       0       0       0       0       0       0       0       0       0       0
       0       0       0       0       0       0       0       0       0       0
       0       0       0       0       0       0       0       0       0       0
       0       0       0       0       0       0       0       0       0       0
       0       0       0       0       0       0       0       0       0       0
       0       0       0       0       0       0       0       0       0       0
       0       0       0       0       0       0       0       0       0       0
       0       0       0       0       0       0       0       0       0       0
       0       0       0       0       0       0       0       0       0       0
       0       0       0       0       0       0       0       0       0       0
       0       0       0       0       0       0       0       0       0       0
       0       0       0       0       0       0       0       0       0       0
       0       0       0       0       0       0       0       0       0       0
       0       0       0       0       0       0       0       0       0       0
       0       0       0       0       0       0       0       0       0       0
       0       0       0       0       0       0       0       0       0       0
       0       0       0       0       0       0       0       0       0       0
       0       0       0       0       0       0       0       0       0       0
       0       0       0       0       0       0       0       0       0       0
       0       0       0       0       0       0       0       0       0       0
       0       0       0       0       0       0       0       0       0       0
       0       0       0       0       0       0       0       0       0       0
       0       0       0       0       0       0       0       0       0       0
       0       0       0       0       0       0       0       0       0       0
       0       0       0       0       0       0       0       0       0       0
       0       0       0       0       0       0       0       0       0       0
       0       0       0       0       0       0       0       0       0       0
       0       0       0       0       0       0       0       0       0       0
       0       0       0       0       0       0       0       0       0       0
       0       0       0       0       0       0       0       0       0       0
       0       0       0       0       0       0       0       0       0       0
       0       0       0       0       0       0       0       0       0       0
       0       0       0       0       0       0       0       0       0       0
       0       0       0       0       0       0       0       0       0       0
       0       0       0       0       0       0       0       0       0       0
       0       0       0       0       0       0       0       0       0       0
       0       0       0       0       0       0       0       0       0       0
       0       0       0       0       0       0       0       0       0       0
       0       0       0       0       0       0       0       0       0       0
       0       0       0       0       0       0       0       0       0       0
       0       0       0       0       0       0       0       0       0       0
       0       0       0       0       0       0       0       0       0       0
       0       0       0       0       0       0       0       0       0       0
       0       0       0       0       0       0       0       0       0       0
       0       0       0       0       0       0       0       0       0       0
       0       0       0       0       0       0       0       0       0       0
       0       0       0       0       0       0       0       0       0       0
       0       0       0       0       0       0       0       0       0       0
       0       0       0       0       0       0       0       0       0       0
       0       0       0       0       0       0       0       0       0       0
       0       0       0       0       0       0       0       0       0       0
       0       0       0       0       0       0       0       0       0       0
       0       0       0       0       0       0       0       0       0       0
       0       0       0       0       0       0       0       0       0       0
       0       0       0       0       0       0       0       0       0       0
       0       0       0       0       0       0       0       0       0       0
       0       0       0       0       0       0       0       0       0       0
       0       0       0       0       0       0       0       0       0       0
       0       0       0       0       0       0       0       0       0       0
       0       0       0       0       0       0       0       0       0       0
       0       0       0       0       0       0       0       0       0       0
       0       0       0       0       0       0       0       0       0       0
       0       0       0       0       0       0       0       0       0       0
       0       0       0       0       0       0       0       0       0       0
       0       0       0       0       0       0       0       0       0       0
       0       0       0       0       0       0       0       0       0       0
       0       0       0       0       0       0       0       0       0       0
       0       0       0       0       0       0       0       0       0       0
       0       0       0       0       0       0       0       0       0       0
       0       0       0       0       0       0       0       0       0       0
       0       0       0       0       0       0       0       0       0       0
       0       0       0       0       0       0       0       0       0       0
       0       0       0       0       0       0       0       0       0       0
       0       0       0       0       0       0       0       0       0       0
       0       0       0       0       0       0       0       0       0       0
       0       0       0       0       0       0       0       0       0       0
       0       0       0       0       0       0       0       0       0       0
       0       0       0       0       0       0       0       0       0       0
       0       0       0       0       0       0       0       0       0       0
       0       0       0       0       0       0       0       0       0       0
       0       0       0       0       0       0       0       0       0       0
       0       0       0       0       0       0       0       0       0       0
       0       0       0       0       0       0       0       0       0       0
       0       0       0       0       0       0       0       0       0       0
       0       0       0       0       0       0       0       0       0       0
       0       0       0       0       0       0       0       0       0       0
       0       0       0       0       0       0       0       0       0       0
       0       0       0       0       0       0       0       0       0       0
       0       0       0       0       0       0       0       0       0       0
       0       0       0       0       0       0       0       0       0       0
       0       0       0       0       0       0       0       0       0       0
       0       0       0       0       0       0       0       0       0       0
       0       0       0       0       0       0       0       0       0       0
       0       0       0       0       0       0       0       0       0       0
       0       0       0       0       0       0       0       0       0       0
       0       0       0       0       0       0       0       0       0       0
       0       0       0       0       0       0       0       0       0       0
       0       0       0       0       0       0       0       0       0       0
       0       0       0       0       0       0       0       0       0       0
       0       0       0       0       0       0       0       0       0       0
       0       0       0       0       0       0       0       0       0       0
       0       0       0       0       0       0       0       0       0       0
       0       0       0       0       0       0       0       0       0       0
       0       0       0       0       0       0       0       0       0       0
       0       0       0       0       0       0       0       0       0       0
       0       0       0       0       0       0       0       0       0       0
       0       0       0       0       0       0       0       0       0       0
       0       0       0       0       0       0       0       0       0       0
       0       0       0       0       0       0       0       0       0       0
       0       0       0       0       0       0       0       0       0       0
       0       0       0       0       0       0       0       0       0       0
       0       0       0       0       0       0       0       0       0       0
       0       0       0       0       0       0       0       0       0       0
       0       0       0       0       0       0       0       0       0       0
       0       0       0       0       0       0       0       0       0       0
       0       0       0       0       0       0       0       0       0       0
       0       0       0       0       0       0       0       0       0       0
       0       0       0       0       0       0       0       0       0       0
       0       0       0       0       0       0       0       0       0       0
       0       0       0       0       0       0       0       0       0       0
       0       0       0       0       0       0       0       0       0       0
       0       0       0       0       0       0       0       0       0       0
       0       0       0       0       0       0       0       0       0       0
       0       0       0       0       0       0       0       0       0       0
       0       0       0       0       0       0       0       0       0       0
       0       0       0       0       0       0       0       0       0       0
       0       0       0       0       0       0       0       0       0       0
       0       0       0       0       0       0       0       0       0       0
       0       0       0       0       0       0       0       0       0       0
       0       0       0       0       0       0       0       0       0       0
       0       0       0       0       0       0       0       0       0       0
       0       0       0       0       0       0       0       0       0       0
       0       0       0       0       0       0       0       0       0       0
       0       0       0       0       0       0       0       0       0       0
       0       0       0       0       0       0       0       0       0       0
       0       0       0       0       0       0       0       0       0       0
       0       0       0       0       0       0       0       0       0       0
       0       0       0       0       0       0       0       0       0       0
       0       0       0       0       0       0       0       0       0       0
       0       0       0       0       0       0       0       0       0       0
       0       0       0       0       0       0       0       0       0       0
       0       0       0       0       0       0       0       0       0       0
       0       0       0       0       0       0       0       0       0       0
       0       0       0       0       0       0       0       0       0       0
       0       0       0       0       0       0       0       0       0       0
       0       0       0       0       0       0       0       0       0       0
       0       0       0       0       0       0       0       0       0       0
       0       0       0       0       0       0       0       0       0       0
       0       0       0       0       0       0       0       0       0       0
       0       0       0       0       0       0       0       0       0       0
       0       0       0       0       0       0       0       0       0       0
       0       0       0       0       0       0       0       0       0       0
       0       0       0       0       0       0       0       0       0       0
       0       0       0       0       0       0       0       0       0       0
       0       0       0       0       0       0       0       0       0       0
       0       0       0       0       0       0       0       0       0       0
       0       0       0       0       0       0       0       0       0       0
       0       0       0       0       0       0       0       0       0       0
       0       0       0       0       0       0       0       0       0       0
       0       0       0       0       0       0       0       0       0       0
       0       0       0       0       0       0       0       0       0       0
       0       0       0       0       0       0       0       0       0       0
       0       0       0       0       0       0       0       0       0       0
       0       0       0       0       0       0       0       0       0       0
       0       0       0       0       0       0       0       0       0       0
       0       0       0       0       0       0       0       0       0       0
       0       0       0       0       0       0       0       0       0       0
       0       0       0       0       0       0       0       0       0       0
       0       0       0       0       0       0       0       0       0       0
       0       0       0       0       0       0       0       0       0       0
       0       0       0       0       0       0       0       0       0       0
       0       0       0       0       0       0       0       0       0       0
       0       0       0       0       0       0       0       0       0       0
       0       0       0       0       0       0       0       0       0       0
       0       0       0       0       0       0       0       0       0       0
       0       0       0       0       0       0       0       0       0       0
       0       0       0       0       0       0       0       0       0       0
       0       0       0       0       0       0       0       0       0       0
       0       0       0       0       0       0       0       0       0       0
       0       0       0       0       0       0       0       0       0       0
       0       0       0       0       0       0       0       0       0       0
       0       0       0       0       0       0       0       0       0       0
       0       0       0       0       0       0       0       0       0       0
       0       0       0       0       0       0       0       0       0       0
       0       0       0       0       0       0       0       0       0       0
       0       0       0       0       0       0       0       0       0       0
       0       0       0       0       0       0       0       0       0       0
       0       0       0       0       0       0       0       0       0       0
       0       0       0       0       0       0       0       0       0       0
       0       0       0       0       0       0       0       0       0       0
       0       0       0       0       0       0       0       0       0       0
       0       0       0       0       0       0       0       0       0       0
       0       0       0       0       0       0       0       0       0       0
       0       0       0       0       0       0       0       0       0       0
       0       0       0       0       0       0       0       0       0       0
       0       0       0       0       0       0       0       0       0       0
       0       0       0       0       0       0       0       0       0       0
       0       0       0       0       0       0       0       0       0       0
       0       0       0       0       0       0       0       0       0       0
       0       0       0       0       0       0       0       0       0       0
       0       0       0       0       0       0       0       0       0       0
       0       0       0       0       0       0       0       0       0       0
       0       0       0       0       0       0       0       0       0       0
       0       0       0       0       0       0       0       0       0       0
       0       0       0       0       0       0       0       0       0       0
       0       0       0       0       0       0       0       0       0       0
       0       0       0       0       0       0       0       0       0       0
       0       0       0       0       0       0       0       0       0       0
       0       0       0       0       0       0       0       0       0       0
       0       0       0       0       0       0       0       0       0       0
       0       0       0       0       0       0       0       0       0       0
       0       0       0       0       0       0       0       0       0       0
       0       0       0       0       0       0       0       0       0       0
       0       0       0       0       0       0       0       0       0       0
       0       0       0       0       0       0       0       0       0       0
       0       0       0       0       0       0       0       0       0       0
       0       0       0       0       0       0       0       0       0       0
       0       0       0       0       0       0       0       0       0       0
       0       0       0       0       0       0       0       0       0       0
       0       0       0       0       0       0       0       0       0       0
       0       0       0       0       0       0       0       0       0       0
       0       0       0       0       0       0       0       0       0       0
       0       0       0       0       0       0       0       0       0       0
       0       0       0       0       0       0       0       0       0       0
       0       0       0       0       0       0       0       0       0       0
       0       0       0       0       0       0       0       0       0       0
       0       0       0       0       0       0       0       0       0       0
       0       0       0       0       0       0       0       0       0       0
       0       0       0       0       0       0       0       0       0       0
       0       0       0       0       0       0       0       0       0       0
       0       0       0       0       0       0       0       0       0       0
       0       0       0       0       0       0       0       0       0       0
       0       0       0       0       0       0       0       0       0       0
       0       0       0       0       0       0       0       0       0       0
       0       0       0       0       0       0       0       0       0       0
       0       0       0       0       0       0       0       0       0       0
       0       0       0       0       0       0       0       0       0       0
       0       0       0       0       0       0       0       0       0       0
       0       0       0       0       0       0       0       0       0       0
       0       0       0       0       0       0       0       0       0       0
       0       0       0       0       0       0       0       0       0       0
       0       0       0       0       0       0       0       0       0       0
       0       0       0       0       0       0       0       0       0       0
       0       0       0       0       0       0       0       0       0       0
       0       0       0       0       0       0       0       0       0       0
       0       0       0       0       0       0       0       0       0       0
       0       0       0       0       0       0       0       0       0       0
       0       0       0       0       0       0       0       0       0       0
       0       0       0       0       0       0       0       0       0       0
       0       0       0       0       0       0       0       0       0       0
       0       0       0       0       0       0       0       0       0       0
       0       0       0       0       0       0       0       0       0       0
       0       0       0       0       0       0       0       0       0       0
       0       0       0       0       0       0       0       0       0       0
       0       0       0       0       0       0       0       0       0       0
       0       0       0       0       0       0       0       0       0       0
       0       0       0       0       0       0       0       0       0       0
       0       0       0       0       0       0       0       0       0       0
       0       0       0       0       0       0       0       0       0       0
       0       0       0       0       0       0       0       0       0       0
       0       0       0       0       0       0       0       0       0       0
       0       0       0       0       0       0       0       0       0       0
       0       0       0       0       0       0       0       0       0       0
       0       0       0       0       0       0       0       0       0       0
       0       0       0       0       0       0       0       0       0       0
       0       0       0       0       0       0       0       0       0       0
       0       0       0       0       0       0       0       0       0       0
       0       0       0       0       0       0       0       0       0       0
       0       0       0       0       0       0       0       0       0       0
       0       0       0       0       0       0       0       0       0       0
       0       0       0       0       0       0       0       0       0       0
       0       0       0       0       0       0       0       0       0       0
       0       0       0       0       0       0       0       0       0       0
       0       0       0       0       0       0       0       0       0       0
       0       0       0       0       0       0       0       0       0       0
       0       0       0       0       0       0       0       0       0       0
       0       0       0       0       0       0       0       0       0       0
       0       0       0       0       0       0       0       0       0       0
       0       0       0       0       0       0       0       0       0       0
       0       0       0       0       0       0       0       0       0       0
       0       0       0       0       0       0       0       0       0       0
       0       0       0       0       0       0       0       0       0       0
       0       0       0       0       0       0       0       0       0       0
       0       0       0       0       0       0       0       0       0       0
       0       0       0       0       0       0       0       0       0       0
       0       0       0       0       0       0       0       0       0       0
       0       0       0       0       0       0       0       0       0       0
       0       0       0       0       0       0       0       0       0       0
       0       0       0       0       0       0       0       0       0       0
       0       0       0       0       0       0       0       0       0       0
       0       0       0       0       0       0       0       0       0       0
       0       0       0       0       0       0       0       0       0       0
       0       0       0       0       0       0       0       0       0       0
       0       0       0       0       0       0       0       0       0       0
       0       0       0       0       0       0       0       0       0       0
       0       0       0       0       0       0       0       0       0       0
       0       0       0       0       0       0       0       0       0       0
       0       0       0       0       0       0       0       0       0       0
       0       0       0       0       0       0       0       0       0       0
       0       0       0       0       0       0       0       0       0       0
       0       0       0       0       0       0       0       0       0       0
       0       0       0       0       0       0       0       0       0       0
       0       0       0       0       0       0       0       0       0       0
       0       0       0       0       0       0       0       0       0       0
       0       0       0       0       0       0       0       0       0       0
       0       0       0       0       0       0       0       0       0       0
       0       0       0       0       0       0       0       0       0       0
       0       0       0       0       0       0       0       0       0       0
       0       0       0       0       0       0       0       0       0       0
       0       0       0       0       0       0       0       0       0       0
       0       0       0       0       0       0       0       0       0       0
       0       0       0       0       0       0       0       0       0       0
       0       0       0       0       0       0       0       0       0       0
       0       0       0       0       0       0       0       0       0       0
       0       0       0       0       0       0       0       0       0       0
       0       0       0       0       0       0       0       0       0       0
       0       0       0       0       0       0       0       0       0       0
       0       0       0       0       0       0       0       0       0       0
       0       0       0       0       0       0       0       0       0       0
       0       0       0       0       0       0       0       0       0       0
       0       0       0       0       0       0       0       0       0       0
       0       0       0       0       0       0       0       0       0       0
       0       0       0       0       0       0       0       0       0       0
       0       0       0       0       0       0       0       0       0       0
       0       0       0       0       0       0       0       0       0       0
       0       0       0       0       0       0       0       0       0       0
       0       0       0       0       0       0       0       0       0       0
       0       0       0       0       0       0       0       0       0       0
       0       0       0       0       0       0       0       0       0       0
       0       0       0       0       0       0       0       0       0       0
       0       0       0       0       0       0       0       0       0       0
       0       0       0       0       0       0       0       0       0       0
       0       0       0       0       0       0       0       0       0       0
       0       0       0       0       0       0       0       0       0       0
       0       0       0       0       0       0       0       0       0       0
       0       0       0       0       0       0       0       0       0       0
       0       0       0       0       0       0       0       0       0       0
       0       0       0       0       0       0       0       0       0       0
       0       0       0       0       0       0       0       0       0       0
       0       0       0       0       0       0       0       0       0       0
       0       0       0       0       0       0       0       0       0       0
       0       0       0       0       0       0       0       0       0       0
       0       0       0       0       0       0       0       0       0       0
       0       0       0       0       0       0       0       0       0       0
       0       0       0       0       0       0       0       0       0       0
       0       0       0       0       0       0       0       0       0       0
       0       0       0       0       0       0       0       0       0       0
       0       0       0       0       0       0       0       0       0       0
       0       0       0       0       0       0       0       0       0       0
       0       0       0       0       0       0       0       0       0       0
       0       0       0       0       0       0       0       0       0       0
       0       0       0       0       0       0       0       0       0       0
       0       0       0       0       0       0       0       0       0       0
       0       0       0       0       0       0       0       0       0       0
       0       0       0       0       0       0       0       0       0       0
       0       0       0       0       0       0       0       0       0       0
       0       0       0       0       0       0       0       0       0       0
       0       0       0       0       0       0       0       0       0       0
       0       0       0       0       0       0       0       0       0       0
       0       0       0       0       0       0       0       0       0       0
       0       0       0       0       0       0       0       0       0       0
       0       0       0       0       0       0       0       0       0       0
       0       0       0       0       0       0       0       0       0       0
       0       0       0       0       0       0       0       0       0       0
       0       0       0       0       0       0       0       0       0       0
       0       0       0       0       0       0       0       0       0       0
       0       0       0       0       0       0       0       0       0       0
       0       0       0       0       0       0       0       0       0       0
       0       0       0       0       0       0       0       0       0       0
       0       0       0       0       0       0       0       0       0       0
       0       0       0       0       0       0       0       0       0       0
       0       0       0       0       0       0       0       0       0       0
       0       0       0       0       0       0       0       0       0       0
       0       0       0       0       0       0       0       0       0       0
       0       0       0       0       0       0       0       0       0       0
       0       0       0       0       0       0       0       0       0       0
       0       0       0       0       0       0       0       0       0       0
       0       0       0       0       0       0       0       0       0       0
       0       0       0       0       0       0       0       0       0       0
       0       0       0       0       0       0       0       0       0       0
       0       0       0       0       0       0       0       0       0       0
       0       0       0       0       0       0       0       0       0       0
       0       0       0       0       0       0       0       0       0       0
       0       0       0       0       0       0       0       0       0       0
       0       0       0       0       0       0       0       0       0       0
       0       0       0       0       0       0       0       0       0       0
       0       0       0       0       0       0       0       0       0       0
       0       0       0       0       0       0       0       0       0       0
       0       0       0       0       0       0       0       0       0       0
       0       0       0       0       0       0       0       0       0       0
       0       0       0       0       0       0       0       0       0       0
       0       0       0       0       0       0       0       0       0       0
       0       0       0       0       0       0       0       0       0       0
       0       0       0       0       0       0       0       0       0       0
       0       0       0       0       0       0       0       0       0       0
       0       0       0       0       0       0       0       0       0       0
       0       0       0       0       0       0       0       0       0       0
       0       0       0       0       0       0       0       0       0       0
       0       0       0       0       0       0       0       0       0       0
       0       0       0       0       0       0       0       0       0       0
       0       0       0       0       0       0       0       0       0       0
       0       0       0       0       0       0       0       0       0       0
       0       0       0       0       0       0       0       0       0       0
       0       0       0       0       0       0       0       0       0       0
       0       0       0       0       0       0       0       0       0       0
       0       0       0       0       0       0       0       0       0       0
       0       0       0       0       0       0       0       0       0       0
       0       0       0       0       0       0       0       0       0       0
       0       0       0       0       0       0       0       0       0       0
       0       0       0       0       0       0       0       0       0       0
       0       0       0       0       0       0       0       0       0       0
       0       0       0       0       0       0       0       0       0       0
       0       0       0       0       0       0       0       0       0       0
       0       0       0       0       0       0       0       0       0       0
       0       0       0       0       0       0       0       0       0       0
       0       0       0       0       0       0       0       0       0       0
       0       0       0       0       0       0       0       0       0       0
       0       0       0       0       0       0       0       0       0       0
       0       0       0       0       0       0       0       0       0       0
       0       0       0       0       0       0       0       0       0       0
       0       0       0       0       0       0       0       0       0       0
       0       0       0       0       0       0       0       0       0       0
       0       0       0       0       0       0       0       0       0       0
       0       0       0       0       0       0       0       0       0       0
       0       0       0       0       0       0       0       0       0       0
       0       0       0       0       0       0       0       0       0       0
       0       0       0       0       0       0       0       0       0       0
       0       0       0       0       0       0       0       0       0       0
       0       0       0       0       0       0       0       0       0       0
       0       0       0       0       0       0       0       0       0       0
       0       0       0       0       0       0       0       0       0       0
       0       0       0       0       0       0       0       0       0       0
       0       0       0       0       0       0       0       0       0       0
       0       0       0       0       0       0       0       0       0       0
       0       0       0       0       0       0       0       0       0       0
       0       0       0       0       0       0       0       0       0       0
       0       0       0       0       0       0       0       0       0       0
       0       0       0       0       0       0       0       0       0       0
       0       0       0       0       0       0       0       0       0       0
       0       0       0       0       0       0       0       0       0       0
       0       0       0       0       0       0       0       0       0       0
       0       0       0       0       0       0       0       0       0       0
       0       0       0       0       0       0       0       0       0       0
       0       0       0       0       0       0       0       0       0       0
       0       0       0       0       0       0       0       0       0       0
       0       0       0       0       0       0       0       0       0       0
       0       0       0       0       0       0       0       0       0       0
       0       0       0       0       0       0       0       0       0       0
       0       0       0       0       0       0       0       0       0       0
       0       0       0       0       0       0       0       0       0       0
       0       0       0       0       0       0       0       0       0       0
       0       0       0       0       0       0       0       0       0       0
       0       0       0       0       0       0       0       0       0       0
       0       0       0       0       0       0       0       0       0       0
       0       0       0       0       0       0       0       0       0       0
       0       0       0       0       0       0       0       0       0       0
       0       0       0       0       0       0       0       0       0       0
       0       0       0       0       0       0       0       0       0       0
       0       0       0       0       0       0       0       0       0       0
       0       0       0       0       0       0       0       0       0       0
       0       0       0       0       0       0       0       0       0       0
       0       0       0       0       0       0       0       0       0       0
       0       0       0       0       0       0       0       0       0       0
       0       0       0       0       0       0       0       0       0       0
       0       0       0       0       0       0       0       0       0       0
       0       0       0       0       0       0       0       0       0       0
       0       0       0       0       0       0       0       0       0       0
       0       0       0       0       0       0       0       0       0       0
       0       0       0       0       0       0       0       0       0       0
       0       0       0       0       0       0       0       0       0       0
       0       0       0       0       0       0       0       0       0       0
       0       0       0       0       0       0       0       0       0       0
       0       0       0       0       0       0       0       0       0       0
       0       0       0       0       0       0       0       0       0       0
       0       0       0       0       0       0       0       0       0       0
       0       0       0       0       0       0       0       0       0       0
       0       0       0       0       0       0       0       0       0       0
       0       0       0       0       0       0       0       0       0       0
       0       0       0       0       0       0       0       0       0       0
       0       0       0       0       0       0       0       0       0       0
       0       0       0       0       0       0       0       0       0       0
       0       0       0       0       0       0       0       0       0       0
       0       0       0       0       0       0       0       0       0       0
       0       0       0       0       0       0       0       0       0       0
       0       0       0       0       0       0       0       0       0       0
       0       0       0       0       0       0       0       0       0       0
       0       0       0       0       0       0       0       0       0       0
       0       0       0       0       0       0       0       0       0       0
       0       0       0       0       0       0       0       0       0       0
       0       0       0       0       0       0       0       0       0       0
       0       0       0       0       0       0       0       0       0       0
       0       0       0       0       0       0       0       0       0       0
       0       0       0       0       0       0       0       0       0       0
       0       0       0       0       0       0       0       0       0       0
       0       0       0       0       0       0       0       0       0       0
       0       0       0       0       0       0       0       0       0       0
       0       0       0       0       0       0       0       0       0       0
       0       0       0       0       0       0       0       0       0       0
       0       0       0       0       0       0       0       0       0       0
       0       0       0       0       0       0       0       0       0       0
       0       0       0       0       0       0       0       0       0       0
       0       0       0       0       0       0       0       0       0       0
       0       0       0       0       0       0       0       0       0       0
       0       0       0       0       0       0       0       0       0       0
       0       0       0       0       0       0       0       0       0       0
       0       0       0       0       0       0       0       0       0       0
       0       0       0       0       0       0       0       0       0       0
       0       0       0       0       0       0       0       0       0       0
       0       0       0       0       0       0       0       0       0       0
       0       0       0       0       0       0       0       0       0       0
       0       0       0       0       0       0       0       0       0       0
       0       0       0       0       0       0       0       0       0       0
       0       0       0       0       0       0       0       0       0       0
       0       0       0       0       0       0       0       0       0       0
       0       0       0       0       0       0       0       0       0       0
       0       0       0       0       0       0       0       0       0       0
       0       0       0       0       0       0       0       0       0       0
       0       0       0       0       0       0       0       0       0       0
       0       0       0       0       0       0       0       0       0       0
       0       0       0       0       0       0       0       0       0       0
       0       0       0       0       0       0       0       0       0       0
       0       0       0       0       0       0       0       0       0       0
       0       0       0       0       0       0       0       0       0       0
       0       0       0       0       0       0       0       0       0       0
       0       0       0       0       0       0       0       0       0       0
       0       0       0       0       0       0       0       0       0       0
       0       0       0       0       0       0       0       0       0       0
       0       0       0       0       0       0       0       0       0       0
       0       0       0       0       0       0       0       0       0       0
       0       0       0       0       0       0       0       0       0       0
       0       0       0       0       0       0       0       0       0       0
       0       0       0       0       0       0       0       0       0       0
       0       0       0       0       0       0       0       0       0       0
       0       0       0       0       0       0       0       0       0       0
       0       0       0       0       0       0       0       0       0       0
       0       0       0       0       0       0       0       0       0       0
       0       0       0       0       0       0       0       0       0       0
       0       0       0       0       0       0       0       0       0       0
       0       0       0       0       0       0       0       0       0       0
       0       0       0       0       0       0       0       0       0       0
       0       0       0       0       0       0       0       0       0       0
       0       0       0       0       0       0       0       0       0       0
       0       0       0       0       0       0       0       0       0       0
       0       0       0       0       0       0       0       0       0       0
       0       0       0       0       0       0       0       0       0       0
       0       0       0       0       0       0       0       0       0       0
       0       0       0       0       0       0       0       0       0       0
       0       0       0       0       0       0       0       0       0       0
       0       0       0       0       0       0       0       0       0       0
       0       0       0       0       0       0       0       0       0       0
       0       0       0       0       0       0       0       0       0       0
       0       0       0       0       0       0       0       0       0       0
       0       0       0       0       0       0       0       0       0       0
       0       0       0       0       0       0       0       0       0       0
       0       0       0       0       0       0       0       0       0       0
       0       0       0       0       0       0       0       0       0       0
       0       0       0       0       0       0       0       0       0       0
       0       0       0       0       0       0       0       0       0       0
       0       0       0       0       0       0       0       0       0       0
       0       0       0       0       0       0       0       0       0       0
       0       0       0       0       0       0       0       0       0       0
       0       0       0       0       0       0       0       0       0       0
       0       0       0       0       0       0       0       0       0       0
       0       0       0       0       0       0       0       0       0       0
       0       0       0       0       0       0       0       0       0       0
       0       0       0       0       0       0       0       0       0       0
       0       0       0       0       0       0       0       0       0       0
       0       0       0       0       0       0       0       0       0       0
       0       0       0       0       0       0       0       0       0       0
       0       0       0       0       0       0       0       0       0       0
       0       0       0       0       0       0       0       0       0       0
       0       0       0       0       0       0       0       0       0       0
       0       0       0       0       0       0       0       0       0       0
       0       0       0       0       0       0       0       0       0       0
       0       0       0       0       0       0       0       0       0       0
       0       0       0       0       0       0       0       0       0       0
       0       0       0       0       0       0       0       0       0       0
       0       0       0       0       0       0       0       0       0       0
       0       0       0       0       0       0       0       0       0       0
       0       0       0       0       0       0       0       0       0       0
       0       0       0       0       0       0       0       0       0       0
       0       0       0       0       0       0       0       0       0       0
       0       0       0       0       0       0       0       0       0       0
       0       0       0       0       0       0       0       0       0       0
       0       0       0       0       0       0       0       0       0       0
       0       0       0       0       0       0       0       0       0       0
       0       0       0       0       0       0       0       0       0       0
       0       0       0       0       0       0       0       0       0       0
       0       0       0       0       0       0       0       0       0       0
       0       0       0       0       0       0       0       0       0       0
       0       0       0       0       0       0       0       0       0       0
       0       0       0       0       0       0       0       0       0       0
       0       0       0       0       0       0       0       0       0       0
       0       0       0       0       0       0       0       0       0       0
       0       0       0       0       0       0       0       0       0       0
       0       0       0       0       0       0       0       0       0       0
       0       0       0       0       0       0       0       0       0       0
       0       0       0       0       0       0       0       0       0       0
       0       0       0       0       0       0       0       0       0       0
       0       0       0       0       0       0       0       0       0       0
       0       0       0       0       0       0       0       0       0       0
       0       0       0       0       0       0       0       0       0       0
       0       0       0       0       0       0       0       0       0       0
       0       0       0       0       0       0       0       0       0       0
       0       0       0       0       0       0       0       0       0       0
       0       0       0       0       0       0       0       0       0       0
       0       0       0       0       0       0       0       0       0       0
       0       0       0       0       0       0       0       0       0       0
       0       0       0       0       0       0       0       0       0       0
       0       0       0       0       0       0       0       0       0       0
       0       0       0       0       0       0       0       0       0       0
       0       0       0       0       0       0       0       0       0       0
       0       0       0       0       0       0       0       0       0       0
       0       0       0       0       0       0       0       0       0       0
       0       0       0       0       0       0       0       0       0       0
       0       0       0       0       0       0       0       0       0       0
       0       0       0       0       0       0       0       0       0       0
       0       0       0       0       0       0       0       0       0       0
       0       0       0       0       0       0       0       0       0       0
       0       0       0       0       0       0       0       0       0       0
       0       0       0       0       0       0       0       0       0       0
       0       0       0       0       0       0       0       0       0       0
       0       0       0       0       0       0       0       0       0       0
       0       0       0       0       0       0       0       0       0       0
       0       0       0       0       0       0       0       0       0       0
       0       0       0       0       0       0       0       0       0       0
       0       0       0       0       0       0       0       0       0       0
       0       0       0       0       0       0       0       0       0       0
       0       0       0       0       0       0       0       0       0       0
       0       0       0       0       0       0       0       0       0       0
       0       0       0       0       0       0       0       0       0       0
       0       0       0       0       0       0       0       0       0       0
       0       0       0       0       0       0       0       0       0       0
       0       0       0       0       0       0       0       0       0       0
       0       0       0       0       0       0       0       0       0       0
       0       0       0       0       0       0       0       0       0       0
       0       0       0       0       0       0       0       0       0       0
       0       0       0       0       0       0       0       0       0       0
       0       0       0       0       0       0       0       0       0       0
       0       0       0       0       0       0       0       0       0       0
       0       0       0       0       0       0       0       0       0       0
       0       0       0       0       0       0       0       0       0       0
       0       0       0       0       0       0       0       0       0       0
       0       0       0       0       0       0       0       0       0       0
       0       0       0       0       0       0       0       0       0       0
       0       0       0       0       0       0       0       0       0       0
       0       0       0       0       0       0       0       0       0       0
       0       0       0       0       0       0       0       0       0       0
       0       0       0       0       0       0       0       0       0       0
       0       0       0       0       0       0       0       0       0       0
       0       0       0       0       0       0       0       0       0       0
       0       0       0       0       0       0       0       0       0       0
       0       0       0       0       0       0       0       0       0       0
       0       0       0       0       0       0       0       0       0       0
       0       0       0       0       0       0       0       0       0       0
       0       0       0       0       0       0       0       0       0       0
       0       0       0       0       0       0       0       0       0       0
       0       0       0       0       0       0       0       0       0       0
       0       0       0       0       0       0       0       0       0       0
       0       0       0       0       0       0       0       0       0       0
       0       0       0       0       0       0       0       0       0       0
       0       0       0       0       0       0       0       0       0       0
       0       0       0       0       0       0       0       0       0       0
       0       0       0       0       0       0       0       0       0       0
       0       0       0       0       0       0       0       0       0       0
       0       0       0       0       0       0       0       0       0       0
       0       0       0       0       0       0       0       0       0       0
       0       0       0       0       0       0       0       0       0       0
       0       0       0       0       0       0       0       0       0       0
       0       0       0       0       0       0       0       0       0       0
       0       0       0       0       0       0       0       0       0       0
       0       0       0       0       0       0       0       0       0       0
       0       0       0       0       0       0       0       0       0       0
       0       0       0       0       0       0       0       0       0       0
       0       0       0       0       0       0       0       0       0       0
       0       0       0       0       0       0       0       0       0       0
       0       0       0       0       0       0       0       0       0       0
       0       0       0       0       0       0       0       0       0       0
       0       0       0       0       0       0       0       0       0       0
       0       0       0       0       0       0       0       0       0       0
       0       0       0       0       0       0       0       0       0       0
       0       0       0       0       0       0       0       0       0       0
       0       0       0       0       0       0       0       0       0       0
       0       0       0       0       0       0       0       0       0       0
       0       0       0       0       0       0       0       0       0       0
       0       0       0       0       0       0       0       0       0       0
       0       0       0       0       0       0       0       0       0       0
       0       0       0       0       0       0       0       0       0       0
       0       0       0       0       0       0       0       0       0       0
       0       0       0       0       0       0       0       0       0       0
       0       0       0       0       0       0       0       0       0       0
       0       0       0       0       0       0       0       0       0       0
       0       0       0       0       0       0       0       0       0       0
       0       0       0       0       0       0       0       0       0       0
       0       0       0       0       0       0       0       0       0       0
       0       0       0       0       0       0       0       0       0       0
       0       0       0       0       0       0       0       0       0       0
       0       0       0       0       0       0       0       0       0       0
       0       0       0       0       0       0       0       0       0       0
       0       0       0       0       0       0       0       0       0       0
       0       0       0       0       0       0       0       0       0       0
       0       0       0       0       0       0       0       0       0       0
       0       0       0       0       0       0       0       0       0       0
       0       0       0       0       0       0       0       0       0       0
       0       0       0       0       0       0       0       0       0       0
       0       0       0       0       0       0       0       0       0       0
       0       0       0       0       0       0       0       0       0       0
       0       0       0       0       0       0       0       0       0       0
       0       0       0       0       0       0       0       0       0       0
       0       0       0       0       0       0       0       0       0       0
       0       0       0       0       0       0       0       0       0       0
       0       0       0       0       0       0       0       0       0       0
       0       0       0       0       0       0       0       0       0       0
       0       0       0       0       0       0       0       0       0       0
       0       0       0       0       0       0       0       0       0       0
       0       0       0       0       0       0       0       0       0       0
       0       0       0       0       0       0       0       0       0       0
       0       0       0       0       0       0       0       0       0       0
       0       0       0       0       0       0       0       0       0       0
       0       0       0       0       0       0       0       0       0       0
       0       0       0       0       0       0       0       0       0       0
       0       0       0       0       0       0       0       0       0       0
       0       0       0       0       0       0       0       0       0       0
       0       0       0       0       0       0       0       0       0       0
       0       0       0       0       0       0       0       0       0       0
       0       0       0       0       0       0       0       0       0       0
       0       0       0       0       0       0       0       0       0       0
       0       0       0       0       0       0       0       0       0       0
       0       0       0       0       0       0       0       0       0       0
       0       0       0       0       0       0       0       0       0       0
       0       0       0       0       0       0       0       0       0       0
       0       0       0       0       0       0       0       0       0       0
       0       0       0       0       0       0       0       0       0       0
       0       0       0       0       0       0       0       0       0       0
       0       0       0       0       0       0       0       0       0       0
       0       0       0       0       0       0       0       0       0       0
       0       0       0       0       0       0       0       0       0       0
       0       0       0       0       0       0       0       0       0       0
       0       0       0       0       0       0       0       0       0       0
       0       0       0       0       0       0       0       0       0       0
       0       0       0       0       0       0       0       0       0       0
       0       0       0       0       0       0       0       0       0       0
       0       0       0       0       0       0       0       0       0       0
       0       0       0       0       0       0       0       0       0       0
       0       0       0       0       0       0       0       0       0       0
       0       0       0       0       0       0       0       0       0       0
       0       0       0       0       0       0       0       0       0       0
       0       0       0       0       0       0       0       0       0       0
       0       0       0       0       0       0       0       0       0       0
       0       0       0       0       0       0       0       0       0       0
       0       0       0       0       0       0       0       0       0       0
       0       0       0       0       0       0       0       0       0       0
       0       0       0       0       0       0       0       0       0       0
       0       0       0       0       0       0       0       0       0       0
       0       0       0       0       0       0       0       0       0       0
       0       0       0       0       0       0       0       0       0       0
       0       0       0       0       0       0       0       0       0       0
       0       0       0       0       0       0       0       0       0       0
       0       0       0       0       0       0       0       0       0       0
       0       0       0       0       0       0       0       0       0       0
       0       0       0       0       0       0       0       0       0       0
       0       0       0       0       0       0       0       0       0       0
       0       0       0       0       0       0       0       0       0       0
       0       0       0       0       0       0       0       0       0       0
       0       0       0       0       0       0       0       0       0       0
       0       0       0       0       0       0       0       0       0       0
       0       0       0       0       0       0       0       0       0       0
       0       0       0       0       0       0       0       0       0       0
       0       0       0       0       0       0       0       0       0       0
       0       0       0       0       0       0       0       0       0       0
       0       0       0       0       0       0       0       0       0       0
       0       0       0       0       0       0       0       0       0       0
       0       0       0       0       0       0       0       0       0       0
       0       0       0       0       0       0       0       0       0       0
       0       0       0       0       0       0       0       0       0       0
       0       0       0       0       0       0       0       0       0       0
       0       0       0       0       0       0       0       0       0       0
       0       0       0       0       0       0       0       0       0       0
       0       0       0       0       0       0       0       0       0       0
       0       0       0       0       0       0       0       0       0       0
       0       0       0       0       0       0       0       0       0       0
       0       0       0       0       0       0       0       0       0       0
       0       0       0       0       0       0       0       0       0       0
       0       0       0       0       0       0       0       0       0       0
       0       0       0       0       0       0       0       0       0       0
       0       0       0       0       0       0       0       0       0       0
       0       0       0       0       0       0       0       0       0       0
       0       0       0       0       0       0       0       0       0       0
       0       0       0       0       0       0       0       0       0       0
       0       0       0       0       0       0       0       0       0       0
       0       0       0       0       0       0       0       0       0       0
       0       0       0       0       0       0       0       0       0       0
       0       0       0       0       0       0       0       0       0       0
       0       0       0       0       0       0       0       0       0       0
       0       0       0       0       0       0       0       0       0       0
       0       0       0       0       0       0       0       0       0       0
       0       0       0       0       0       0       0       0       0       0
       0       0       0       0       0       0       0       0       0       0
       0       0       0       0       0       0       0       0       0       0
       0       0       0       0       0       0       0       0       0       0
       0       0       0       0       0       0       0       0       0       0
       0       0       0       0       0       0       0       0       0       0
       0       0       0       0       0       0       0       0       0       0
       0       0       0       0       0       0       0       0       0       0
       0       0       0       0       0       0       0       0       0       0
       0       0       0       0       0       0       0       0       0       0
       0       0       0       0       0       0       0       0       0       0
       0       0       0       0       0       0       0       0       0       0
       0       0       0       0       0       0       0       0       0       0
       0       0       0       0       0       0       0       0       0       0
       0       0       0       0       0       0       0       0       0       0
       0       0       0       0       0       0       0       0       0       0
       0       0       0       0       0       0       0       0       0       0
       0       0       0       0       0       0       0       0       0       0
       0       0       0       0       0       0       0       0       0       0
       0       0       0       0       0       0       0       0       0       0
       0       0       0       0       0       0       0       0       0       0
       0       0       0       0       0       0       0       0       0       0
       0       0       0       0       0       0       0       0       0       0
       0       0       0       0       0       0       0       0       0       0
       0       0       0       0       0       0       0       0       0       0
       0       0       0       0       0       0       0       0       0       0
       0       0       0       0       0       0       0       0       0       0
       0       0       0       0       0       0       0       0       0       0
       0       0       0       0       0       0       0       0       0       0
       0       0       0       0       0       0       0       0       0       0
       0       0       0       0       0       0       0       0       0       0
       0       0       0       0       0       0       0       0       0       0
       0       0       0       0       0       0       0       0       0       0
       0       0       0       0       0       0       0       0       0       0
       0       0       0       0       0       0       0       0       0       0
       0       0       0       0       0       0       0       0       0       0
       0       0       0       0       0       0       0       0       0       0
       0       0       0       0       0       0       0       0       0       0
       0       0       0       0       0       0       0       0       0       0
       0       0       0       0       0       0       0       0       0       0
       0       0       0       0       0       0       0       0       0       0
       0       0       0       0       0       0       0       0       0       0
       0       0       0       0       0       0       0       0       0       0
       0       0       0       0       0       0       0       0       0       0
       0       0       0       0       0       0       0       0       0       0
       0       0       0       0       0       0       0       0       0       0
       0       0       0       0       0       0       0       0       0       0
       0       0       0       0       0       0       0       0       0       0
       0       0       0       0       0       0       0       0       0       0
       0       0       0       0       0       0       0       0       0       0
       0       0       0       0       0       0       0       0       0       0
       0       0       0       0       0       0       0       0       0       0
       0       0       0       0       0       0       0       0       0       0
       0       0       0       0       0       0       0       0       0       0
       0       0       0       0       0       0       0       0       0       0
       0       0       0       0       0       0       0       0       0       0
       0       0       0       0       0       0       0       0       0       0
       0       0       0       0       0       0       0       0       0       0
       0       0       0       0       0       0       0       0       0       0
       0       0       0       0       0       0       0       0       0       0
       0       0       0       0       0       0       0       0       0       0
       0       0       0       0       0       0       0       0       0       0
       0       0       0       0       0       0       0       0       0       0
       0       0       0       0       0       0       0       0       0       0
       0       0       0       0       0       0       0       0       0       0
       0       0       0       0       0       0       0       0       0       0
       0       0       0       0       0       0       0       0       0       0
       0       0       0       0       0       0       0       0       0       0
       0       0       0       0       0       0       0       0       0       0
       0       0       0       0       0       0       0       0       0       0
       0       0       0       0       0       0       0       0       0       0
       0       0       0       0       0       0       0       0       0       0
       0       0       0       0       0       0       0       0       0       0
       0       0       0       0       0       0       0       0       0       0
       0       0       0       0       0       0       0       0       0       0
       0       0       0       0       0       0       0       0       0       0
       0       0       0       0       0       0       0       0       0       0
       0       0       0       0       0       0       0       0       0       0
       0       0       0       0       0       0       0       0       0       0
       0       0       0       0       0       0       0       0       0       0
       0       0       0       0       0       0       0       0       0       0
       0       0       0       0       0       0       0       0       0       0
       0       0       0       0       0       0       0       0       0       0
       0       0       0       0       0       0       0       0       0       0
       0       0       0       0       0       0       0       0       0       0
       0       0       0       0       0       0       0       0       0       0
       0       0       0       0       0       0       0       0       0       0
       0       0       0       0       0       0       0       0       0       0
       0       0       0       0       0       0       0       0       0       0
       0       0       0       0       0       0       0       0       0       0
       0       0       0       0       0       0       0       0       0       0
       0       0       0       0       0       0       0       0       0       0
       0       0       0       0       0       0       0       0       0       0
       0       0       0       0       0       0       0       0       0       0
       0       0       0       0       0       0       0       0       0       0
       0       0       0       0       0       0       0       0       0       0
       0       0       0       0       0       0       0       0       0       0
       0       0       0       0       0       0       0       0       0       0
       0       0       0       0       0       0       0       0       0       0
       0       0       0       0       0       0       0       0       0       0
       0       0       0       0       0       0       0       0       0       0
       0       0       0       0       0       0       0       0       0       0
       0       0       0       0       0       0       0       0       0       0
       0       0       0       0       0       0       0       0       0       0
       0       0       0       0       0       0       0       0       0       0
       0       0       0       0       0       0       0       0       0       0
       0       0       0       0       0       0       0       0       0       0
       0       0       0       0       0       0       0       0       0       0
       0       0       0       0       0       0       0       0       0       0
       0       0       0       0       0       0       0       0       0       0
       0       0       0       0       0       0       0       0       0       0
       0       0       0       0       0       0       0       0       0       0
       0       0       0       0       0       0       0       0       0       0
       0       0       0       0       0       0       0       0       0       0
       0       0       0       0       0       0       0       0       0       0
       0       0       0       0       0       0       0       0       0       0
       0       0       0       0       0       0       0       0       0       0
       0       0       0       0       0       0       0       0       0       0
       0       0       0       0       0       0       0       0       0       0
       0       0       0       0       0       0       0       0       0       0
       0       0       0       0       0       0       0       0       0       0
       0       0       0       0       0       0       0       0       0       0
       0       0       0       0       0       0       0       0       0       0
       0       0       0       0       0       0       0       0       0       0
       0       0       0       0       0       0       0       0       0       0
       0       0       0       0       0       0       0       0       0       0
       0       0       0       0       0       0       0       0       0       0
       0       0       0       0       0       0       0       0       0       0
       0       0       0       0       0       0       0       0       0       0
       0       0       0       0       0       0       0       0       0       0
       0       0       0       0       0       0       0       0       0       0
       0       0       0       0       0       0       0       0       0       0
       0       0       0       0       0       0       0       0       0       0
       0       0       0       0       0       0       0       0       0       0
       0       0       0       0       0       0       0       0       0       0
       0       0       0       0       0       0       0       0       0       0
       0       0       0       0       0       0       0       0       0       0
       0       0       0       0       0       0       0       0       0       0
       0       0       0       0       0       0       0       0       0       0
       0       0       0       0       0       0       0       0       0       0
       0       0       0       0       0       0       0       0       0       0
       0       0       0       0       0       0       0       0       0       0
       0       0       0       0       0       0       0       0       0       0
       0       0       0       0       0       0       0       0       0       0
       0       0       0       0       0       0       0       0       0       0
       0       0       0       0       0       0       0       0       0       0
       0       0       0       0       0       0       0       0       0       0
       0       0       0       0       0       0       0       0       0       0
       0       0       0       0       0       0       0       0       0       0
       0       0       0       0       0       0       0       0       0       0
       0       0       0       0       0       0       0       0       0       0
       0       0       0       0       0       0       0       0       0       0
       0       0       0       0       0       0       0       0       0       0
       0       0       0       0       0       0       0       0       0       0
       0       0       0       0       0       0       0       0       0       0
       0       0       0       0       0       0       0       0       0       0
       0       0       0       0       0       0       0       0       0       0
       0       0       0       0       0       0       0       0       0       0
       0       0       0       0       0       0       0       0       0       0
       0       0       0       0       0       0       0       0       0       0
       0       0       0       0       0       0       0       0       0       0
       0       0       0       0       0       0       0       0       0       0
       0       0       0       0       0       0       0       0       0       0
       0       0       0       0       0       0       0       0       0       0
       0       0       0       0       0       0       0       0       0       0
       0       0       0       0       0       0       0       0       0       0
       0       0       0       0       0       0       0       0       0       0
       0       0       0       0       0       0       0       0       0       0
       0       0       0       0       0       0       0       0       0       0
       0       0       0       0       0       0       0       0       0       0
       0       0       0       0       0       0       0       0       0       0
       0       0       0       0       0       0       0       0       0       0
       0       0       0       0       0       0       0       0       0       0
       0       0       0       0       0       0       0       0       0       0
       0       0       0       0       0       0       0       0       0       0
       0       0       0       0       0       0       0       0       0       0
       0       0       0       0       0       0       0       0       0       0
       0       0       0       0       0       0       0       0       0       0
       0       0       0       0       0       0       0       0       0       0
       0       0       0       0       0       0       0       0       0       0
       0       0       0       0       0       0       0       0       0       0
       0       0       0       0       0       0       0       0       0       0
       0       0       0       0       0       0       0       0       0       0
       0       0       0       0       0       0       0       0       0       0
       0       0       0       0       0       0       0       0       0       0
       0       0       0       0       0       0       0       0       0       0
       0       0       0       0       0       0       0       0       0       0
       0       0       0       0       0       0       0       0       0       0
       0       0       0       0       0       0       0       0       0       0
       0       0       0       0       0       0       0       0       0       0
       0       0       0       0       0       0       0       0       0       0
       0       0       0       0       0       0       0       0       0       0
       0       0       0       0       0       0       0       0       0       0
       0       0       0       0       0       0       0       0       0       0
       0       0       0       0       0       0       0       0       0       0
       0       0       0       0       0       0       0       0       0       0
       0       0       0       0       0       0       0       0       0       0
       0       0       0       0       0       0       0       0       0       0
       0       0       0       0       0       0       0       0       0       0
       0       0       0       0       0       0       0       0       0       0
       0       0       0       0       0       0       0       0       0       0
       0       0       0       0       0       0       0       0       0       0
       0       0       0       0       0       0       0       0       0       0
       0       0       0       0       0       0       0       0       0       0
       0       0       0       0       0       0       0       0       0       0
       0       0       0       0       0       0       0       0       0       0
       0       0       0       0       0       0       0       0       0       0
       0       0       0       0       0       0       0       0       0       0
       0       0       0       0       0       0       0       0       0       0
       0       0       0       0       0       0       0       0       0       0
       0       0       0       0       0       0       0       0       0       0
       0       0       0       0       0       0       0       0       0       0
       0       0       0       0       0       0       0       0       0       0
       0       0       0       0       0       0       0       0       0       0
       0       0       0       0       0       0       0       0       0       0
       0       0       0       0       0       0       0       0       0       0
       0       0       0       0       0       0       0       0       0       0
       0       0       0       0       0       0       0       0       0       0
       0       0       0       0       0       0       0       0       0       0
       0       0       0       0       0       0       0       0       0       0
       0       0       0       0       0       0       0       0       0       0
       0       0       0       0       0       0       0       0       0       0
       0       0       0       0       0       0       0       0       0       0
       0       0       0       0       0       0       0       0       0       0
       0       0       0       0       0       0       0       0       0       0
       0       0       0       0       0       0       0       0       0       0
       0       0       0       0       0       0       0       0       0       0
       0       0       0       0       0       0       0       0       0       0
       0       0       0       0       0       0       0       0       0       0
       0       0       0       0       0       0       0       0       0       0
       0       0       0       0       0       0       0       0       0       0
       0       0       0       0       0       0       0       0       0       0
       0       0       0       0       0       0       0       0       0       0
       0       0       0       0       0       0       0       0       0       0
       0       0       0       0       0       0       0       0       0       0
       0       0       0       0       0       0       0       0       0       0
       0       0       0       0       0       0       0       0       0       0
       0       0       0       0       0       0       0       0       0       0
       0       0       0       0       0       0       0       0       0       0
       0       0       0       0       0       0       0       0       0       0
       0       0       0       0       0       0       0       0       0       0
       0       0       0       0       0       0       0       0       0       0
       0       0       0       0       0       0       0       0       0       0
       0       0       0       0       0       0       0       0       0       0
       0       0       0       0       0       0       0       0       0       0
       0       0       0       0       0       0       0       0       0       0
       0       0       0       0       0       0       0       0       0       0
       0       0       0       0       0       0       0       0       0       0
       0       0       0       0       0       0       0       0       0       0
       0       0       0       0       0       0       0       0       0       0
       0       0       0       0       0       0       0       0       0       0
       0       0       0       0       0       0       0       0       0       0
       0       0       0       0       0       0       0       0       0       0
       0       0       0       0       0       0       0       0       0       0
       0       0       0       0       0       0       0       0       0       0
       0       0       0       0       0       0       0       0       0       0
       0       0       0       0       0       0       0       0       0       0
       0       0       0       0       0       0       0       0       0       0
       0       0       0       0       0       0       0       0       0       0
       0       0       0       0       0       0       0       0       0       0
       0       0       0       0       0       0       0       0       0       0
       0       0       0       0       0       0       0       0       0       0
       0       0       0       0       0       0       0       0       0       0
       0       0       0       0       0       0       0       0       0       0
       0       0       0       0       0       0       0       0       0       0
       0       0       0       0       0       0       0       0       0       0
       0       0       0       0       0       0       0       0       0       0
       0       0       0       0       0       0       0       0       0       0
       0       0       0       0       0       0       0       0       0       0
       0       0       0       0       0       0       0       0       0       0
       0       0       0       0       0       0       0       0       0       0
       0       0       0       0       0       0       0       0       0       0
       0       0       0       0       0       0       0       0       0       0
       0       0       0       0       0       0       0       0       0       0
       0       0       0       0       0       0       0       0       0       0
       0       0       0       0       0       0       0       0       0       0
       0       0       0       0       0       0       0       0       0       0
       0       0       0       0       0       0       0       0       0       0
       0       0       0       0       0       0       0       0       0       0
       0       0       0       0       0       0       0       0       0       0
       0       0       0       0       0       0       0       0       0       0
       0       0       0       0       0       0       0       0       0       0
       0       0       0       0       0       0       0       0       0       0
       0       0       0       0       0       0       0       0       0       0
       0       0       0       0       0       0       0       0       0       0
       0       0       0       0       0       0       0       0       0       0
       0       0       0       0       0       0       0       0       0       0
       0       0       0       0       0       0       0       0       0       0
       0       0       0       0       0       0       0       0       0       0
       0       0       0       0       0       0       0       0       0       0
       0       0       0       0       0       0       0       0       0       0
       0       0       0       0       0       0       0       0       0       0
       0       0       0       0       0       0       0       0       0       0
       0       0       0       0       0       0       0       0       0       0
       0       0       0       0       0       0       0       0       0       0
       0       0       0       0       0       0       0       0       0       0
       0       0       0       0       0       0       0       0       0       0
       0       0       0       0       0       0       0       0       0       0
       0       0       0       0       0       0       0       0       0       0
       0       0       0       0       0       0       0       0       0       0
       0       0       0       0       0       0       0       0       0       0
       0       0       0       0       0       0       0       0       0       0
       0       0       0       0       0       0       0       0       0       0
       0       0       0       0       0       0       0       0       0       0
       0       0       0       0       0       0       0       0       0       0
       0       0       0       0       0       0       0       0       0       0
       0       0       0       0       0       0       0       0       0       0
       0       0       0       0       0       0       0       0       0       0
       0       0       0       0       0       0       0       0       0       0
       0       0       0       0       0       0       0       0       0       0
       0       0       0       0       0       0       0       0       0       0
       0       0       0       0       0       0       0       0       0       0
       0       0       0       0       0       0       0       0       0       0
       0       0       0       0       0       0       0       0       0       0
       0       0       0       0       0       0       0       0       0       0
       0       0       0       0       0       0       0       0       0       0
       0       0       0       0       0       0       0       0       0       0
       0       0       0       0       0       0       0       0       0       0
       0       0       0       0       0       0       0       0       0       0
       0       0       0       0       0       0       0       0       0       0
       0       0       0       0       0       0       0       0       0       0
       0       0       0       0       0       0       0       0       0       0
       0       0       0       0       0       0       0       0       0       0
       0       0       0       0       0       0       0       0       0       0
       0       0       0       0       0       0       0       0       0       0
       0       0       0       0       0       0       0       0       0       0
       0       0       0       0       0       0       0       0       0       0
       0       0       0       0       0       0       0       0       0       0
       0       0       0       0       0       0       0       0       0       0
       0       0       0       0       0       0       0       0       0       0
       0       0       0       0       0       0       0       0       0       0
       0       0       0       0       0       0       0       0       0       0
       0       0       0       0       0       0       0       0       0       0
       0       0       0       0       0       0       0       0       0       0
       0       0       0       0       0       0       0       0       0       0
       0       0       0       0       0       0       0       0       0       0
       0       0       0       0       0       0       0       0       0       0
       0       0       0       0       0       0       0       0       0       0
       0       0       0       0       0       0       0       0       0       0
       0       0       0       0       0       0       0       0       0       0
       0       0       0       0       0       0       0       0       0       0
       0       0       0       0       0       0       0       0       0       0
       0       0       0       0       0       0       0       0       0       0
       0       0       0       0       0       0       0       0       0       0
       0       0       0       0       0       0       0       0       0       0
       0       0       0       0       0       0       0       0       0       0
       0       0       0       0       0       0       0       0       0       0
       0       0       0       0       0       0       0       0       0       0
       0       0       0       0       0       0       0       0       0       0
       0       0       0       0       0       0       0       0       0       0
       0       0       0       0       0       0       0       0       0       0
       0       0       0       0       0       0       0       0       0       0
       0       0       0       0       0       0       0       0       0       0
       0       0       0       0       0       0       0       0       0       0
       0       0       0       0       0       0       0       0       0       0
       0       0       0       0       0       0       0       0       0       0
       0       0       0       0       0       0       0       0       0       0
       0       0       0       0       0       0       0       0       0       0
       0       0       0       0       0       0       0       0       0       0
       0       0       0       0       0       0       0       0       0       0
       0       0       0       0       0       0       0       0       0       0
       0       0       0       0       0       0       0       0       0       0
       0       0       0       0       0       0       0       0       0       0
       0       0       0       0       0       0       0       0       0       0
       0       0       0       0       0       0       0       0       0       0
       0       0       0       0       0       0       0       0       0       0
       0       0       0       0       0       0       0       0       0       0
       0       0       0       0       0       0       0       0       0       0
       0       0       0       0       0       0       0       0       0       0
       0       0       0       0       0       0       0       0       0       0
       0       0       0       0       0       0       0       0       0       0
       0       0       0       0       0       0       0       0       0       0
       0       0       0       0       0       0       0       0       0       0
       0       0       0       0       0       0       0       0       0       0
       0       0       0       0       0       0       0       0       0       0
       0       0       0       0       0       0       0       0       0       0
       0       0       0       0       0       0       0       0       0       0
       0       0       0       0       0       0       0       0       0       0
       0       0       0       0       0       0       0       0       0       0
       0       0       0       0       0       0       0       0       0       0
       0       0       0       0       0       0       0       0       0       0
       0       0       0       0       0       0       0       0       0       0
       0       0       0       0       0       0       0       0       0       0
       0       0       0       0       0       0       0       0       0       0
       0       0       0       0       0       0       0       0       0       0
       0       0       0       0       0       0       0       0       0       0
       0       0       0       0       0       0       0       0       0       0
       0       0       0       0       0       0       0       0       0       0
       0       0       0       0       0       0       0       0       0       0
       0       0       0       0       0       0       0       0       0       0
       0       0       0       0       0       0       0       0       0       0
       0       0       0       0       0       0       0       0       0       0
       0       0       0       0       0       0       0       0       0       0
       0       0       0       0       0       0       0       0       0       0
       0       0       0       0       0       0       0       0       0       0
       0       0       0       0       0       0       0       0       0       0
       0       0       0       0       0       0       0       0       0       0
       0       0       0       0       0       0       0       0       0       0
       0       0       0       0       0       0       0       0       0       0
       0       0       0       0       0       0       0       0       0       0
       0       0       0       0       0       0       0       0       0       0
       0       0       0       0       0       0       0       0       0       0
       0       0       0       0       0       0       0       0       0       0
       0       0       0       0       0       0       0       0       0       0
       0       0       0       0       0       0       0       0       0       0
       0       0       0       0       0       0       0       0       0       0
       0       0       0       0       0       0       0       0       0       0
       0       0       0       0       0       0       0       0       0       0
       0       0       0       0       0       0       0       0       0       0
       0       0       0       0       0       0       0       0       0       0
       0       0       0       0       0       0       0       0       0       0
       0       0       0       0       0       0       0       0       0       0
       0       0       0       0       0       0       0       0       0       0
       0       0       0       0       0       0       0       0       0       0
       0       0       0       0       0       0       0       0       0       0
       0       0       0       0       0       0       0       0       0       0
       0       0       0       0       0       0       0       0       0       0
       0       0       0       0       0       0       0       0       0       0
       0       0       0       0       0       0       0       0       0       0
       0       0       0       0       0       0       0       0       0       0
       0       0       0       0       0       0       0       0       0       0
       0       0       0       0       0       0       0       0       0       0
       0       0       0       0       0       0       0       0       0       0
       0       0       0       0       0       0       0       0       0       0
       0       0       0       0       0       0       0       0       0       0
       0       0       0       0       0       0       0       0       0       0
       0       0       0       0       0       0       0       0       0       0
       0       0       0       0       0       0       0       0       0       0
       0       0       0       0       0       0       0       0       0       0
       0       0       0       0       0       0       0       0       0       0
       0       0       0       0       0       0       0       0       0       0
       0       0       0       0       0       0       0       0       0       0
       0       0       0       0       0       0       0       0       0       0
       0       0       0       0       0       0       0       0       0       0
       0       0       0       0       0       0       0       0       0       0
       0       0       0       0       0       0       0       0       0       0
       0       0       0       0       0       0       0       0       0       0
       0       0       0       0       0       0       0       0       0       0
       0       0       0       0       0       0       0       0       0       0
       0       0       0       0       0       0       0       0       0       0
       0       0       0       0       0       0       0       0       0       0
       0       0       0       0       0       0       0       0       0       0
       0       0       0       0       0       0       0       0       0       0
       0       0       0       0       0       0       0       0       0       0
       0       0       0       0       0       0       0       0       0       0
       0       0       0       0       0       0       0       0       0       0
       0       0       0       0       0       0       0       0       0       0
       0       0       0       0       0       0       0       0       0       0
       0       0       0       0       0       0       0       0       0       0
       0       0       0       0       0       0       0       0       0       0
       0       0       0       0       0       0       0       0       0       0
       0       0       0       0       0       0       0       0       0       0
       0       0       0       0       0       0       0       0       0       0
       0       0       0       0       0       0       0       0       0       0
       0       0       0       0       0       0       0       0       0       0
       0       0       0       0       0       0       0       0       0       0
       0       0       0       0       0       0       0       0       0       0
       0       0       0       0       0       0       0       0       0       0
       0       0       0       0       0       0       0       0       0       0
       0       0       0       0       0       0       0       0       0       0
       0       0       0       0       0       0       0       0       0       0
       0       0       0       0       0       0       0       0       0       0
       0       0       0       0       0       0       0       0       0       0
       0       0       0       0       0       0       0       0       0       0
       0       0       0       0       0       0       0       0       0       0
       0       0       0       0       0       0       0       0       0       0
       0       0       0       0       0       0       0       0       0       0
       0       0       0       0       0       0       0       0       0       0
       0       0       0       0       0       0       0       0       0       0
       0       0       0       0       0       0       0       0       0       0
       0       0       0       0       0       0       0       0       0       0
       0       0       0       0       0       0       0       0       0       0
       0       0       0       0       0       0       0       0       0       0
       0       0       0       0       0       0       0       0       0       0
       0       0       0       0       0       0       0       0       0       0
       0       0       0       0       0       0       0       0       0       0
       0       0       0       0       0       0       0       0       0       0
       0       0       0       0       0       0       0       0       0       0
       0       0       0       0       0       0       0       0       0       0
       0       0       0       0       0       0       0       0       0       0
       0       0       0       0       0       0       0       0       0       0
       0       0       0       0       0       0       0       0       0       0
       0       0       0       0       0       0       0       0       0       0
       0       0       0       0       0       0       0       0       0       0
       0       0       0       0       0       0       0       0       0       0
       0       0       0       0       0       0       0       0       0       0
       0       0       0       0       0       0       0       0       0       0
       0       0       0       0       0       0       0       0       0       0
       0       0       0       0       0       0       0       0       0       0
       0       0       0       0       0       0       0       0       0       0
       0       0       0       0       0       0       0       0       0       0
       0       0       0       0       0       0       0       0       0       0
       0       0       0       0       0       0       0       0       0       0
       0       0       0       0       0       0       0       0       0       0
       0       0       0       0       0       0       0       0       0       0
       0       0       0       0       0       0       0       0       0       0
       0       0       0       0       0       0       0       0       0       0
       0       0       0       0       0       0       0       0       0       0
       0       0       0       0       0       0       0       0       0       0
       0       0       0       0       0       0       0       0       0       0
       0       0       0       0       0       0       0       0       0       0
       0       0       0       0       0       0       0       0       0       0
       0       0       0       0       0       0       0       0       0       0
       0       0       0       0       0       0       0       0       0       0
       0       0       0       0       0       0       0       0       0       0
       0       0       0       0       0       0       0       0       0       0
       0       0       0       0       0       0       0       0       0       0
       0       0       0       0       0       0       0       0       0       0
       0       0       0       0       0       0       0       0       0       0
       0       0       0       0       0       0       0       0       0       0
       0       0       0       0       0       0       0       0       0       0
       0       0       0       0       0       0       0       0       0       0
       0       0       0       0       0       0       0       0       0       0
       0       0       0       0       0       0       0       0       0       0
       0       0       0       0       0       0       0       0       0       0
       0       0       0       0       0       0       0       0       0       0
       0       0       0       0       0       0       0       0       0       0
       0       0       0       0       0       0       0       0       0       0
       0       0       0       0       0       0       0       0       0       0
       0       0       0       0       0       0       0       0       0       0
       0       0       0       0       0       0       0       0       0       0
       0       0       0       0       0       0       0       0       0       0
       0       0       0       0       0       0       0       0       0       0
       0       0       0       0       0       0       0       0       0       0
       0       0       0       0       0       0       0       0       0       0
       0       0       0       0       0       0       0       0       0       0
       0       0       0       0       0       0       0       0       0       0
       0       0       0       0       0       0       0       0       0       0
       0       0       0       0       0       0       0       0       0       0
       0       0       0       0       0       0       0       0       0       0
       0       0       0       0       0       0       0       0       0       0
       0       0       0       0       0       0       0       0       0       0
       0       0       0       0       0       0       0       0       0       0
       0       0       0       0       0       0       0       0       0       0
       0       0       0       0       0       0       0       0       0       0
       0       0       0       0       0       0       0       0       0       0
       0       0       0       0       0       0       0       0       0       0
       0       0       0       0       0       0       0       0       0       0
       0       0       0       0       0       0       0       0       0       0
       0       0       0       0       0       0       0       0       0       0
       0       0       0       0       0       0       0       0       0       0
       0       0       0       0       0       0       0       0       0       0
       0       0       0       0       0       0       0       0       0       0
       0       0       0       0       0       0       0       0       0       0
       0       0       0       0       0       0       0       0       0       0
       0       0       0       0       0       0       0       0       0       0
       0       0       0       0       0       0       0       0       0       0
       0       0       0       0       0       0       0       0       0       0
       0       0       0       0       0       0       0       0       0       0
       0       0       0       0       0       0       0       0       0       0
       0       0       0       0       0       0       0       0       0       0
       0       0       0       0       0       0       0       0       0       0
       0       0       0       0       0       0       0       0       0       0
       0       0       0       0       0       0       0       0       0       0
       0       0       0       0       0       0       0       0       0       0
       0       0       0       0       0       0       0       0       0       0
       0       0       0       0       0       0       0       0       0       0
       0       0       0       0       0       0       0       0       0       0
       0       0       0       0       0       0       0       0       0       0
       0       0       0       0       0       0       0       0       0       0
       0       0       0       0       0       0       0       0       0       0
       0       0       0       0       0       0       0       0       0       0
       0       0       0       0       0       0       0       0       0       0
       0       0       0       0       0       0       0       0       0       0
       0       0       0       0       0       0       0       0       0       0
       0       0       0       0       0       0       0       0       0       0
       0       0       0       0       0       0       0       0       0       0
       0       0       0       0       0       0       0       0       0       0
       0       0       0       0       0       0       0       0       0       0
       0       0       0       0       0       0       0       0       0       0
       0       0       0       0       0       0       0       0       0       0
       0       0       0       0       0       0       0       0       0       0
       0       0       0       0       0       0       0       0       0       0
       0       0       0       0       0       0       0       0       0       0
       0       0       0       0       0       0       0       0       0       0
       0       0       0       0       0       0       0       0       0       0
       0       0       0       0       0       0       0       0       0       0
       0       0       0       0       0       0       0       0       0       0
       0       0       0       0       0       0       0       0       0       0
       0       0       0       0       0       0       0       0       0       0
       0       0       0       0       0       0       0       0       0       0
       0       0       0       0       0       0       0       0       0       0
       0       0       0       0       0       0       0       0       0       0
       0       0       0       0       0       0       0       0       0       0
       0       0       0       0       0       0       0       0       0       0
       0       0       0       0       0       0       0       0       0       0
       0       0       0       0       0       0       0       0       0       0
       0       0       0       0       0       0       0       0       0       0
       0       0       0       0       0       0       0       0       0       0
       0       0       0       0       0       0       0       0       0       0
       0       0       0       0       0       0       0       0       0       0
       0       0       0       0       0       0       0       0       0       0
       0       0       0       0       0       0       0       0       0       0
       0       0       0       0       0       0       0       0       0       0
       0       0       0       0       0       0       0       0       0       0
       0       0       0       0       0       0       0       0       0       0
       0       0       0       0       0       0       0       0       0       0
       0       0       0       0       0       0       0       0       0       0
       0       0       0       0       0       0       0       0       0       0
       0       0       0       0       0       0       0       0       0       0
       0       0       0       0       0       0       0       0       0       0
       0       0       0       0       0       0       0       0       0       0
       0       0       0       0       0       0       0       0       0       0
       0       0       0       0       0       0       0       0       0       0
       0       0       0       0       0       0       0       0       0       0
       0       0       0       0       0       0       0       0       0       0
       0       0       0       0       0       0       0       0       0       0
       0       0       0       0       0       0       0       0       0       0
       0       0       0       0       0       0       0       0       0       0
       0       0       0       0       0       0       0       0       0       0
       0       0       0       0       0       0       0       0       0       0
       0       0       0       0       0       0       0       0       0       0
       0       0       0       0       0       0       0       0       0       0
       0       0       0       0       0       0       0       0       0       0
       0       0       0       0       0       0       0       0       0       0
       0       0       0       0       0       0       0       0       0       0
       0       0       0       0       0       0       0       0       0       0
       0       0       0       0       0       0       0       0       0       0
       0       0       0       0       0       0       0       0       0       0
       0       0       0       0       0       0       0       0       0       0
       0       0       0       0       0       0       0       0       0       0
       0       0       0       0       0       0       0       0       0       0
       0       0       0       0       0       0       0       0       0       0
       0       0       0       0       0       0       0       0       0       0
       0       0       0       0       0       0       0       0       0       0
       0       0       0       0       0       0       0       0       0       0
       0       0       0       0       0       0       0       0       0       0
       0       0       0       0       0       0       0       0       0       0
       0       0       0       0       0       0       0       0       0       0
       0       0       0       0       0       0       0       0       0       0
       0       0       0       0       0       0       0       0       0       0
       0       0       0       0       0       0       0       0       0       0
       0       0       0       0       0       0       0       0       0       0
       0       0       0       0       0       0       0       0       0       0
       0       0       0       0       0       0       0       0       0       0
       0       0       0       0       0       0       0       0       0       0
       0       0       0       0       0       0       0       0       0       0
       0       0       0       0       0       0       0       0       0       0
       0       0       0       0       0       0       0       0       0       0
       0       0       0       0       0       0       0       0       0       0
       0       0       0       0       0       0       0       0       0       0
       0       0       0       0       0       0       0       0       0       0
       0       0       0       0       0       0       0       0       0       0
       0       0       0       0       0       0       0       0       0       0
       0       0       0       0       0       0       0       0       0       0
       0       0       0       0       0       0       0       0       0       0
       0       0       0       0       0       0       0       0       0       0
       0       0       0       0       0       0       0       0       0       0
       0       0       0       0       0       0       0       0       0       0
       0       0       0       0       0       0       0       0       0       0
       0       0       0       0       0       0       0       0       0       0
       0       0       0       0       0       0       0       0       0       0
       0       0       0       0       0       0       0       0       0       0
       0       0       0       0       0       0       0       0       0       0
       0       0       0       0       0       0       0       0       0       0
       0       0       0       0       0       0       0       0       0       0
       0       0       0       0       0       0       0       0       0       0
       0       0       0       0       0       0       0       0       0       0
       0       0       0       0       0       0       0       0       0       0
       0       0       0       0       0       0       0       0       0       0
       0       0       0       0       0       0       0       0       0       0
       0       0       0       0       0       0       0       0       0       0
       0       0       0       0       0       0       0       0       0       0
       0       0       0       0       0       0       0       0       0       0
       0       0       0       0       0       0       0       0       0       0
       0       0       0       0       0       0       0       0       0       0
       0       0       0       0       0       0       0       0       0       0
       0       0       0       0       0       0       0       0       0       0
       0       0       0       0       0       0       0       0       0       0
       0       0       0       0       0       0       0       0       0       0
       0       0       0       0       0       0       0       0       0       0
       0       0       0       0       0       0       0       0       0       0
       0       0       0       0       0       0       0       0       0       0
       0       0       0       0       0       0       0       0       0       0
       0       0       0       0       0       0       0       0       0       0
       0       0       0       0       0       0       0       0       0       0
       0       0       0       0       0       0       0       0       0       0
       0       0       0       0       0       0       0       0       0       0
       0       0       0       0       0       0       0       0       0       0
       0       0       0       0       0       0       0       0       0       0
       0       0       0       0       0       0       0       0       0       0
       0       0       0       0       0       0       0       0       0       0
       0       0       0       0       0       0       0       0       0       0
       0       0       0       0       0       0       0       0       0       0
       0       0       0       0       0       0       0       0       0       0
       0       0       0       0       0       0       0       0       0       0
       0       0       0       0       0       0       0       0       0       0
       0       0       0       0       0       0       0       0       0       0
       0       0       0       0       0       0       0       0       0       0
       0       0       0       0       0       0       0       0       0       0
       0       0       0       0       0       0       0       0       0       0
       0       0       0       0       0       0       0       0       0       0
       0       0       0       0       0       0       0       0       0       0
       0       0       0       0       0       0       0       0       0       0
       0       0       0       0       0       0       0       0       0       0
       0       0       0       0       0       0       0       0       0       0
       0       0       0       0       0       0       0       0       0       0
       0       0       0       0       0       0       0       0       0       0
       0       0       0       0       0       0       0       0       0       0
       0       0       0       0       0       0       0       0       0       0
       0       0       0       0       0       0       0       0       0       0
       0       0       0       0       0       0       0       0       0       0
       0       0       0       0       0       0       0       0       0       0
       0       0       0       0       0       0       0       0       0       0
       0       0       0       0       0       0       0       0       0       0
       0       0       0       0       0       0       0       0       0       0
       0       0       0       0       0       0       0       0       0       0
       0       0       0       0       0       0       0       0       0       0
       0       0       0       0       0       0       0       0       0       0
       0       0       0       0       0       0       0       0       0       0
       0       0       0       0       0       0       0       0       0       0
       0       0       0       0       0       0       0       0       0       0
       0       0       0       0       0       0       0       0       0       0
       0       0       0       0       0       0       0       0       0       0
       0       0       0       0       0       0       0       0       0       0
       0       0       0       0       0       0       0       0       0       0
       0       0       0       0       0       0       0       0       0       0
       0       0       0       0       0       0       0       0       0       0
       0       0       0       0       0       0       0       0       0       0
       0       0       0       0       0       0       0       0       0       0
       0       0       0       0       0       0       0       0       0       0
       0       0       0       0       0       0       0       0       0       0
       0       0       0       0       0       0       0       0       0       0
       0       0       0       0       0       0       0       0       0       0
       0       0       0       0       0       0       0       0       0       0
       0       0       0       0       0       0       0       0       0       0
       0       0       0       0       0       0       0       0       0       0
       0       0       0       0       0       0       0       0       0       0
       0       0       0       0       0       0       0       0       0       0
       0       0       0       0       0       0       0       0       0       0
       0       0       0       0       0       0       0       0       0       0
       0       0       0       0       0       0       0       0       0       0
       0       0       0       0       0       0       0       0       0       0
       0       0       0       0       0       0       0       0       0       0
       0       0       0       0       0       0       0       0       0       0
       0       0       0       0       0       0       0       0       0       0
       0       0       0       0       0       0       0       0       0       0
       0       0       0       0       0       0       0       0       0       0
       0       0       0       0       0       0       0       0       0       0
       0       0       0       0       0       0       0       0       0       0
       0       0       0       0       0       0       0       0       0       0
       0       0       0       0       0       0       0       0       0       0
       0       0       0       0       0       0       0       0       0       0
       0       0       0       0       0       0       0       0       0       0
       0       0       0       0       0       0       0       0       0       0
       0       0       0       0       0       0       0       0       0       0
       0       0       0       0       0       0       0       0       0       0
       0       0       0       0       0       0       0       0       0       0
       0       0       0       0       0       0       0       0       0       0
       0       0       0       0       0       0       0       0       0       0
       0       0       0       0       0       0       0       0       0       0
       0       0       0       0       0       0       0       0       0       0
       0       0       0       0       0       0       0       0       0       0
       0       0       0       0       0       0       0       0       0       0
       0       0       0       0       0       0       0       0       0       0
       0       0       0       0       0       0       0       0       0       0
       0       0       0       0       0       0       0       0       0       0
       0       0       0       0       0       0       0       0       0       0
       0       0       0       0       0       0       0       0       0       0
       0       0       0       0       0       0       0       0       0       0
       0       0       0       0       0       0       0       0       0       0
       0       0       0       0       0       0       0       0       0       0
       0       0       0       0       0       0       0       0       0       0
       0       0       0       0       0       0       0       0       0       0
       0       0       0       0       0       0       0       0       0       0
       0       0       0       0       0       0       0       0       0       0
       0       0       0       0       0       0       0       0       0       0
       0       0       0       0       0       0       0       0       0       0
       0       0       0       0       0       0       0       0       0       0
       0       0       0       0       0       0       0       0       0       0
       0       0       0       0       0       0       0       0       0       0
       0       0       0       0       0       0       0       0       0       0
       0       0       0       0       0       0       0       0       0       0
       0       0       0       0       0       0       0       0       0       0
       0       0       0       0       0       0       0       0       0       0
       0       0       0       0       0       0       0       0       0       0
       0       0       0       0       0       0       0       0       0       0
       0       0       0       0       0       0       0       0       0       0
       0       0       0       0       0       0       0       0       0       0
       0       0       0       0       0       0       0       0       0       0
       0       0       0       0       0       0       0       0       0       0
       0       0       0       0       0       0       0       0       0       0
       0       0       0       0       0       0       0       0       0       0
       0       0       0       0       0       0       0       0       0       0
       0       0       0       0       0       0       0       0       0       0
       0       0       0       0       0       0       0       0       0       0
       0       0       0       0       0       0       0       0       0       0
       0       0       0       0       0       0       0       0       0       0
       0       0       0       0       0       0       0       0       0       0
       0       0       0       0       0       0       0       0       0       0
       0       0       0       0       0       0       0       0       0       0
       0       0       0       0       0       0       0       0       0       0
       0       0       0       0       0       0       0       0       0       0
       0       0       0       0       0       0       0       0       0       0
       0       0       0       0       0       0       0       0       0       0
       0       0       0       0       0       0       0       0       0       0
       0       0       0       0       0       0       0       0       0       0
       0       0       0       0       0       0       0       0       0       0
       0       0       0       0       0       0       0       0       0       0
       0       0       0       0       0       0       0       0       0       0
       0       0       0       0       0       0       0       0       0       0
       0       0       0       0       0       0       0       0       0       0
       0       0       0       0       0       0       0       0       0       0
       0       0       0       0       0       0       0       0       0       0
       0       0       0       0       0       0       0       0       0       0
       0       0       0       0       0       0       0       0       0       0
       0       0       0       0       0       0       0       0       0       0
       0       0       0       0       0       0       0       0       0       0
       0       0       0       0       0       0       0       0       0       0
       0       0       0       0       0       0       0       0       0       0
       0       0       0       0       0       0       0       0       0       0
       0       0       0       0       0       0       0       0       0       0
       0       0       0       0       0       0       0       0       0       0
       0       0       0       0       0       0       0       0       0       0
       0       0       0       0       0       0       0       0       0       0
       0       0       0       0       0       0       0       0       0       0
       0       0       0       0       0       0       0       0       0       0
       0       0       0       0       0       0       0       0       0       0
       0       0       0       0       0       0       0       0       0       0
       0       0       0       0       0       0       0       0       0       0
       0       0       0       0       0       0       0       0       0       0
       0       0       0       0       0       0       0       0       0       0
       0       0       0       0       0       0       0       0       0       0
       0       0       0       0       0       0       0       0       0       0
       0       0       0       0       0       0       0       0       0       0
       0       0       0       0       0       0       0       0       0       0
       0       0       0       0       0       0       0       0       0       0
       0       0       0       0       0       0       0       0       0       0
       0       0       0       0       0       0       0       0       0       0
       0       0       0       0       0       0       0       0       0       0
       0       0       0       0       0       0       0       0       0       0
       0       0       0       0       0       0       0       0       0       0
       0       0       0       0       0       0       0       0       0       0
       0       0       0       0       0       0       0       0       0       0
       0       0       0       0       0       0       0       0       0       0
       0       0       0       0       0       0       0       0       0       0
       0       0       0       0       0       0       0       0       0       0
       0       0       0       0       0       0       0       0       0       0
       0       0       0       0       0       0       0       0       0       0
       0       0       0       0       0       0       0       0       0       0
       0       0       0       0       0       0       0       0       0       0
       0       0       0       0       0       0       0       0       0       0
       0       0       0       0       0       0       0       0       0       0
       0       0       0       0       0       0       0       0       0       0
       0       0       0       0       0       0       0       0       0       0
       0       0       0       0       0       0       0       0       0       0
       0       0       0       0       0       0       0       0       0       0
       0       0       0       0       0       0       0       0       0       0
       0       0       0       0       0       0       0       0       0       0
       0       0       0       0       0       0       0       0       0       0
       0       0       0       0       0       0       0       0       0       0
       0       0       0       0       0       0       0       0       0       0
       0       0       0       0       0       0       0       0       0       0
       0       0       0       0       0       0       0       0       0       0
       0       0       0       0       0       0       0       0       0       0
       0       0       0       0       0       0       0       0       0       0
       0       0       0       0       0       0       0       0       0       0
       0       0       0       0       0       0       0       0       0       0
       0       0       0       0       0       0       0       0       0       0
       0       0       0       0       0       0       0       0       0       0
       0       0       0       0       0       0       0       0       0       0
       0       0       0       0       0       0       0       0       0       0
       0       0       0       0       0       0       0       0       0       0
       0       0       0       0       0       0       0       0       0       0
       0       0       0       0       0       0       0       0       0       0
       0       0       0       0       0       0       0       0       0       0
       0       0       0       0       0       0       0       0       0       0
       0       0       0       0       0       0       0       0       0       0
       0       0       0       0       0       0       0       0       0       0
       0       0       0       0       0       0       0       0       0       0
       0       0       0       0       0       0       0       0       0       0
       0       0       0       0       0       0       0       0       0       0
       0       0       0       0       0       0       0       0       0       0
       0       0       0       0       0       0       0       0       0       0
       0       0       0       0       0       0       0       0       0       0
       0       0       0       0       0       0       0       0       0       0
       0       0       0       0       0       0       0       0       0       0
       0       0       0       0       0       0       0       0       0       0
       0       0       0       0       0       0       0       0       0       0
       0       0       0       0       0       0       0       0       0       0
       0       0       0       0       0       0       0       0       0       0
       0       0       0       0       0       0       0       0       0       0
       0       0       0       0       0       0       0       0       0       0
       0       0       0       0       0       0       0       0       0       0
       0       0       0       0       0       0       0       0       0       0
       0       0       0       0       0       0       0       0       0       0
       0       0       0       0       0       0       0       0       0       0
       0       0       0       0       0       0       0       0       0       0
       0       0       0       0       0       0       0       0       0       0
       0       0       0       0       0       0       0       0       0       0
       0       0       0       0       0       0       0       0       0       0
       0       0       0       0       0       0       0       0       0       0
       0       0       0       0       0       0       0       0       0       0
       0       0       0       0       0       0       0       0       0       0
       0       0       0       0       0       0       0       0       0       0
       0       0       0       0       0       0       0       0       0       0
       0       0       0       0       0       0       0       0       0       0
       0       0       0       0       0       0       0       0       0       0
       0       0       0       0       0       0       0       0       0       0
       0       0       0       0       0       0       0       0       0       0
       0       0       0       0       0       0       0       0       0       0
       0       0       0       0       0       0       0       0       0       0
       0       0       0       0       0       0       0       0       0       0
       0       0       0       0       0       0       0       0       0       0
       0       0       0       0       0       0       0       0       0       0
       0       0       0       0       0       0       0       0       0       0
       0       0       0       0       0       0       0       0       0       0
       0       0       0       0       0       0       0       0       0       0
       0       0       0       0       0       0       0       0       0       0
       0       0       0       0       0       0       0       0       0       0
       0       0       0       0       0       0       0       0       0       0
       0       0       0       0       0       0       0       0       0       0
       0       0       0       0       0       0       0       0       0       0
       0       0       0       0       0       0       0       0       0       0
       0       0       0       0       0       0       0       0       0       0
       0       0       0       0       0       0       0       0       0       0
       0       0       0       0       0       0       0       0       0       0
       0       0       0       0       0       0       0       0       0       0
       0       0       0       0       0       0       0       0       0       0
       0       0       0       0       0       0       0       0       0       0
       0       0       0       0       0       0       0       0       0       0
       0       0       0       0       0       0       0       0       0       0
       0       0       0       0       0       0       0       0       0       0
       0       0       0       0       0       0       0       0       0       0
       0       0       0       0       0       0       0       0       0       0
       0       0       0       0       0       0       0       0       0       0
       0       0       0       0       0       0       0       0       0       0
       0       0       0       0       0       0       0       0       0       0
       0       0       0       0       0       0       0       0       0       0
       0       0       0       0       0       0       0       0       0       0
       0       0       0       0       0       0       0       0       0       0
       0       0       0       0       0       0       0       0       0       0
       0       0       0       0       0       0       0       0       0       0
       0       0       0       0       0       0       0       0       0       0
       0       0       0       0       0       0       0       0       0       0
       0       0       0       0       0       0       0       0       0       0
       0       0       0       0       0       0       0       0       0       0
       0       0       0       0       0       0       0       0       0       0
       0       0       0       0       0       0       0       0       0       0
       0       0       0       0       0       0       0       0       0       0
       0       0       0       0       0       0       0       0       0       0
       0       0       0       0       0       0       0       0       0       0
       0       0       0       0       0       0       0       0       0       0
       0       0       0       0       0       0       0       0       0       0
       0       0       0       0       0       0       0       0       0       0
       0       0       0       0       0       0       0       0       0       0
       0       0       0       0       0       0       0       0       0       0
       0       0       0       0       0       0       0       0       0       0
       0       0       0       0       0       0       0       0       0       0
       0       0       0       0       0       0       0       0       0       0
       0       0       0       0       0       0       0       0       0       0
       0       0       0       0       0       0       0       0       0       0
       0       0       0       0       0       0       0       0       0       0
       0       0       0       0       0       0       0       0       0       0
       0       0       0       0       0       0       0       0       0       0
       0       0       0       0       0       0       0       0       0       0
       0       0       0       0       0       0       0       0       0       0
       0       0       0       0       0       0       0       0       0       0
       0       0       0       0       0       0       0       0       0       0
       0       0       0       0       0       0       0       0       0       0
       0       0       0       0       0       0       0       0       0       0
       0       0       0       0       0       0       0       0       0       0
       0       0       0       0       0       0       0       0       0       0
       0       0       0       0       0       0       0       0       0       0
       0       0       0       0       0       0       0       0       0       0
       0       0       0       0       0       0       0       0       0       0
       0       0       0       0       0       0       0       0       0       0
       0       0       0       0       0       0       0       0       0       0
       0       0       0       0       0       0       0       0       0       0
       0       0       0       0       0       0       0       0       0       0
       0       0       0       0       0       0       0       0       0       0
       0       0       0       0       0       0       0       0       0       0
       0       0       0       0       0       0       0       0       0       0
       0       0       0       0       0       0       0       0       0       0
       0       0       0       0       0       0       0       0       0       0
       0       0       0       0       0       0       0       0       0       0
       0       0       0       0       0       0       0       0       0       0
       0       0       0       0       0       0       0       0       0       0
       0       0       0       0       0       0       0       0       0       0
       0       0       0       0       0       0       0       0       0       0
       0       0       0       0       0       0       0       0       0       0
       0       0       0       0       0       0       0       0       0       0
       0       0       0       0       0       0       0       0       0       0
       0       0       0       0       0       0       0       0       0       0
       0       0       0       0       0       0       0       0       0       0
       0       0       0       0       0       0       0       0       0       0
       0       0       0       0       0       0       0       0       0       0
       0       0       0       0       0       0       0       0       0       0
       0       0       0       0       0       0       0       0       0       0
       0       0       0       0       0       0       0       0       0       0
       0       0       0       0       0       0       0       0       0       0
       0       0       0       0       0       0       0       0       0       0
       0       0       0       0       0       0       0       0       0       0
       0       0       0       0       0       0       0       0       0       0
       0       0       0       0       0       0       0       0       0       0
       0       0       0       0       0       0       0       0       0       0
       0       0       0       0       0       0       0       0       0       0
       0       0       0       0       0       0       0       0       0       0
       0       0       0       0       0       0       0       0       0       0
       0       0       0       0       0       0       0       0       0       0
       0       0       0       0       0       0       0       0       0       0
       0       0       0       0       0       0       0       0       0       0
       0       0       0       0       0       0       0       0       0       0
       0       0       0       0       0       0       0       0       0       0
       0       0       0       0       0       0       0       0       0       0
       0       0       0       0       0       0       0       0       0       0
       0       0       0       0       0       0       0       0       0       0
       0       0       0       0       0       0       0       0       0       0
       0       0       0       0       0       0       0       0       0       0
       0       0       0       0       0       0       0       0       0       0
       0       0       0       0       0       0       0       0       0       0
       0       0       0       0       0       0       0       0       0       0
       0       0       0       0       0       0       0       0       0       0
       0       0       0       0       0       0       0       0       0       0
       0       0       0       0       0       0       0       0       0       0
       0       0       0       0       0       0       0       0       0       0
       0       0       0       0       0       0       0       0       0       0
       0       0       0       0       0       0       0       0       0       0
       0       0       0       0       0       0       0       0       0       0
       0       0       0       0       0       0       0       0       0       0
       0       0       0       0       0       0       0       0       0       0
       0       0       0       0       0       0       0       0       0       0
       0       0       0       0       0       0       0       0       0       0
       0       0       0       0       0       0       0       0       0       0
       0       0       0       0       0       0       0       0       0       0
       0       0       0       0       0       0       0       0       0       0
       0       0       0       0       0       0       0       0       0       0
       0       0       0       0       0       0       0       0       0       0
       0       0       0       0       0       0       0       0       0       0
       0       0       0       0       0       0       0       0       0       0
       0       0       0       0       0       0       0       0       0       0
       0       0       0       0       0       0       0       0       0       0
       0       0       0       0       0       0       0       0       0       0
       0       0       0       0       0       0       0       0       0       0
       0       0       0       0       0       0       0       0       0       0
       0       0       0       0       0       0       0       0       0       0
       0       0       0       0       0       0       0       0       0       0
       0       0       0       0       0       0       0       0       0       0
       0       0       0       0       0       0       0       0       0       0
       0       0       0       0       0       0       0       0       0       0
       0       0       0       0       0       0       0       0       0       0
       0       0       0       0       0       0       0       0       0       0
       0       0       0       0       0       0       0       0       0       0
       0       0       0       0       0       0       0       0       0       0
       0       0       0       0       0       0       0       0       0       0
       0       0       0       0       0       0       0       0       0       0
       0       0       0       0       0       0       0       0       0       0
       0       0       0       0       0       0       0       0       0       0
       0       0       0       0       0       0       0       0       0       0
       0       0       0       0       0       0       0       0       0       0
       0       0       0       0       0       0       0       0       0       0
       0       0       0       0       0       0       0       0       0       0
       0       0       0       0       0       0       0       0       0       0
       0       0       0       0       0       0       0       0       0       0
       0       0       0       0       0       0       0       0       0       0
       0       0       0       0       0       0       0       0       0       0
       0       0       0       0       0       0       0       0       0       0
       0       0       0       0       0       0       0       0       0       0
       0       0       0       0       0       0       0       0       0       0
       0       0       0       0       0       0       0       0       0       0
       0       0       0       0       0       0       0       0       0       0
       0       0       0       0       0       0       0       0       0       0
       0       0       0       0       0       0       0       0       0       0
       0       0       0       0       0       0       0       0       0       0
       0       0       0       0       0       0       0       0       0       0
       0       0       0       0       0       0       0       0       0       0
       0       0       0       0       0       0       0       0       0       0
       0       0       0       0       0       0       0       0       0       0
       0       0       0       0       0       0       0       0       0       0
       0       0       0       0       0       0       0       0       0       0
       0       0       0       0       0       0       0       0       0       0
       0       0       0       0       0       0       0       0       0       0
       0       0       0       0       0       0       0       0       0       0
       0       0       0       0       0       0       0       0       0       0
       0       0       0       0       0       0       0       0       0       0
       0       0       0       0       0       0       0       0       0       0
       0       0       0       0       0       0       0       0       0       0
       0       0       0       0       0       0       0       0       0       0
       0       0       0       0       0       0       0       0       0       0
       0       0       0       0       0       0       0       0       0       0
       0       0       0       0       0       0       0       0       0       0
       0       0       0       0       0       0       0       0       0       0
       0       0       0       0       0       0       0       0       0       0
       0       0       0       0       0       0       0       0       0       0
       0       0       0       0       0       0       0       0       0       0
       0       0       0       0       0       0       0       0       0       0
       0       0       0       0       0       0       0       0       0       0
       0       0       0       0       0       0       0       0       0       0
       0       0       0       0       0       0       0       0       0       0
       0       0       0       0       0       0       0       0       0       0
       0       0       0       0       0       0       0       0       0       0
       0       0       0       0       0       0       0       0       0       0
       0       0       0       0       0       0       0       0       0       0
       0       0       0       0       0       0       0       0       0       0
       0       0       0       0       0       0       0       0       0       0
       0       0       0       0       0       0       0       0       0
%FLAG SOLVENT_POINTERS                                                          
%FORMAT(3I8)                                                                    
      25   10500       4
%FLAG ATOMS_PER_MOLECULE                                                        
%FORMAT(10I8)                                                                   
      26     556     556       3       3       3       3       3       3       3
       3       3       3       3       3       3       3       3       3       3
       3       3       3       3       3       3       3       3       3       3
       3       3       3       3       3       3       3       3       3       3
       3       3       3       3       3       3       3       3       3       3
       3       3       3       3       3       3       3       3       3       3
       3       3       3       3       3       3       3       3       3       3
       3       3       3       3       3       3       3       3       3       3
       3       3       3       3       3       3       3       3       3       3
       3       3       3       3       3       3       3       3       3       3
       3       3       3       3       3       3       3       3       3       3
       3       3       3       3       3       3       3       3       3       3
       3       3       3       3       3       3       3       3       3       3
       3       3       3       3       3       3       3       3       3       3
       3       3       3       3       3       3       3       3       3       3
       3       3       3       3       3       3       3       3       3       3
       3       3       3       3       3       3       3       3       3       3
       3       3       3       3       3       3       3       3       3       3
       3       3       3       3       3       3       3       3       3       3
       3       3       3       3       3       3       3       3       3       3
       3       3       3       3       3       3       3       3       3       3
       3       3       3       3       3       3       3       3       3       3
       3       3       3       3       3       3       3       3       3       3
       3       3       3       3       3       3       3       3       3       3
       3       3       3       3       3       3       3       3       3       3
       3       3       3       3       3       3       3       3       3       3
       3       3       3       3       3       3       3       3       3       3
       3       3       3       3       3       3       3       3       3       3
       3       3       3       3       3       3       3       3       3       3
       3       3       3       3       3       3       3       3       3       3
       3       3       3       3       3       3       3       3       3       3
       3       3       3       3       3       3       3       3       3       3
       3       3       3       3       3       3       3       3       3       3
       3       3       3       3       3       3       3       3       3       3
       3       3       3       3       3       3       3       3       3       3
       3       3       3       3       3       3       3       3       3       3
       3       3       3       3       3       3       3       3       3       3
       3       3       3       3       3       3       3       3       3       3
       3       3       3       3       3       3       3       3       3       3
       3       3       3       3       3       3       3       3       3       3
       3       3       3       3       3       3       3       3       3       3
       3       3       3       3       3       3       3       3       3       3
       3       3       3       3       3       3       3       3       3       3
       3       3       3       3       3       3       3       3       3       3
       3       3       3       3       3       3       3       3       3       3
       3       3       3       3       3       3       3       3       3       3
       3       3       3       3       3       3       3       3       3       3
       3       3       3       3       3       3       3       3       3       3
       3       3       3       3       3       3       3       3       3       3
       3       3       3       3       3       3       3       3       3       3
       3       3       3       3       3       3       3       3       3       3
       3       3       3       3       3       3       3       3       3       3
       3       3       3       3       3       3       3       3       3       3
       3       3       3       3       3       3       3       3       3       3
       3       3       3       3       3       3       3       3       3       3
       3       3       3       3       3       3       3       3       3       3
       3       3       3       3       3       3       3       3       3       3
       3       3       3       3       3       3       3       3       3       3
       3       3       3       3       3       3       3       3       3       3
       3       3       3       3       3       3       3       3       3       3
       3       3       3       3       3       3       3       3       3       3
       3       3       3       3       3       3       3       3       3       3
       3       3       3       3       3       3       3       3       3       3
       3       3       3       3       3       3       3       3       3       3
       3       3       3       3       3       3       3       3       3       3
       3       3       3       3       3       3       3       3       3       3
       3       3       3       3       3       3       3       3       3       3
       3       3       3       3       3       3       3       3       3       3
       3       3       3       3       3       3       3       3       3       3
       3       3       3       3       3       3       3       3       3       3
       3       3       3       3       3       3       3       3       3       3
       3       3       3       3       3       3       3       3       3       3
       3       3       3       3       3       3       3       3       3       3
       3       3       3       3       3       3       3       3       3       3
       3       3       3       3       3       3       3       3       3       3
       3       3       3       3       3       3       3       3       3       3
       3       3       3       3       3       3       3       3       3       3
       3       3       3       3       3       3       3       3       3       3
       3       3       3       3       3       3       3       3       3       3
       3       3       3       3       3       3       3       3       3       3
       3       3       3       3       3       3       3       3       3       3
       3       3       3       3       3       3       3       3       3       3
       3       3       3       3       3       3       3       3       3       3
       3       3       3       3       3       3       3       3       3       3
       3       3       3       3       3       3       3       3       3       3
       3       3       3       3       3       3       3       3       3       3
       3       3       3       3       3       3       3       3       3       3
       3       3       3       3       3       3       3       3       3       3
       3       3       3       3       3       3       3       3       3       3
       3       3       3       3       3       3       3       3       3       3
       3       3       3       3       3       3       3       3       3       3
       3       3       3       3       3       3       3       3       3       3
       3       3       3       3       3       3       3       3       3       3
       3       3       3       3       3       3       3       3       3       3
       3       3       3       3       3       3       3       3       3       3
       3       3       3       3       3       3       3       3       3       3
       3       3       3       3       3       3       3       3       3       3
       3       3       3       3       3       3       3       3       3       3
       3       3       3       3       3       3       3       3       3       3
       3       3       3       3       3       3       3       3       3       3
       3       3       3       3       3       3       3       3       3       3
       3       3       3       3       3       3       3       3       3       3
       3       3       3       3       3       3       3       3       3       3
       3       3       3       3       3       3       3       3       3       3
       3       3       3       3       3       3       3       3       3       3
       3       3       3       3       3       3       3       3       3       3
       3       3       3       3       3       3       3       3       3       3
       3       3       3       3       3       3       3       3       3       3
       3       3       3       3       3       3       3       3       3       3
       3       3       3       3       3       3       3       3       3       3
       3       3       3       3       3       3       3       3       3       3
       3       3       3       3       3       3       3       3       3       3
       3       3       3       3       3       3       3       3       3       3
       3       3       3       3       3       3       3       3       3       3
       3       3       3       3       3       3       3       3       3       3
       3       3       3       3       3       3       3       3       3       3
       3       3       3       3       3       3       3       3       3       3
       3       3       3       3       3       3       3       3       3       3
       3       3       3       3       3       3       3       3       3       3
       3       3       3       3       3       3       3       3       3       3
       3       3       3       3       3       3       3       3       3       3
       3       3       3       3       3       3       3       3       3       3
       3       3       3       3       3       3       3       3       3       3
       3       3       3       3       3       3       3       3       3       3
       3       3       3       3       3       3       3       3       3       3
       3       3       3       3       3       3       3       3       3       3
       3       3       3       3       3       3       3       3       3       3
       3       3       3       3       3       3       3       3       3       3
       3       3       3       3       3       3       3       3       3       3
       3       3       3       3       3       3       3       3       3       3
       3       3       3       3       3       3       3       3       3       3
       3       3       3       3       3       3       3       3       3       3
       3       3       3       3       3       3       3       3       3       3
       3       3       3       3       3       3       3       3       3       3
       3       3       3       3       3       3       3       3       3       3
       3       3       3       3       3       3       3       3       3       3
       3       3       3       3       3       3       3       3       3       3
       3       3       3       3       3       3       3       3       3       3
       3       3       3       3       3       3       3       3       3       3
       3       3       3       3       3       3       3       3       3       3
       3       3       3       3       3       3       3       3       3       3
       3       3       3       3       3       3       3       3       3       3
       3       3       3       3       3       3       3       3       3       3
       3       3       3       3       3       3       3       3       3       3
       3       3       3       3       3       3       3       3       3       3
       3       3       3       3       3       3       3       3       3       3
       3       3       3       3       3       3       3       3       3       3
       3       3       3       3       3       3       3       3       3       3
       3       3       3       3       3       3       3       3       3       3
       3       3       3       3       3       3       3       3       3       3
       3       3       3       3       3       3       3       3       3       3
       3       3       3       3       3       3       3       3       3       3
       3       3       3       3       3       3       3       3       3       3
       3       3       3       3       3       3       3       3       3       3
       3       3       3       3       3       3       3       3       3       3
       3       3       3       3       3       3       3       3       3       3
       3       3       3       3       3       3       3       3       3       3
       3       3       3       3       3       3       3       3       3       3
       3       3       3       3       3       3       3       3       3       3
       3       3       3       3       3       3       3       3       3       3
       3       3       3       3       3       3       3       3       3       3
       3       3       3       3       3       3       3       3       3       3
       3       3       3       3       3       3       3       3       3       3
       3       3       3       3       3       3       3       3       3       3
       3       3       3       3       3       3       3       3       3       3
       3       3       3       3       3       3       3       3       3       3
       3       3       3       3       3       3       3       3       3       3
       3       3       3       3       3       3       3       3       3       3
       3       3       3       3       3       3       3       3       3       3
       3       3       3       3       3       3       3       3       3       3
       3       3       3       3       3       3       3       3       3       3
       3       3       3       3       3       3       3       3       3       3
       3       3       3       3       3       3       3       3       3       3
       3       3       3       3       3       3       3       3       3       3
       3       3       3       3       3       3       3       3       3       3
       3       3       3       3       3       3       3       3       3       3
       3       3       3       3       3       3       3       3       3       3
       3       3       3       3       3       3       3       3       3       3
       3       3       3       3       3       3       3       3       3       3
       3       3       3       3       3       3       3       3       3       3
       3       3       3       3       3       3       3       3       3       3
       3       3       3       3       3       3       3       3       3       3
       3       3       3       3       3       3       3       3       3       3
       3       3       3       3       3       3       3       3       3       3
       3       3       3       3       3       3       3       3       3       3
       3       3       3       3       3       3       3       3       3       3
       3       3       3       3       3       3       3       3       3       3
       3       3       3       3       3       3       3       3       3       3
       3       3       3       3       3       3       3       3       3       3
       3       3       3       3       3       3       3       3       3       3
       3       3       3       3       3       3       3       3       3       3
       3       3       3       3       3       3       3       3       3       3
       3       3       3       3       3       3       3       3       3       3
       3       3       3       3       3       3       3       3       3       3
       3       3       3       3       3       3       3       3       3       3
       3       3       3       3       3       3       3       3       3       3
       3       3       3       3       3       3       3       3       3       3
       3       3       3       3       3       3       3       3       3       3
       3       3       3       3       3       3       3       3       3       3
       3       3       3       3       3       3       3       3       3       3
       3       3       3       3       3       3       3       3       3       3
       3       3       3       3       3       3       3       3       3       3
       3       3       3       3       3       3       3       3       3       3
       3       3       3       3       3       3       3       3       3       3
       3       3       3       3       3       3       3       3       3       3
       3       3       3       3       3       3       3       3       3       3
       3       3       3       3       3       3       3       3       3       3
       3       3       3       3       3       3       3       3       3       3
       3       3       3       3       3       3       3       3       3       3
       3       3       3       3       3       3       3       3       3       3
       3       3       3       3       3       3       3       3       3       3
       3       3       3       3       3       3       3       3       3       3
       3       3       3       3       3       3       3       3       3       3
       3       3       3       3       3       3       3       3       3       3
       3       3       3       3       3       3       3       3       3       3
       3       3       3       3       3       3       3       3       3       3
       3       3       3       3       3       3       3       3       3       3
       3       3       3       3       3       3       3       3       3       3
       3       3       3       3       3       3       3       3       3       3
       3       3       3       3       3       3       3       3       3       3
       3       3       3       3       3       3       3       3       3       3
       3       3       3       3       3       3       3       3       3       3
       3       3       3       3       3       3       3       3       3       3
       3       3       3       3       3       3       3       3       3       3
       3       3       3       3       3       3       3       3       3       3
       3       3       3       3       3       3       3       3       3       3
       3       3       3       3       3       3       3       3       3       3
       3       3       3       3       3       3       3       3       3       3
       3       3       3       3       3       3       3       3       3       3
       3       3       3       3       3       3       3       3       3       3
       3       3       3       3       3       3       3       3       3       3
       3       3       3       3       3       3       3       3       3       3
       3       3       3       3       3       3       3       3       3       3
       3       3       3       3       3       3       3       3       3       3
       3       3       3       3       3       3       3       3       3       3
       3       3       3       3       3       3       3       3       3       3
       3       3       3       3       3       3       3       3       3       3
       3       3       3       3       3       3       3       3       3       3
       3       3       3       3       3       3       3       3       3       3
       3       3       3       3       3       3       3       3       3       3
       3       3       3       3       3       3       3       3       3       3
       3       3       3       3       3       3       3       3       3       3
       3       3       3       3       3       3       3       3       3       3
       3       3       3       3       3       3       3       3       3       3
       3       3       3       3       3       3       3       3       3       3
       3       3       3       3       3       3       3       3       3       3
       3       3       3       3       3       3       3       3       3       3
       3       3       3       3       3       3       3       3       3       3
       3       3       3       3       3       3       3       3       3       3
       3       3       3       3       3       3       3       3       3       3
       3       3       3       3       3       3       3       3       3       3
       3       3       3       3       3       3       3       3       3       3
       3       3       3       3       3       3       3       3       3       3
       3       3       3       3       3       3       3       3       3       3
       3       3       3       3       3       3       3       3       3       3
       3       3       3       3       3       3       3       3       3       3
       3       3       3       3       3       3       3       3       3       3
       3       3       3       3       3       3       3       3       3       3
       3       3       3       3       3       3       3       3       3       3
       3       3       3       3       3       3       3       3       3       3
       3       3       3       3       3       3       3       3       3       3
       3       3       3       3       3       3       3       3       3       3
       3       3       3       3       3       3       3       3       3       3
       3       3       3       3       3       3       3       3       3       3
       3       3       3       3       3       3       3       3       3       3
       3       3       3       3       3       3       3       3       3       3
       3       3       3       3       3       3       3       3       3       3
       3       3       3       3       3       3       3       3       3       3
       3       3       3       3       3       3       3       3       3       3
       3       3       3       3       3       3       3       3       3       3
       3       3       3       3       3       3       3       3       3       3
       3       3       3       3       3       3       3       3       3       3
       3       3       3       3       3       3       3       3       3       3
       3       3       3       3       3       3       3       3       3       3
       3       3       3       3       3       3       3       3       3       3
       3       3       3       3       3       3       3       3       3       3
       3       3       3       3       3       3       3       3       3       3
       3       3       3       3       3       3       3       3       3       3
       3       3       3       3       3       3       3       3       3       3
       3       3       3       3       3       3       3       3       3       3
       3       3       3       3       3       3       3       3       3       3
       3       3       3       3       3       3       3       3       3       3
       3       3       3       3       3       3       3       3       3       3
       3       3       3       3       3       3       3       3       3       3
       3       3       3       3       3       3       3       3       3       3
       3       3       3       3       3       3       3       3       3       3
       3       3       3       3       3       3       3       3       3       3
       3       3       3       3       3       3       3       3       3       3
       3       3       3       3       3       3       3       3       3       3
       3       3       3       3       3       3       3       3       3       3
       3       3       3       3       3       3       3       3       3       3
       3       3       3       3       3       3       3       3       3       3
       3       3       3       3       3       3       3       3       3       3
       3       3       3       3       3       3       3       3       3       3
       3       3       3       3       3       3       3       3       3       3
       3       3       3       3       3       3       3       3       3       3
       3       3       3       3       3       3       3       3       3       3
       3       3       3       3       3       3       3       3       3       3
       3       3       3       3       3       3       3       3       3       3
       3       3       3       3       3       3       3       3       3       3
       3       3       3       3       3       3       3       3       3       3
       3       3       3       3       3       3       3       3       3       3
       3       3       3       3       3       3       3       3       3       3
       3       3       3       3       3       3       3       3       3       3
       3       3       3       3       3       3       3       3       3       3
       3       3       3       3       3       3       3       3       3       3
       3       3       3       3       3       3       3       3       3       3
       3       3       3       3       3       3       3       3       3       3
       3       3       3       3       3       3       3       3       3       3
       3       3       3       3       3       3       3       3       3       3
       3       3       3       3       3       3       3       3       3       3
       3       3       3       3       3       3       3       3       3       3
       3       3       3       3       3       3       3       3       3       3
       3       3       3       3       3       3       3       3       3       3
       3       3       3       3       3       3       3       3       3       3
       3       3       3       3       3       3       3       3       3       3
       3       3       3       3       3       3       3       3       3       3
       3       3       3       3       3       3       3       3       3       3
       3       3       3       3       3       3       3       3       3       3
       3       3       3       3       3       3       3       3       3       3
       3       3       3       3       3       3       3       3       3       3
       3       3       3       3       3       3       3       3       3       3
       3       3       3       3       3       3       3       3       3       3
       3       3       3       3       3       3       3       3       3       3
       3       3       3       3       3       3       3       3       3       3
       3       3       3       3       3       3       3       3       3       3
       3       3       3       3       3       3       3       3       3       3
       3       3       3       3       3       3       3       3       3       3
       3       3       3       3       3       3       3       3       3       3
       3       3       3       3       3       3       3       3       3       3
       3       3       3       3       3       3       3       3       3       3
       3       3       3       3       3       3       3       3       3       3
       3       3       3       3       3       3       3       3       3       3
       3       3       3       3       3       3       3       3       3       3
       3       3       3       3       3       3       3       3       3       3
       3       3       3       3       3       3       3       3       3       3
       3       3       3       3       3       3       3       3       3       3
       3       3       3       3       3       3       3       3       3       3
       3       3       3       3       3       3       3       3       3       3
       3       3       3       3       3       3       3       3       3       3
       3       3       3       3       3       3       3       3       3       3
       3       3       3       3       3       3       3       3       3       3
       3       3       3       3       3       3       3       3       3       3
       3       3       3       3       3       3       3       3       3       3
       3       3       3       3       3       3       3       3       3       3
       3       3       3       3       3       3       3       3       3       3
       3       3       3       3       3       3       3       3       3       3
       3       3       3       3       3       3       3       3       3       3
       3       3       3       3       3       3       3       3       3       3
       3       3       3       3       3       3       3       3       3       3
       3       3       3       3       3       3       3       3       3       3
       3       3       3       3       3       3       3       3       3       3
       3       3       3       3       3       3       3       3       3       3
       3       3       3       3       3       3       3       3       3       3
       3       3       3       3       3       3       3       3       3       3
       3       3       3       3       3       3       3       3       3       3
       3       3       3       3       3       3       3       3       3       3
       3       3       3       3       3       3       3       3       3       3
       3       3       3       3       3       3       3       3       3       3
       3       3       3       3       3       3       3       3       3       3
       3       3       3       3       3       3       3       3       3       3
       3       3       3       3       3       3       3       3       3       3
       3       3       3       3       3       3       3       3       3       3
       3       3       3       3       3       3       3       3       3       3
       3       3       3       3       3       3       3       3       3       3
       3       3       3       3       3       3       3       3       3       3
       3       3       3       3       3       3       3       3       3       3
       3       3       3       3       3       3       3       3       3       3
       3       3       3       3       3       3       3       3       3       3
       3       3       3       3       3       3       3       3       3       3
       3       3       3       3       3       3       3       3       3       3
       3       3       3       3       3       3       3       3       3       3
       3       3       3       3       3       3       3       3       3       3
       3       3       3       3       3       3       3       3       3       3
       3       3       3       3       3       3       3       3       3       3
       3       3       3       3       3       3       3       3       3       3
       3       3       3       3       3       3       3       3       3       3
       3       3       3       3       3       3       3       3       3       3
       3       3       3       3       3       3       3       3       3       3
       3       3       3       3       3       3       3       3       3       3
       3       3       3       3       3       3       3       3       3       3
       3       3       3       3       3       3       3       3       3       3
       3       3       3       3       3       3       3       3       3       3
       3       3       3       3       3       3       3       3       3       3
       3       3       3       3       3       3       3       3       3       3
       3       3       3       3       3       3       3       3       3       3
       3       3       3       3       3       3       3       3       3       3
       3       3       3       3       3       3       3       3       3       3
       3       3       3       3       3       3       3       3       3       3
       3       3       3       3       3       3       3       3       3       3
       3       3       3       3       3       3       3       3       3       3
       3       3       3       3       3       3       3       3       3       3
       3       3       3       3       3       3       3       3       3       3
       3       3       3       3       3       3       3       3       3       3
       3       3       3       3       3       3       3       3       3       3
       3       3       3       3       3       3       3       3       3       3
       3       3       3       3       3       3       3       3       3       3
       3       3       3       3       3       3       3       3       3       3
       3       3       3       3       3       3       3       3       3       3
       3       3       3       3       3       3       3       3       3       3
       3       3       3       3       3       3       3       3       3       3
       3       3       3       3       3       3       3       3       3       3
       3       3       3       3       3       3       3       3       3       3
       3       3       3       3       3       3       3       3       3       3
       3       3       3       3       3       3       3       3       3       3
       3       3       3       3       3       3       3       3       3       3
       3       3       3       3       3       3       3       3       3       3
       3       3       3       3       3       3       3       3       3       3
       3       3       3       3       3       3       3       3       3       3
       3       3       3       3       3       3       3       3       3       3
       3       3       3       3       3       3       3       3       3       3
       3       3       3       3       3       3       3       3       3       3
       3       3       3       3       3       3       3       3       3       3
       3       3       3       3       3       3       3       3       3       3
       3       3       3       3       3       3       3       3       3       3
       3       3       3       3       3       3       3       3       3       3
       3       3       3       3       3       3       3       3       3       3
       3       3       3       3       3       3       3       3       3       3
       3       3       3       3       3       3       3       3       3       3
       3       3       3       3       3       3       3       3       3       3
       3       3       3       3       3       3       3       3       3       3
       3       3       3       3       3       3       3       3       3       3
       3       3       3       3       3       3       3       3       3       3
       3       3       3       3       3       3       3       3       3       3
       3       3       3       3       3       3       3       3       3       3
       3       3       3       3       3       3       3       3       3       3
       3       3       3       3       3       3       3       3       3       3
       3       3       3       3       3       3       3       3       3       3
       3       3       3       3       3       3       3       3       3       3
       3       3       3       3       3       3       3       3       3       3
       3       3       3       3       3       3       3       3       3       3
       3       3       3       3       3       3       3       3       3       3
       3       3       3       3       3       3       3       3       3       3
       3       3       3       3       3       3       3       3       3       3
       3       3       3       3       3       3       3       3       3       3
       3       3       3       3       3       3       3       3       3       3
       3       3       3       3       3       3       3       3       3       3
       3       3       3       3       3       3       3       3       3       3
       3       3       3       3       3       3       3       3       3       3
       3       3       3       3       3       3       3       3       3       3
       3       3       3       3       3       3       3       3       3       3
       3       3       3       3       3       3       3       3       3       3
       3       3       3       3       3       3       3       3       3       3
       3       3       3       3       3       3       3       3       3       3
       3       3       3       3       3       3       3       3       3       3
       3       3       3       3       3       3       3       3       3       3
       3       3       3       3       3       3       3       3       3       3
       3       3       3       3       3       3       3       3       3       3
       3       3       3       3       3       3       3       3       3       3
       3       3       3       3       3       3       3       3       3       3
       3       3       3       3       3       3       3       3       3       3
       3       3       3       3       3       3       3       3       3       3
       3       3       3       3       3       3       3       3       3       3
       3       3       3       3       3       3       3       3       3       3
       3       3       3       3       3       3       3       3       3       3
       3       3       3       3       3       3       3       3       3       3
       3       3       3       3       3       3       3       3       3       3
       3       3       3       3       3       3       3       3       3       3
       3       3       3       3       3       3       3       3       3       3
       3       3       3       3       3       3       3       3       3       3
       3       3       3       3       3       3       3       3       3       3
       3       3       3       3       3       3       3       3       3       3
       3       3       3       3       3       3       3       3       3       3
       3       3       3       3       3       3       3       3       3       3
       3       3       3       3       3       3       3       3       3       3
       3       3       3       3       3       3       3       3       3       3
       3       3       3       3       3       3       3       3       3       3
       3       3       3       3       3       3       3       3       3       3
       3       3       3       3       3       3       3       3       3       3
       3       3       3       3       3       3       3       3       3       3
       3       3       3       3       3       3       3       3       3       3
       3       3       3       3       3       3       3       3       3       3
       3       3       3       3       3       3       3       3       3       3
       3       3       3       3       3       3       3       3       3       3
       3       3       3       3       3       3       3       3       3       3
       3       3       3       3       3       3       3       3       3       3
       3       3       3       3       3       3       3       3       3       3
       3       3       3       3       3       3       3       3       3       3
       3       3       3       3       3       3       3       3       3       3
       3       3       3       3       3       3       3       3       3       3
       3       3       3       3       3       3       3       3       3       3
       3       3       3       3       3       3       3       3       3       3
       3       3       3       3       3       3       3       3       3       3
       3       3       3       3       3       3       3       3       3       3
       3       3       3       3       3       3       3       3       3       3
       3       3       3       3       3       3       3       3       3       3
       3       3       3       3       3       3       3       3       3       3
       3       3       3       3       3       3       3       3       3       3
       3       3       3       3       3       3       3       3       3       3
       3       3       3       3       3       3       3       3       3       3
       3       3       3       3       3       3       3       3       3       3
       3       3       3       3       3       3       3       3       3       3
       3       3       3       3       3       3       3       3       3       3
       3       3       3       3       3       3       3       3       3       3
       3       3       3       3       3       3       3       3       3       3
       3       3       3       3       3       3       3       3       3       3
       3       3       3       3       3       3       3       3       3       3
       3       3       3       3       3       3       3       3       3       3
       3       3       3       3       3       3       3       3       3       3
       3       3       3       3       3       3       3       3       3       3
       3       3       3       3       3       3       3       3       3       3
       3       3       3       3       3       3       3       3       3       3
       3       3       3       3       3       3       3       3       3       3
       3       3       3       3       3       3       3       3       3       3
       3       3       3       3       3       3       3       3       3       3
       3       3       3       3       3       3       3       3       3       3
       3       3       3       3       3       3       3       3       3       3
       3       3       3       3       3       3       3       3       3       3
       3       3       3       3       3       3       3       3       3       3
       3       3       3       3       3       3       3       3       3       3
       3       3       3       3       3       3       3       3       3       3
       3       3       3       3       3       3       3       3       3       3
       3       3       3       3       3       3       3       3       3       3
       3       3       3       3       3       3       3       3       3       3
       3       3       3       3       3       3       3       3       3       3
       3       3       3       3       3       3       3       3       3       3
       3       3       3       3       3       3       3       3       3       3
       3       3       3       3       3       3       3       3       3       3
       3       3       3       3       3       3       3       3       3       3
       3       3       3       3       3       3       3       3       3       3
       3       3       3       3       3       3       3       3       3       3
       3       3       3       3       3       3       3       3       3       3
       3       3       3       3       3       3       3       3       3       3
       3       3       3       3       3       3       3       3       3       3
       3       3       3       3       3       3       3       3       3       3
       3       3       3       3       3       3       3       3       3       3
       3       3       3       3       3       3       3       3       3       3
       3       3       3       3       3       3       3       3       3       3
       3       3       3       3       3       3       3       3       3       3
       3       3       3       3       3       3       3       3       3       3
       3       3       3       3       3       3       3       3       3       3
       3       3       3       3       3       3       3       3       3       3
       3       3       3       3       3       3       3       3       3       3
       3       3       3       3       3       3       3       3       3       3
       3       3       3       3       3       3       3       3       3       3
       3       3       3       3       3       3       3       3       3       3
       3       3       3       3       3       3       3       3       3       3
       3       3       3       3       3       3       3       3       3       3
       3       3       3       3       3       3       3       3       3       3
       3       3       3       3       3       3       3       3       3       3
       3       3       3       3       3       3       3       3       3       3
       3       3       3       3       3       3       3       3       3       3
       3       3       3       3       3       3       3       3       3       3
       3       3       3       3       3       3       3       3       3       3
       3       3       3       3       3       3       3       3       3       3
       3       3       3       3       3       3       3       3       3       3
       3       3       3       3       3       3       3       3       3       3
       3       3       3       3       3       3       3       3       3       3
       3       3       3       3       3       3       3       3       3       3
       3       3       3       3       3       3       3       3       3       3
       3       3       3       3       3       3       3       3       3       3
       3       3       3       3       3       3       3       3       3       3
       3       3       3       3       3       3       3       3       3       3
       3       3       3       3       3       3       3       3       3       3
       3       3       3       3       3       3       3       3       3       3
       3       3       3       3       3       3       3       3       3       3
       3       3       3       3       3       3       3       3       3       3
       3       3       3       3       3       3       3       3       3       3
       3       3       3       3       3       3       3       3       3       3
       3       3       3       3       3       3       3       3       3       3
       3       3       3       3       3       3       3       3       3       3
       3       3       3       3       3       3       3       3       3       3
       3       3       3       3       3       3       3       3       3       3
       3       3       3       3       3       3       3       3       3       3
       3       3       3       3       3       3       3       3       3       3
       3       3       3       3       3       3       3       3       3       3
       3       3       3       3       3       3       3       3       3       3
       3       3       3       3       3       3       3       3       3       3
       3       3       3       3       3       3       3       3       3       3
       3       3       3       3       3       3       3       3       3       3
       3       3       3       3       3       3       3       3       3       3
       3       3       3       3       3       3       3       3       3       3
       3       3       3       3       3       3       3       3       3       3
       3       3       3       3       3       3       3       3       3       3
       3       3       3       3       3       3       3       3       3       3
       3       3       3       3       3       3       3       3       3       3
       3       3       3       3       3       3       3       3       3       3
       3       3       3       3       3       3       3       3       3       3
       3       3       3       3       3       3       3       3       3       3
       3       3       3       3       3       3       3       3       3       3
       3       3       3       3       3       3       3       3       3       3
       3       3       3       3       3       3       3       3       3       3
       3       3       3       3       3       3       3       3       3       3
       3       3       3       3       3       3       3       3       3       3
       3       3       3       3       3       3       3       3       3       3
       3       3       3       3       3       3       3       3       3       3
       3       3       3       3       3       3       3       3       3       3
       3       3       3       3       3       3       3       3       3       3
       3       3       3       3       3       3       3       3       3       3
       3       3       3       3       3       3       3       3       3       3
       3       3       3       3       3       3       3       3       3       3
       3       3       3       3       3       3       3       3       3       3
       3       3       3       3       3       3       3       3       3       3
       3       3       3       3       3       3       3       3       3       3
       3       3       3       3       3       3       3       3       3       3
       3       3       3       3       3       3       3       3       3       3
       3       3       3       3       3       3       3       3       3       3
       3       3       3       3       3       3       3       3       3       3
       3       3       3       3       3       3       3       3       3       3
       3       3       3       3       3       3       3       3       3       3
       3       3       3       3       3       3       3       3       3       3
       3       3       3       3       3       3       3       3       3       3
       3       3       3       3       3       3       3       3       3       3
       3       3       3       3       3       3       3       3       3       3
       3       3       3       3       3       3       3       3       3       3
       3       3       3       3       3       3       3       3       3       3
       3       3       3       3       3       3       3       3       3       3
       3       3       3       3       3       3       3       3       3       3
       3       3       3       3       3       3       3       3       3       3
       3       3       3       3       3       3       3       3       3       3
       3       3       3       3       3       3       3       3       3       3
       3       3       3       3       3       3       3       3       3       3
       3       3       3       3       3       3       3       3       3       3
       3       3       3       3       3       3       3       3       3       3
       3       3       3       3       3       3       3       3       3       3
       3       3       3       3       3       3       3       3       3       3
       3       3       3       3       3       3       3       3       3       3
       3       3       3       3       3       3       3       3       3       3
       3       3       3       3       3       3       3       3       3       3
       3       3       3       3       3       3       3       3       3       3
       3       3       3       3       3       3       3       3       3       3
       3       3       3       3       3       3       3       3       3       3
       3       3       3       3       3       3       3       3       3       3
       3       3       3       3       3       3       3       3       3       3
       3       3       3       3       3       3       3       3       3       3
       3       3       3       3       3       3       3       3       3       3
       3       3       3       3       3       3       3       3       3       3
       3       3       3       3       3       3       3       3       3       3
       3       3       3       3       3       3       3       3       3       3
       3       3       3       3       3       3       3       3       3       3
       3       3       3       3       3       3       3       3       3       3
       3       3       3       3       3       3       3       3       3       3
       3       3       3       3       3       3       3       3       3       3
       3       3       3       3       3       3       3       3       3       3
       3       3       3       3       3       3       3       3       3       3
       3       3       3       3       3       3       3       3       3       3
       3       3       3       3       3       3       3       3       3       3
       3       3       3       3       3       3       3       3       3       3
       3       3       3       3       3       3       3       3       3       3
       3       3       3       3       3       3       3       3       3       3
       3       3       3       3       3       3       3       3       3       3
       3       3       3       3       3       3       3       3       3       3
       3       3       3       3       3       3       3       3       3       3
       3       3       3       3       3       3       3       3       3       3
       3       3       3       3       3       3       3       3       3       3
       3       3       3       3       3       3       3       3       3       3
       3       3       3       3       3       3       3       3       3       3
       3       3       3       3       3       3       3       3       3       3
       3       3       3       3       3       3       3       3       3       3
       3       3       3       3       3       3       3       3       3       3
       3       3       3       3       3       3       3       3       3       3
       3       3       3       3       3       3       3       3       3       3
       3       3       3       3       3       3       3       3       3       3
       3       3       3       3       3       3       3       3       3       3
       3       3       3       3       3       3       3       3       3       3
       3       3       3       3       3       3       3       3       3       3
       3       3       3       3       3       3       3       3       3       3
       3       3       3       3       3       3       3       3       3       3
       3       3       3       3       3       3       3       3       3       3
       3       3       3       3       3       3       3       3       3       3
       3       3       3       3       3       3       3       3       3       3
       3       3       3       3       3       3       3       3       3       3
       3       3       3       3       3       3       3       3       3       3
       3       3       3       3       3       3       3       3       3       3
       3       3       3       3       3       3       3       3       3       3
       3       3       3       3       3       3       3       3       3       3
       3       3       3       3       3       3       3       3       3       3
       3       3       3       3       3       3       3       3       3       3
       3       3       3       3       3       3       3       3       3       3
       3       3       3       3       3       3       3       3       3       3
       3       3       3       3       3       3       3       3       3       3
       3       3       3       3       3       3       3       3       3       3
       3       3       3       3       3       3       3       3       3       3
       3       3       3       3       3       3       3       3       3       3
       3       3       3       3       3       3       3       3       3       3
       3       3       3       3       3       3       3       3       3       3
       3       3       3       3       3       3       3       3       3       3
       3       3       3       3       3       3       3       3       3       3
       3       3       3       3       3       3       3       3       3       3
       3       3       3       3       3       3       3       3       3       3
       3       3       3       3       3       3       3       3       3       3
       3       3       3       3       3       3       3       3       3       3
       3       3       3       3       3       3       3       3       3       3
       3       3       3       3       3       3       3       3       3       3
       3       3       3       3       3       3       3       3       3       3
       3       3       3       3       3       3       3       3       3       3
       3       3       3       3       3       3       3       3       3       3
       3       3       3       3       3       3       3       3       3       3
       3       3       3       3       3       3       3       3       3       3
       3       3       3       3       3       3       3       3       3       3
       3       3       3       3       3       3       3       3       3       3
       3       3       3       3       3       3       3       3       3       3
       3       3       3       3       3       3       3       3       3       3
       3       3       3       3       3       3       3       3       3       3
       3       3       3       3       3       3       3       3       3       3
       3       3       3       3       3       3       3       3       3       3
       3       3       3       3       3       3       3       3       3       3
       3       3       3       3       3       3       3       3       3       3
       3       3       3       3       3       3       3       3       3       3
       3       3       3       3       3       3       3       3       3       3
       3       3       3       3       3       3       3       3       3       3
       3       3       3       3       3       3       3       3       3       3
       3       3       3       3       3       3       3       3       3       3
       3       3       3       3       3       3       3       3       3       3
       3       3       3       3       3       3       3       3       3       3
       3       3       3       3       3       3       3       3       3       3
       3       3       3       3       3       3       3       3       3       3
       3       3       3       3       3       3       3       3       3       3
       3       3       3       3       3       3       3       3       3       3
       3       3       3       3       3       3       3       3       3       3
       3       3       3       3       3       3       3       3       3       3
       3       3       3       3       3       3       3       3       3       3
       3       3       3       3       3       3       3       3       3       3
       3       3       3       3       3       3       3       3       3       3
       3       3       3       3       3       3       3       3       3       3
       3       3       3       3       3       3       3       3       3       3
       3       3       3       3       3       3       3       3       3       3
       3       3       3       3       3       3       3       3       3       3
       3       3       3       3       3       3       3       3       3       3
       3       3       3       3       3       3       3       3       3       3
       3       3       3       3       3       3       3       3       3       3
       3       3       3       3       3       3       3       3       3       3
       3       3       3       3       3       3       3       3       3       3
       3       3       3       3       3       3       3       3       3       3
       3       3       3       3       3       3       3       3       3       3
       3       3       3       3       3       3       3       3       3       3
       3       3       3       3       3       3       3       3       3       3
       3       3       3       3       3       3       3       3       3       3
       3       3       3       3       3       3       3       3       3       3
       3       3       3       3       3       3       3       3       3       3
       3       3       3       3       3       3       3       3       3       3
       3       3       3       3       3       3       3       3       3       3
       3       3       3       3       3       3       3       3       3       3
       3       3       3       3       3       3       3       3       3       3
       3       3       3       3       3       3       3       3       3       3
       3       3       3       3       3       3       3       3       3       3
       3       3       3       3       3       3       3       3       3       3
       3       3       3       3       3       3       3       3       3       3
       3       3       3       3       3       3       3       3       3       3
       3       3       3       3       3       3       3       3       3       3
       3       3       3       3       3       3       3       3       3       3
       3       3       3       3       3       3       3       3       3       3
       3       3       3       3       3       3       3       3       3       3
       3       3       3       3       3       3       3       3       3       3
       3       3       3       3       3       3       3       3       3       3
       3       3       3       3       3       3       3       3       3       3
       3       3       3       3       3       3       3       3       3       3
       3       3       3       3       3       3       3       3       3       3
       3       3       3       3       3       3       3       3       3       3
       3       3       3       3       3       3       3       3       3       3
       3       3       3       3       3       3       3       3       3       3
       3       3       3       3       3       3       3       3       3       3
       3       3       3       3       3       3       3       3       3       3
       3       3       3       3       3       3       3       3       3       3
       3       3       3       3       3       3       3       3       3       3
       3       3       3       3       3       3       3       3       3       3
       3       3       3       3       3       3       3       3       3       3
       3       3       3       3       3       3       3       3       3       3
       3       3       3       3       3       3       3       3       3       3
       3       3       3       3       3       3       3       3       3       3
       3       3       3       3       3       3       3       3       3       3
       3       3       3       3       3       3       3       3       3       3
       3       3       3       3       3       3       3       3       3       3
       3       3       3       3       3       3       3       3       3       3
       3       3       3       3       3       3       3       3       3       3
       3       3       3       3       3       3       3       3       3       3
       3       3       3       3       3       3       3       3       3       3
       3       3       3       3       3       3       3       3       3       3
       3       3       3       3       3       3       3       3       3       3
       3       3       3       3       3       3       3       3       3       3
       3       3       3       3       3       3       3       3       3       3
       3       3       3       3       3       3       3       3       3       3
       3       3       3       3       3       3       3       3       3       3
       3       3       3       3       3       3       3       3       3       3
       3       3       3       3       3       3       3       3       3       3
       3       3       3       3       3       3       3       3       3       3
       3       3       3       3       3       3       3       3       3       3
       3       3       3       3       3       3       3       3       3       3
       3       3       3       3       3       3       3       3       3       3
       3       3       3       3       3       3       3       3       3       3
       3       3       3       3       3       3       3       3       3       3
       3       3       3       3       3       3       3       3       3       3
       3       3       3       3       3       3       3       3       3       3
       3       3       3       3       3       3       3       3       3       3
       3       3       3       3       3       3       3       3       3       3
       3       3       3       3       3       3       3       3       3       3
       3       3       3       3       3       3       3       3       3       3
       3       3       3       3       3       3       3       3       3       3
       3       3       3       3       3       3       3       3       3       3
       3       3       3       3       3       3       3       3       3       3
       3       3       3       3       3       3       3       3       3       3
       3       3       3       3       3       3       3       3       3       3
       3       3       3       3       3       3       3       3       3       3
       3       3       3       3       3       3       3       3       3       3
       3       3       3       3       3       3       3       3       3       3
       3       3       3       3       3       3       3       3       3       3
       3       3       3       3       3       3       3       3       3       3
       3       3       3       3       3       3       3       3       3       3
       3       3       3       3       3       3       3       3       3       3
       3       3       3       3       3       3       3       3       3       3
       3       3       3       3       3       3       3       3       3       3
       3       3       3       3       3       3       3       3       3       3
       3       3       3       3       3       3       3       3       3       3
       3       3       3       3       3       3       3       3       3       3
       3       3       3       3       3       3       3       3       3       3
       3       3       3       3       3       3       3       3       3       3
       3       3       3       3       3       3       3       3       3       3
       3       3       3       3       3       3       3       3       3       3
       3       3       3       3       3       3       3       3       3       3
       3       3       3       3       3       3       3       3       3       3
       3       3       3       3       3       3       3       3       3       3
       3       3       3       3       3       3       3       3       3       3
       3       3       3       3       3       3       3       3       3       3
       3       3       3       3       3       3       3       3       3       3
       3       3       3       3       3       3       3       3       3       3
       3       3       3       3       3       3       3       3       3       3
       3       3       3       3       3       3       3       3       3       3
       3       3       3       3       3       3       3       3       3       3
       3       3       3       3       3       3       3       3       3       3
       3       3       3       3       3       3       3       3       3       3
       3       3       3       3       3       3       3       3       3       3
       3       3       3       3       3       3       3       3       3       3
       3       3       3       3       3       3       3       3       3       3
       3       3       3       3       3       3       3       3       3       3
       3       3       3       3       3       3       3       3       3       3
       3       3       3       3       3       3       3       3       3       3
       3       3       3       3       3       3       3       3       3       3
       3       3       3       3       3       3       3       3       3       3
       3       3       3       3       3       3       3       3       3       3
       3       3       3       3       3       3       3       3       3       3
       3       3       3       3       3       3       3       3       3       3
       3       3       3       3       3       3       3       3       3       3
       3       3       3       3       3       3       3       3       3       3
       3       3       3       3       3       3       3       3       3       3
       3       3       3       3       3       3       3       3       3       3
       3       3       3       3       3       3       3       3       3       3
       3       3       3       3       3       3       3       3       3       3
       3       3       3       3       3       3       3       3       3       3
       3       3       3       3       3       3       3       3       3       3
       3       3       3       3       3       3       3       3       3       3
       3       3       3       3       3       3       3       3       3       3
       3       3       3       3       3       3       3       3       3       3
       3       3       3       3       3       3       3       3       3       3
       3       3       3       3       3       3       3       3       3       3
       3       3       3       3       3       3       3       3       3       3
       3       3       3       3       3       3       3       3       3       3
       3       3       3       3       3       3       3       3       3       3
       3       3       3       3       3       3       3       3       3       3
       3       3       3       3       3       3       3       3       3       3
       3       3       3       3       3       3       3       3       3       3
       3       3       3       3       3       3       3       3       3       3
       3       3       3       3       3       3       3       3       3       3
       3       3       3       3       3       3       3       3       3       3
       3       3       3       3       3       3       3       3       3       3
       3       3       3       3       3       3       3       3       3       3
       3       3       3       3       3       3       3       3       3       3
       3       3       3       3       3       3       3       3       3       3
       3       3       3       3       3       3       3       3       3       3
       3       3       3       3       3       3       3       3       3       3
       3       3       3       3       3       3       3       3       3       3
       3       3       3       3       3       3       3       3       3       3
       3       3       3       3       3       3       3       3       3       3
       3       3       3       3       3       3       3       3       3       3
       3       3       3       3       3       3       3       3       3       3
       3       3       3       3       3       3       3       3       3       3
       3       3       3       3       3       3       3       3       3       3
       3       3       3       3       3       3       3       3       3       3
       3       3       3       3       3       3       3       3       3       3
       3       3       3       3       3       3       3       3       3       3
       3       3       3       3       3       3       3       3       3       3
       3       3       3       3       3       3       3       3       3       3
       3       3       3       3       3       3       3       3       3       3
       3       3       3       3       3       3       3       3       3       3
       3       3       3       3       3       3       3       3       3       3
       3       3       3       3       3       3       3       3       3       3
       3       3       3       3       3       3       3       3       3       3
       3       3       3       3       3       3       3       3       3       3
       3       3       3       3       3       3       3       3       3       3
       3       3       3       3       3       3       3       3       3       3
       3       3       3       3       3       3       3       3       3       3
       3       3       3       3       3       3       3       3       3       3
       3       3       3       3       3       3       3       3       3       3
       3       3       3       3       3       3       3       3       3       3
       3       3       3       3       3       3       3       3       3       3
       3       3       3       3       3       3       3       3       3       3
       3       3       3       3       3       3       3       3       3       3
       3       3       3       3       3       3       3       3       3       3
       3       3       3       3       3       3       3       3       3       3
       3       3       3       3       3       3       3       3       3       3
       3       3       3       3       3       3       3       3       3       3
       3       3       3       3       3       3       3       3       3       3
       3       3       3       3       3       3       3       3       3       3
       3       3       3       3       3       3       3       3       3       3
       3       3       3       3       3       3       3       3       3       3
       3       3       3       3       3       3       3       3       3       3
       3       3       3       3       3       3       3       3       3       3
       3       3       3       3       3       3       3       3       3       3
       3       3       3       3       3       3       3       3       3       3
       3       3       3       3       3       3       3       3       3       3
       3       3       3       3       3       3       3       3       3       3
       3       3       3       3       3       3       3       3       3       3
       3       3       3       3       3       3       3       3       3       3
       3       3       3       3       3       3       3       3       3       3
       3       3       3       3       3       3       3       3       3       3
       3       3       3       3       3       3       3       3       3       3
       3       3       3       3       3       3       3       3       3       3
       3       3       3       3       3       3       3       3       3       3
       3       3       3       3       3       3       3       3       3       3
       3       3       3       3       3       3       3       3       3       3
       3       3       3       3       3       3       3       3       3       3
       3       3       3       3       3       3       3       3       3       3
       3       3       3       3       3       3       3       3       3       3
       3       3       3       3       3       3       3       3       3       3
       3       3       3       3       3       3       3       3       3       3
       3       3       3       3       3       3       3       3       3       3
       3       3       3       3       3       3       3       3       3       3
       3       3       3       3       3       3       3       3       3       3
       3       3       3       3       3       3       3       3       3       3
       3       3       3       3       3       3       3       3       3       3
       3       3       3       3       3       3       3       3       3       3
       3       3       3       3       3       3       3       3       3       3
       3       3       3       3       3       3       3       3       3       3
       3       3       3       3       3       3       3       3       3       3
       3       3       3       3       3       3       3       3       3       3
       3       3       3       3       3       3       3       3       3       3
       3       3       3       3       3       3       3       3       3       3
       3       3       3       3       3       3       3       3       3       3
       3       3       3       3       3       3       3       3       3       3
       3       3       3       3       3       3       3       3       3       3
       3       3       3       3       3       3       3       3       3       3
       3       3       3       3       3       3       3       3       3       3
       3       3       3       3       3       3       3       3       3       3
       3       3       3       3       3       3       3       3       3       3
       3       3       3       3       3       3       3       3       3       3
       3       3       3       3       3       3       3       3       3       3
       3       3       3       3       3       3       3       3       3       3
       3       3       3       3       3       3       3       3       3       3
       3       3       3       3       3       3       3       3       3       3
       3       3       3       3       3       3       3       3       3       3
       3       3       3       3       3       3       3       3       3       3
       3       3       3       3       3       3       3       3       3       3
       3       3       3       3       3       3       3       3       3       3
       3       3       3       3       3       3       3       3       3       3
       3       3       3       3       3       3       3       3       3       3
       3       3       3       3       3       3       3       3       3       3
       3       3       3       3       3       3       3       3       3       3
       3       3       3       3       3       3       3       3       3       3
       3       3       3       3       3       3       3       3       3       3
       3       3       3       3       3       3       3       3       3       3
       3       3       3       3       3       3       3       3       3       3
       3       3       3       3       3       3       3       3       3       3
       3       3       3       3       3       3       3       3       3       3
       3       3       3       3       3       3       3       3       3       3
       3       3       3       3       3       3       3       3       3       3
       3       3       3       3       3       3       3       3       3       3
       3       3       3       3       3       3       3       3       3       3
       3       3       3       3       3       3       3       3       3       3
       3       3       3       3       3       3       3       3       3       3
       3       3       3       3       3       3       3       3       3       3
       3       3       3       3       3       3       3       3       3       3
       3       3       3       3       3       3       3       3       3       3
       3       3       3       3       3       3       3       3       3       3
       3       3       3       3       3       3       3       3       3       3
       3       3       3       3       3       3       3       3       3       3
       3       3       3       3       3       3       3       3       3       3
       3       3       3       3       3       3       3       3       3       3
       3       3       3       3       3       3       3       3       3       3
       3       3       3       3       3       3       3       3       3       3
       3       3       3       3       3       3       3       3       3       3
       3       3       3       3       3       3       3       3       3       3
       3       3       3       3       3       3       3       3       3       3
       3       3       3       3       3       3       3       3       3       3
       3       3       3       3       3       3       3       3       3       3
       3       3       3       3       3       3       3       3       3       3
       3       3       3       3       3       3       3       3       3       3
       3       3       3       3       3       3       3       3       3       3
       3       3       3       3       3       3       3       3       3       3
       3       3       3       3       3       3       3       3       3       3
       3       3       3       3       3       3       3       3       3       3
       3       3       3       3       3       3       3       3       3       3
       3       3       3       3       3       3       3       3       3       3
       3       3       3       3       3       3       3       3       3       3
       3       3       3       3       3       3       3       3       3       3
       3       3       3       3       3       3       3       3       3       3
       3       3       3       3       3       3       3       3       3       3
       3       3       3       3       3       3       3       3       3       3
       3       3       3       3       3       3       3       3       3       3
       3       3       3       3       3       3       3       3       3       3
       3       3       3       3       3       3       3       3       3       3
       3       3       3       3       3       3       3       3       3       3
       3       3       3       3       3       3       3       3       3       3
       3       3       3       3       3       3       3       3       3       3
       3       3       3       3       3       3       3       3       3       3
       3       3       3       3       3       3       3       3       3       3
       3       3       3       3       3       3       3       3       3       3
       3       3       3       3       3       3       3       3       3       3
       3       3       3       3       3       3       3       3       3       3
       3       3       3       3       3       3       3       3       3       3
       3       3       3       3       3       3       3       3       3       3
       3       3       3       3       3       3       3       3       3       3
       3       3       3       3       3       3       3       3       3       3
       3       3       3       3       3       3       3       3       3       3
       3       3       3       3       3       3       3       3       3       3
       3       3       3       3       3       3       3       3       3       3
       3       3       3       3       3       3       3       3       3       3
       3       3       3       3       3       3       3       3       3       3
       3       3       3       3       3       3       3       3       3       3
       3       3       3       3       3       3       3       3       3       3
       3       3       3       3       3       3       3       3       3       3
       3       3       3       3       3       3       3       3       3       3
       3       3       3       3       3       3       3       3       3       3
       3       3       3       3       3       3       3       3       3       3
       3       3       3       3       3       3       3       3       3       3
       3       3       3       3       3       3       3       3       3       3
       3       3       3       3       3       3       3       3       3       3
       3       3       3       3       3       3       3       3       3       3
       3       3       3       3       3       3       3       3       3       3
       3       3       3       3       3       3       3       3       3       3
       3       3       3       3       3       3       3       3       3       3
       3       3       3       3       3       3       3       3       3       3
       3       3       3       3       3       3       3       3       3       3
       3       3       3       3       3       3       3       3       3       3
       3       3       3       3       3       3       3       3       3       3
       3       3       3       3       3       3       3       3       3       3
       3       3       3       3       3       3       3       3       3       3
       3       3       3       3       3       3       3       3       3       3
       3       3       3       3       3       3       3       3       3       3
       3       3       3       3       3       3       3       3       3       3
       3       3       3       3       3       3       3       3       3       3
       3       3       3       3       3       3       3       3       3       3
       3       3       3       3       3       3       3       3       3       3
       3       3       3       3       3       3       3       3       3       3
       3       3       3       3       3       3       3       3       3       3
       3       3       3       3       3       3       3       3       3       3
       3       3       3       3       3       3       3       3       3       3
       3       3       3       3       3       3       3       3       3       3
       3       3       3       3       3       3       3       3       3       3
       3       3       3       3       3       3       3       3       3       3
       3       3       3       3       3       3       3       3       3       3
       3       3       3       3       3       3       3       3       3       3
       3       3       3       3       3       3       3       3       3       3
       3       3       3       3       3       3       3       3       3       3
       3       3       3       3       3       3       3       3       3       3
       3       3       3       3       3       3       3       3       3       3
       3       3       3       3       3       3       3       3       3       3
       3       3       3       3       3       3       3       3       3       3
       3       3       3       3       3       3       3       3       3       3
       3       3       3       3       3       3       3       3       3       3
       3       3       3       3       3       3       3       3       3       3
       3       3       3       3       3       3       3       3       3       3
%FLAG BOX_DIMENSIONS                                                            
%FORMAT(5E16.8)                                                                 
  9.00000000E+01  8.31046310E+01  7.33960870E+01  6.68216640E+01
%FLAG RADIUS_SET                                                                
%FORMAT(1a80)                                                                   
modified Bondi radii (mbondi)                                                   
%FLAG RADII                                                                     
%FORMAT(5E16.8)                                                                 
  1.70000000E+00  1.70000000E+00  1.70000000E+00  1.70000000E+00  1.70000000E+00
  1.70000000E+00  1.70000000E+00  1.70000000E+00  1.70000000E+00  1.70000000E+00
  1.70000000E+00  1.70000000E+00  1.70000000E+00  1.70000000E+00  1.70000000E+00
  1.70000000E+00  1.30000000E+00  1.30000000E+00  1.30000000E+00  1.30000000E+00
  1.30000000E+00  1.30000000E+00  1.30000000E+00  1.30000000E+00  1.30000000E+00
  1.30000000E+00  1.70000000E+00  1.30000000E+00  1.30000000E+00  1.50000000E+00
  1.70000000E+00  1.70000000E+00  1.30000000E+00  1.70000000E+00  1.70000000E+00
  1.70000000E+00  1.70000000E+00  1.70000000E+00  1.70000000E+00  1.30000000E+00
  1.55000000E+00  1.70000000E+00  1.70000000E+00  1.70000000E+00  1.70000000E+00
  1.50000000E+00  1.70000000E+00  1.70000000E+00  1.50000000E+00  1.70000000E+00
  1.70000000E+00  1.50000000E+00  1.50000000E+00  1.70000000E+00  1.50000000E+00
  1.70000000E+00  1.50000000E+00  1.70000000E+00  1.50000000E+00  1.30000000E+00
  1.30000000E+00  1.30000000E+00  1.30000000E+00  1.30000000E+00  1.30000000E+00
  1.30000000E+00  1.30000000E+00  1.30000000E+00  1.30000000E+00  1.30000000E+00
  1.30000000E+00  1.30000000E+00  1.30000000E+00  1.30000000E+00  1.30000000E+00
  8.00000000E-01  1.30000000E+00  1.30000000E+00  1.30000000E+00  8.00000000E-01
  1.30000000E+00  8.00000000E-01  1.30000000E+00  8.00000000E-01  1.50000000E+00
  1.70000000E+00  1.70000000E+00  1.30000000E+00  1.70000000E+00  1.70000000E+00
  1.70000000E+00  1.70000000E+00  1.70000000E+00  1.70000000E+00  1.30000000E+00
  1.55000000E+00  1.70000000E+00  1.70000000E+00  1.70000000E+00  1.70000000E+00
  1.50000000E+00  1.70000000E+00  1.70000000E+00  1.50000000E+00  1.70000000E+00
  1.70000000E+00  1.50000000E+00  1.50000000E+00  1.70000000E+00  1.50000000E+00
  1.70000000E+00  1.50000000E+00  1.70000000E+00  1.50000000E+00  1.30000000E+00
  1.30000000E+00  1.30000000E+00  1.30000000E+00  1.30000000E+00  1.30000000E+00
  1.30000000E+00  1.30000000E+00  1.30000000E+00  1.30000000E+00  1.30000000E+00
  1.30000000E+00  1.30000000E+00  1.30000000E+00  1.30000000E+00  1.30000000E+00
  8.00000000E-01  1.30000000E+00  1.30000000E+00  1.30000000E+00  8.00000000E-01
  1.30000000E+00  8.00000000E-01  1.30000000E+00  8.00000000E-01  1.50000000E+00
  1.70000000E+00  1.70000000E+00  1.30000000E+00  1.70000000E+00  1.70000000E+00
  1.70000000E+00  1.70000000E+00  1.70000000E+00  1.70000000E+00  1.30000000E+00
  1.55000000E+00  1.70000000E+00  1.70000000E+00  1.70000000E+00  1.70000000E+00
  1.50000000E+00  1.70000000E+00  1.70000000E+00  1.50000000E+00  1.70000000E+00
  1.70000000E+00  1.50000000E+00  1.50000000E+00  1.70000000E+00  1.50000000E+00
  1.70000000E+00  1.50000000E+00  1.70000000E+00  1.50000000E+00  1.30000000E+00
  1.30000000E+00  1.30000000E+00  1.30000000E+00  1.30000000E+00  1.30000000E+00
  1.30000000E+00  1.30000000E+00  1.30000000E+00  1.30000000E+00  1.30000000E+00
  1.30000000E+00  1.30000000E+00  1.30000000E+00  1.30000000E+00  1.30000000E+00
  8.00000000E-01  1.30000000E+00  1.30000000E+00  1.30000000E+00  8.00000000E-01
  1.30000000E+00  8.00000000E-01  1.30000000E+00  8.00000000E-01  1.50000000E+00
  1.70000000E+00  1.70000000E+00  1.30000000E+00  1.70000000E+00  1.70000000E+00
  1.70000000E+00  1.70000000E+00  1.70000000E+00  1.70000000E+00  1.30000000E+00
  1.55000000E+00  1.70000000E+00  1.70000000E+00  1.70000000E+00  1.70000000E+00
  1.50000000E+00  1.70000000E+00  1.70000000E+00  1.50000000E+00  1.70000000E+00
  1.70000000E+00  1.50000000E+00  1.50000000E+00  1.70000000E+00  1.50000000E+00
  1.70000000E+00  1.50000000E+00  1.70000000E+00  1.50000000E+00  1.30000000E+00
  1.30000000E+00  1.30000000E+00  1.30000000E+00  1.30000000E+00  1.30000000E+00
  1.30000000E+00  1.30000000E+00  1.30000000E+00  1.30000000E+00  1.30000000E+00
  1.30000000E+00  1.30000000E+00  1.30000000E+00  1.30000000E+00  1.30000000E+00
  8.00000000E-01  1.30000000E+00  1.30000000E+00  1.30000000E+00  8.00000000E-01
  1.30000000E+00  8.00000000E-01  1.30000000E+00  8.00000000E-01  1.50000000E+00
  1.70000000E+00  1.70000000E+00  1.30000000E+00  1.70000000E+00  1.70000000E+00
  1.70000000E+00  1.70000000E+00  1.70000000E+00  1.70000000E+00  1.30000000E+00
  1.55000000E+00  1.70000000E+00  1.70000000E+00  1.70000000E+00  1.70000000E+00
  1.50000000E+00  1.70000000E+00  1.70000000E+00  1.50000000E+00  1.70000000E+00
  1.70000000E+00  1.50000000E+00  1.50000000E+00  1.70000000E+00  1.50000000E+00
  1.70000000E+00  1.50000000E+00  1.70000000E+00  1.50000000E+00  1.30000000E+00
  1.30000000E+00  1.30000000E+00  1.30000000E+00  1.30000000E+00  1.30000000E+00
  1.30000000E+00  1.30000000E+00  1.30000000E+00  1.30000000E+00  1.30000000E+00
  1.30000000E+00  1.30000000E+00  1.30000000E+00  1.30000000E+00  1.30000000E+00
  8.00000000E-01  1.30000000E+00  1.30000000E+00  1.30000000E+00  8.00000000E-01
  1.30000000E+00  8.00000000E-01  1.30000000E+00  8.00000000E-01  1.50000000E+00
  1.70000000E+00  1.70000000E+00  1.30000000E+00  1.70000000E+00  1.70000000E+00
  1.70000000E+00  1.70000000E+00  1.70000000E+00  1.70000000E+00  1.30000000E+00
  1.55000000E+00  1.70000000E+00  1.70000000E+00  1.70000000E+00  1.70000000E+00
  1.50000000E+00  1.70000000E+00  1.70000000E+00  1.50000000E+00  1.70000000E+00
  1.70000000E+00  1.50000000E+00  1.50000000E+00  1.70000000E+00  1.50000000E+00
  1.70000000E+00  1.50000000E+00  1.70000000E+00  1.50000000E+00  1.30000000E+00
  1.30000000E+00  1.30000000E+00  1.30000000E+00  1.30000000E+00  1.30000000E+00
  1.30000000E+00  1.30000000E+00  1.30000000E+00  1.30000000E+00  1.30000000E+00
  1.30000000E+00  1.30000000E+00  1.30000000E+00  1.30000000E+00  1.30000000E+00
  8.00000000E-01  1.30000000E+00  1.30000000E+00  1.30000000E+00  8.00000000E-01
  1.30000000E+00  8.00000000E-01  1.30000000E+00  8.00000000E-01  1.50000000E+00
  1.70000000E+00  1.70000000E+00  1.30000000E+00  1.70000000E+00  1.70000000E+00
  1.70000000E+00  1.70000000E+00  1.70000000E+00  1.70000000E+00  1.30000000E+00
  1.55000000E+00  1.70000000E+00  1.70000000E+00  1.70000000E+00  1.70000000E+00
  1.50000000E+00  1.70000000E+00  1.70000000E+00  1.50000000E+00  1.70000000E+00
  1.70000000E+00  1.50000000E+00  1.50000000E+00  1.70000000E+00  1.50000000E+00
  1.70000000E+00  1.50000000E+00  1.70000000E+00  1.50000000E+00  1.30000000E+00
  1.30000000E+00  1.30000000E+00  1.30000000E+00  1.30000000E+00  1.30000000E+00
  1.30000000E+00  1.30000000E+00  1.30000000E+00  1.30000000E+00  1.30000000E+00
  1.30000000E+00  1.30000000E+00  1.30000000E+00  1.30000000E+00  1.30000000E+00
  8.00000000E-01  1.30000000E+00  1.30000000E+00  1.30000000E+00  8.00000000E-01
  1.30000000E+00  8.00000000E-01  1.30000000E+00  8.00000000E-01  1.50000000E+00
  1.70000000E+00  1.70000000E+00  1.30000000E+00  1.70000000E+00  1.70000000E+00
  1.70000000E+00  1.70000000E+00  1.70000000E+00  1.70000000E+00  1.30000000E+00
  1.55000000E+00  1.70000000E+00  1.70000000E+00  1.70000000E+00  1.70000000E+00
  1.50000000E+00  1.70000000E+00  1.70000000E+00  1.50000000E+00  1.70000000E+00
  1.70000000E+00  1.50000000E+00  1.50000000E+00  1.70000000E+00  1.50000000E+00
  1.70000000E+00  1.50000000E+00  1.70000000E+00  1.50000000E+00  1.30000000E+00
  1.30000000E+00  1.30000000E+00  1.30000000E+00  1.30000000E+00  1.30000000E+00
  1.30000000E+00  1.30000000E+00  1.30000000E+00  1.30000000E+00  1.30000000E+00
  1.30000000E+00  1.30000000E+00  1.30000000E+00  1.30000000E+00  1.30000000E+00
  8.00000000E-01  1.30000000E+00  1.30000000E+00  1.30000000E+00  8.00000000E-01
  1.30000000E+00  8.00000000E-01  1.30000000E+00  8.00000000E-01  1.50000000E+00
  1.70000000E+00  1.70000000E+00  1.30000000E+00  1.70000000E+00  1.70000000E+00
  1.70000000E+00  1.70000000E+00  1.70000000E+00  1.70000000E+00  1.30000000E+00
  1.55000000E+00  1.70000000E+00  1.70000000E+00  1.70000000E+00  1.70000000E+00
  1.50000000E+00  1.70000000E+00  1.70000000E+00  1.50000000E+00  1.70000000E+00
  1.70000000E+00  1.50000000E+00  1.50000000E+00  1.70000000E+00  1.50000000E+00
  1.70000000E+00  1.50000000E+00  1.70000000E+00  1.50000000E+00  1.30000000E+00
  1.30000000E+00  1.30000000E+00  1.30000000E+00  1.30000000E+00  1.30000000E+00
  1.30000000E+00  1.30000000E+00  1.30000000E+00  1.30000000E+00  1.30000000E+00
  1.30000000E+00  1.30000000E+00  1.30000000E+00  1.30000000E+00  1.30000000E+00
  8.00000000E-01  1.30000000E+00  1.30000000E+00  1.30000000E+00  8.00000000E-01
  1.30000000E+00  8.00000000E-01  1.30000000E+00  8.00000000E-01  1.50000000E+00
  1.70000000E+00  1.70000000E+00  1.30000000E+00  1.70000000E+00  1.70000000E+00
  1.70000000E+00  1.70000000E+00  1.70000000E+00  1.70000000E+00  1.30000000E+00
  1.55000000E+00  1.70000000E+00  1.70000000E+00  1.70000000E+00  1.70000000E+00
  1.50000000E+00  1.70000000E+00  1.70000000E+00  1.50000000E+00  1.70000000E+00
  1.70000000E+00  1.50000000E+00  1.50000000E+00  1.70000000E+00  1.50000000E+00
  1.70000000E+00  1.50000000E+00  1.70000000E+00  1.50000000E+00  1.30000000E+00
  1.30000000E+00  1.30000000E+00  1.30000000E+00  1.30000000E+00  1.30000000E+00
  1.30000000E+00  1.30000000E+00  1.30000000E+00  1.30000000E+00  1.30000000E+00
  1.30000000E+00  1.30000000E+00  1.30000000E+00  1.30000000E+00  1.30000000E+00
  8.00000000E-01  1.30000000E+00  1.30000000E+00  1.30000000E+00  8.00000000E-01
  1.30000000E+00  8.00000000E-01  1.30000000E+00  8.00000000E-01  1.70000000E+00
  1.30000000E+00  1.30000000E+00  1.70000000E+00  1.30000000E+00  1.30000000E+00
  1.50000000E+00  1.70000000E+00  1.70000000E+00  1.30000000E+00  1.70000000E+00
  1.70000000E+00  1.70000000E+00  1.70000000E+00  1.70000000E+00  1.70000000E+00
  1.30000000E+00  1.55000000E+00  1.70000000E+00  1.70000000E+00  1.70000000E+00
  1.70000000E+00  1.50000000E+00  1.70000000E+00  1.70000000E+00  1.50000000E+00
  1.70000000E+00  1.70000000E+00  1.50000000E+00  1.50000000E+00  1.70000000E+00
  1.50000000E+00  1.70000000E+00  1.50000000E+00  1.70000000E+00  1.50000000E+00
  1.30000000E+00  1.30000000E+00  1.30000000E+00  1.30000000E+00  1.30000000E+00
  1.30000000E+00  1.30000000E+00  1.30000000E+00  1.30000000E+00  1.30000000E+00
  1.30000000E+00  1.30000000E+00  1.30000000E+00  1.30000000E+00  1.30000000E+00
  1.30000000E+00  8.00000000E-01  1.30000000E+00  1.30000000E+00  1.30000000E+00
  8.00000000E-01  1.30000000E+00  8.00000000E-01  1.30000000E+00  8.00000000E-01
  1.50000000E+00  1.70000000E+00  1.70000000E+00  1.30000000E+00  1.70000000E+00
  1.70000000E+00  1.70000000E+00  1.70000000E+00  1.70000000E+00  1.70000000E+00
  1.30000000E+00  1.55000000E+00  1.70000000E+00  1.70000000E+00  1.70000000E+00
  1.70000000E+00  1.50000000E+00  1.70000000E+00  1.70000000E+00  1.50000000E+00
  1.70000000E+00  1.70000000E+00  1.50000000E+00  1.50000000E+00  1.70000000E+00
  1.50000000E+00  1.70000000E+00  1.50000000E+00  1.70000000E+00  1.50000000E+00
  1.30000000E+00  1.30000000E+00  1.30000000E+00  1.30000000E+00  1.30000000E+00
  1.30000000E+00  1.30000000E+00  1.30000000E+00  1.30000000E+00  1.30000000E+00
  1.30000000E+00  1.30000000E+00  1.30000000E+00  1.30000000E+00  1.30000000E+00
  1.30000000E+00  8.00000000E-01  1.30000000E+00  1.30000000E+00  1.30000000E+00
  8.00000000E-01  1.30000000E+00  8.00000000E-01  1.30000000E+00  8.00000000E-01
  1.50000000E+00  1.70000000E+00  1.70000000E+00  1.30000000E+00  1.70000000E+00
  1.70000000E+00  1.70000000E+00  1.70000000E+00  1.70000000E+00  1.70000000E+00
  1.30000000E+00  1.55000000E+00  1.70000000E+00  1.70000000E+00  1.70000000E+00
  1.70000000E+00  1.50000000E+00  1.70000000E+00  1.70000000E+00  1.50000000E+00
  1.70000000E+00  1.70000000E+00  1.50000000E+00  1.50000000E+00  1.70000000E+00
  1.50000000E+00  1.70000000E+00  1.50000000E+00  1.70000000E+00  1.50000000E+00
  1.30000000E+00  1.30000000E+00  1.30000000E+00  1.30000000E+00  1.30000000E+00
  1.30000000E+00  1.30000000E+00  1.30000000E+00  1.30000000E+00  1.30000000E+00
  1.30000000E+00  1.30000000E+00  1.30000000E+00  1.30000000E+00  1.30000000E+00
  1.30000000E+00  8.00000000E-01  1.30000000E+00  1.30000000E+00  1.30000000E+00
  8.00000000E-01  1.30000000E+00  8.00000000E-01  1.30000000E+00  8.00000000E-01
  1.50000000E+00  1.70000000E+00  1.70000000E+00  1.30000000E+00  1.70000000E+00
  1.70000000E+00  1.70000000E+00  1.70000000E+00  1.70000000E+00  1.70000000E+00
  1.30000000E+00  1.55000000E+00  1.70000000E+00  1.70000000E+00  1.70000000E+00
  1.70000000E+00  1.50000000E+00  1.70000000E+00  1.70000000E+00  1.50000000E+00
  1.70000000E+00  1.70000000E+00  1.50000000E+00  1.50000000E+00  1.70000000E+00
  1.50000000E+00  1.70000000E+00  1.50000000E+00  1.70000000E+00  1.50000000E+00
  1.30000000E+00  1.30000000E+00  1.30000000E+00  1.30000000E+00  1.30000000E+00
  1.30000000E+00  1.30000000E+00  1.30000000E+00  1.30000000E+00  1.30000000E+00
  1.30000000E+00  1.30000000E+00  1.30000000E+00  1.30000000E+00  1.30000000E+00
  1.30000000E+00  8.00000000E-01  1.30000000E+00  1.30000000E+00  1.30000000E+00
  8.00000000E-01  1.30000000E+00  8.00000000E-01  1.30000000E+00  8.00000000E-01
  1.50000000E+00  1.70000000E+00  1.70000000E+00  1.30000000E+00  1.70000000E+00
  1.70000000E+00  1.70000000E+00  1.70000000E+00  1.70000000E+00  1.70000000E+00
  1.30000000E+00  1.55000000E+00  1.70000000E+00  1.70000000E+00  1.70000000E+00
  1.70000000E+00  1.50000000E+00  1.70000000E+00  1.70000000E+00  1.50000000E+00
  1.70000000E+00  1.70000000E+00  1.50000000E+00  1.50000000E+00  1.70000000E+00
  1.50000000E+00  1.70000000E+00  1.50000000E+00  1.70000000E+00  1.50000000E+00
  1.30000000E+00  1.30000000E+00  1.30000000E+00  1.30000000E+00  1.30000000E+00
  1.30000000E+00  1.30000000E+00  1.30000000E+00  1.30000000E+00  1.30000000E+00
  1.30000000E+00  1.30000000E+00  1.30000000E+00  1.30000000E+00  1.30000000E+00
  1.30000000E+00  8.00000000E-01  1.30000000E+00  1.30000000E+00  1.30000000E+00
  8.00000000E-01  1.30000000E+00  8.00000000E-01  1.30000000E+00  8.00000000E-01
  1.50000000E+00  1.70000000E+00  1.70000000E+00  1.30000000E+00  1.70000000E+00
  1.70000000E+00  1.70000000E+00  1.70000000E+00  1.70000000E+00  1.70000000E+00
  1.30000000E+00  1.55000000E+00  1.70000000E+00  1.70000000E+00  1.70000000E+00
  1.70000000E+00  1.50000000E+00  1.70000000E+00  1.70000000E+00  1.50000000E+00
  1.70000000E+00  1.70000000E+00  1.50000000E+00  1.50000000E+00  1.70000000E+00
  1.50000000E+00  1.70000000E+00  1.50000000E+00  1.70000000E+00  1.50000000E+00
  1.30000000E+00  1.30000000E+00  1.30000000E+00  1.30000000E+00  1.30000000E+00
  1.30000000E+00  1.30000000E+00  1.30000000E+00  1.30000000E+00  1.30000000E+00
  1.30000000E+00  1.30000000E+00  1.30000000E+00  1.30000000E+00  1.30000000E+00
  1.30000000E+00  8.00000000E-01  1.30000000E+00  1.30000000E+00  1.30000000E+00
  8.00000000E-01  1.30000000E+00  8.00000000E-01  1.30000000E+00  8.00000000E-01
  1.50000000E+00  1.70000000E+00  1.70000000E+00  1.30000000E+00  1.70000000E+00
  1.70000000E+00  1.70000000E+00  1.70000000E+00  1.70000000E+00  1.70000000E+00
  1.30000000E+00  1.55000000E+00  1.70000000E+00  1.70000000E+00  1.70000000E+00
  1.70000000E+00  1.50000000E+00  1.70000000E+00  1.70000000E+00  1.50000000E+00
  1.70000000E+00  1.70000000E+00  1.50000000E+00  1.50000000E+00  1.70000000E+00
  1.50000000E+00  1.70000000E+00  1.50000000E+00  1.70000000E+00  1.50000000E+00
  1.30000000E+00  1.30000000E+00  1.30000000E+00  1.30000000E+00  1.30000000E+00
  1.30000000E+00  1.30000000E+00  1.30000000E+00  1.30000000E+00  1.30000000E+00
  1.30000000E+00  1.30000000E+00  1.30000000E+00  1.30000000E+00  1.30000000E+00
  1.30000000E+00  8.00000000E-01  1.30000000E+00  1.30000000E+00  1.30000000E+00
  8.00000000E-01  1.30000000E+00  8.00000000E-01  1.30000000E+00  8.00000000E-01
  1.50000000E+00  1.70000000E+00  1.70000000E+00  1.30000000E+00  1.70000000E+00
  1.70000000E+00  1.70000000E+00  1.70000000E+00  1.70000000E+00  1.70000000E+00
  1.30000000E+00  1.55000000E+00  1.70000000E+00  1.70000000E+00  1.70000000E+00
  1.70000000E+00  1.50000000E+00  1.70000000E+00  1.70000000E+00  1.50000000E+00
  1.70000000E+00  1.70000000E+00  1.50000000E+00  1.50000000E+00  1.70000000E+00
  1.50000000E+00  1.70000000E+00  1.50000000E+00  1.70000000E+00  1.50000000E+00
  1.30000000E+00  1.30000000E+00  1.30000000E+00  1.30000000E+00  1.30000000E+00
  1.30000000E+00  1.30000000E+00  1.30000000E+00  1.30000000E+00  1.30000000E+00
  1.30000000E+00  1.30000000E+00  1.30000000E+00  1.30000000E+00  1.30000000E+00
  1.30000000E+00  8.00000000E-01  1.30000000E+00  1.30000000E+00  1.30000000E+00
  8.00000000E-01  1.30000000E+00  8.00000000E-01  1.30000000E+00  8.00000000E-01
  1.50000000E+00  1.70000000E+00  1.70000000E+00  1.30000000E+00  1.70000000E+00
  1.70000000E+00  1.70000000E+00  1.70000000E+00  1.70000000E+00  1.70000000E+00
  1.30000000E+00  1.55000000E+00  1.70000000E+00  1.70000000E+00  1.70000000E+00
  1.70000000E+00  1.50000000E+00  1.70000000E+00  1.70000000E+00  1.50000000E+00
  1.70000000E+00  1.70000000E+00  1.50000000E+00  1.50000000E+00  1.70000000E+00
  1.50000000E+00  1.70000000E+00  1.50000000E+00  1.70000000E+00  1.50000000E+00
  1.30000000E+00  1.30000000E+00  1.30000000E+00  1.30000000E+00  1.30000000E+00
  1.30000000E+00  1.30000000E+00  1.30000000E+00  1.30000000E+00  1.30000000E+00
  1.30000000E+00  1.30000000E+00  1.30000000E+00  1.30000000E+00  1.30000000E+00
  1.30000000E+00  8.00000000E-01  1.30000000E+00  1.30000000E+00  1.30000000E+00
  8.00000000E-01  1.30000000E+00  8.00000000E-01  1.30000000E+00  8.00000000E-01
  1.50000000E+00  1.70000000E+00  1.70000000E+00  1.30000000E+00  1.70000000E+00
  1.70000000E+00  1.70000000E+00  1.70000000E+00  1.70000000E+00  1.70000000E+00
  1.30000000E+00  1.55000000E+00  1.70000000E+00  1.70000000E+00  1.70000000E+00
  1.70000000E+00  1.50000000E+00  1.70000000E+00  1.70000000E+00  1.50000000E+00
  1.70000000E+00  1.70000000E+00  1.50000000E+00  1.50000000E+00  1.70000000E+00
  1.50000000E+00  1.70000000E+00  1.50000000E+00  1.70000000E+00  1.50000000E+00
  1.30000000E+00  1.30000000E+00  1.30000000E+00  1.30000000E+00  1.30000000E+00
  1.30000000E+00  1.30000000E+00  1.30000000E+00  1.30000000E+00  1.30000000E+00
  1.30000000E+00  1.30000000E+00  1.30000000E+00  1.30000000E+00  1.30000000E+00
  1.30000000E+00  8.00000000E-01  1.30000000E+00  1.30000000E+00  1.30000000E+00
  8.00000000E-01  1.30000000E+00  8.00000000E-01  1.30000000E+00  8.00000000E-01
  1.70000000E+00  1.30000000E+00  1.30000000E+00  1.50000000E+00  8.00000000E-01
  8.00000000E-01  1.50000000E+00  8.00000000E-01  8.00000000E-01  1.50000000E+00
  8.00000000E-01  8.00000000E-01  1.50000000E+00  8.00000000E-01  8.00000000E-01
  1.50000000E+00  8.00000000E-01  8.00000000E-01  1.50000000E+00  8.00000000E-01
  8.00000000E-01  1.50000000E+00  8.00000000E-01  8.00000000E-01  1.50000000E+00
  8.00000000E-01  8.00000000E-01  1.50000000E+00  8.00000000E-01  8.00000000E-01
  1.50000000E+00  8.00000000E-01  8.00000000E-01  1.50000000E+00  8.00000000E-01
  8.00000000E-01  1.50000000E+00  8.00000000E-01  8.00000000E-01  1.50000000E+00
  8.00000000E-01  8.00000000E-01  1.50000000E+00  8.00000000E-01  8.00000000E-01
  1.50000000E+00  8.00000000E-01  8.00000000E-01  1.50000000E+00  8.00000000E-01
  8.00000000E-01  1.50000000E+00  8.00000000E-01  8.00000000E-01  1.50000000E+00
  8.00000000E-01  8.00000000E-01  1.50000000E+00  8.00000000E-01  8.00000000E-01
  1.50000000E+00  8.00000000E-01  8.00000000E-01  1.50000000E+00  8.00000000E-01
  8.00000000E-01  1.50000000E+00  8.00000000E-01  8.00000000E-01  1.50000000E+00
  8.00000000E-01  8.00000000E-01  1.50000000E+00  8.00000000E-01  8.00000000E-01
  1.50000000E+00  8.00000000E-01  8.00000000E-01  1.50000000E+00  8.00000000E-01
  8.00000000E-01  1.50000000E+00  8.00000000E-01  8.00000000E-01  1.50000000E+00
  8.00000000E-01  8.00000000E-01  1.50000000E+00  8.00000000E-01  8.00000000E-01
  1.50000000E+00  8.00000000E-01  8.00000000E-01  1.50000000E+00  8.00000000E-01
  8.00000000E-01  1.50000000E+00  8.00000000E-01  8.00000000E-01  1.50000000E+00
  8.00000000E-01  8.00000000E-01  1.50000000E+00  8.00000000E-01  8.00000000E-01
  1.50000000E+00  8.00000000E-01  8.00000000E-01  1.50000000E+00  8.00000000E-01
  8.00000000E-01  1.50000000E+00  8.00000000E-01  8.00000000E-01  1.50000000E+00
  8.00000000E-01  8.00000000E-01  1.50000000E+00  8.00000000E-01  8.00000000E-01
  1.50000000E+00  8.00000000E-01  8.00000000E-01  1.50000000E+00  8.00000000E-01
  8.00000000E-01  1.50000000E+00  8.00000000E-01  8.00000000E-01  1.50000000E+00
  8.00000000E-01  8.00000000E-01  1.50000000E+00  8.00000000E-01  8.00000000E-01
  1.50000000E+00  8.00000000E-01  8.00000000E-01  1.50000000E+00  8.00000000E-01
  8.00000000E-01  1.50000000E+00  8.00000000E-01  8.00000000E-01  1.50000000E+00
  8.00000000E-01  8.00000000E-01  1.50000000E+00  8.00000000E-01  8.00000000E-01
  1.50000000E+00  8.00000000E-01  8.00000000E-01  1.50000000E+00  8.00000000E-01
  8.00000000E-01  1.50000000E+00  8.00000000E-01  8.00000000E-01  1.50000000E+00
  8.00000000E-01  8.00000000E-01  1.50000000E+00  8.00000000E-01  8.00000000E-01
  1.50000000E+00  8.00000000E-01  8.00000000E-01  1.50000000E+00  8.00000000E-01
  8.00000000E-01  1.50000000E+00  8.00000000E-01  8.00000000E-01  1.50000000E+00
  8.00000000E-01  8.00000000E-01  1.50000000E+00  8.00000000E-01  8.00000000E-01
  1.50000000E+00  8.00000000E-01  8.00000000E-01  1.50000000E+00  8.00000000E-01
  8.00000000E-01  1.50000000E+00  8.00000000E-01  8.00000000E-01  1.50000000E+00
  8.00000000E-01  8.00000000E-01  1.50000000E+00  8.00000000E-01  8.00000000E-01
  1.50000000E+00  8.00000000E-01  8.00000000E-01  1.50000000E+00  8.00000000E-01
  8.00000000E-01  1.50000000E+00  8.00000000E-01  8.00000000E-01  1.50000000E+00
  8.00000000E-01  8.00000000E-01  1.50000000E+00  8.00000000E-01  8.00000000E-01
  1.50000000E+00  8.00000000E-01  8.00000000E-01  1.50000000E+00  8.00000000E-01
  8.00000000E-01  1.50000000E+00  8.00000000E-01  8.00000000E-01  1.50000000E+00
  8.00000000E-01  8.00000000E-01  1.50000000E+00  8.00000000E-01  8.00000000E-01
  1.50000000E+00  8.00000000E-01  8.00000000E-01  1.50000000E+00  8.00000000E-01
  8.00000000E-01  1.50000000E+00  8.00000000E-01  8.00000000E-01  1.50000000E+00
  8.00000000E-01  8.00000000E-01  1.50000000E+00  8.00000000E-01  8.00000000E-01
  1.50000000E+00  8.00000000E-01  8.00000000E-01  1.50000000E+00  8.00000000E-01
  8.00000000E-01  1.50000000E+00  8.00000000E-01  8.00000000E-01  1.50000000E+00
  8.00000000E-01  8.00000000E-01  1.50000000E+00  8.00000000E-01  8.00000000E-01
  1.50000000E+00  8.00000000E-01  8.00000000E-01  1.50000000E+00  8.00000000E-01
  8.00000000E-01  1.50000000E+00  8.00000000E-01  8.00000000E-01  1.50000000E+00
  8.00000000E-01  8.00000000E-01  1.50000000E+00  8.00000000E-01  8.00000000E-01
  1.50000000E+00  8.00000000E-01  8.00000000E-01  1.50000000E+00  8.00000000E-01
  8.00000000E-01  1.50000000E+00  8.00000000E-01  8.00000000E-01  1.50000000E+00
  8.00000000E-01  8.00000000E-01  1.50000000E+00  8.00000000E-01  8.00000000E-01
  1.50000000E+00  8.00000000E-01  8.00000000E-01  1.50000000E+00  8.00000000E-01
  8.00000000E-01  1.50000000E+00  8.00000000E-01  8.00000000E-01  1.50000000E+00
  8.00000000E-01  8.00000000E-01  1.50000000E+00  8.00000000E-01  8.00000000E-01
  1.50000000E+00  8.00000000E-01  8.00000000E-01  1.50000000E+00  8.00000000E-01
  8.00000000E-01  1.50000000E+00  8.00000000E-01  8.00000000E-01  1.50000000E+00
  8.00000000E-01  8.00000000E-01  1.50000000E+00  8.00000000E-01  8.00000000E-01
  1.50000000E+00  8.00000000E-01  8.00000000E-01  1.50000000E+00  8.00000000E-01
  8.00000000E-01  1.50000000E+00  8.00000000E-01  8.00000000E-01  1.50000000E+00
  8.00000000E-01  8.00000000E-01  1.50000000E+00  8.00000000E-01  8.00000000E-01
  1.50000000E+00  8.00000000E-01  8.00000000E-01  1.50000000E+00  8.00000000E-01
  8.00000000E-01  1.50000000E+00  8.00000000E-01  8.00000000E-01  1.50000000E+00
  8.00000000E-01  8.00000000E-01  1.50000000E+00  8.00000000E-01  8.00000000E-01
  1.50000000E+00  8.00000000E-01  8.00000000E-01  1.50000000E+00  8.00000000E-01
  8.00000000E-01  1.50000000E+00  8.00000000E-01  8.00000000E-01  1.50000000E+00
  8.00000000E-01  8.00000000E-01  1.50000000E+00  8.00000000E-01  8.00000000E-01
  1.50000000E+00  8.00000000E-01  8.00000000E-01  1.50000000E+00  8.00000000E-01
  8.00000000E-01  1.50000000E+00  8.00000000E-01  8.00000000E-01  1.50000000E+00
  8.00000000E-01  8.00000000E-01  1.50000000E+00  8.00000000E-01  8.00000000E-01
  1.50000000E+00  8.00000000E-01  8.00000000E-01  1.50000000E+00  8.00000000E-01
  8.00000000E-01  1.50000000E+00  8.00000000E-01  8.00000000E-01  1.50000000E+00
  8.00000000E-01  8.00000000E-01  1.50000000E+00  8.00000000E-01  8.00000000E-01
  1.50000000E+00  8.00000000E-01  8.00000000E-01  1.50000000E+00  8.00000000E-01
  8.00000000E-01  1.50000000E+00  8.00000000E-01  8.00000000E-01  1.50000000E+00
  8.00000000E-01  8.00000000E-01  1.50000000E+00  8.00000000E-01  8.00000000E-01
  1.50000000E+00  8.00000000E-01  8.00000000E-01  1.50000000E+00  8.00000000E-01
  8.00000000E-01  1.50000000E+00  8.00000000E-01  8.00000000E-01  1.50000000E+00
  8.00000000E-01  8.00000000E-01  1.50000000E+00  8.00000000E-01  8.00000000E-01
  1.50000000E+00  8.00000000E-01  8.00000000E-01  1.50000000E+00  8.00000000E-01
  8.00000000E-01  1.50000000E+00  8.00000000E-01  8.00000000E-01  1.50000000E+00
  8.00000000E-01  8.00000000E-01  1.50000000E+00  8.00000000E-01  8.00000000E-01
  1.50000000E+00  8.00000000E-01  8.00000000E-01  1.50000000E+00  8.00000000E-01
  8.00000000E-01  1.50000000E+00  8.00000000E-01  8.00000000E-01  1.50000000E+00
  8.00000000E-01  8.00000000E-01  1.50000000E+00  8.00000000E-01  8.00000000E-01
  1.50000000E+00  8.00000000E-01  8.00000000E-01  1.50000000E+00  8.00000000E-01
  8.00000000E-01  1.50000000E+00  8.00000000E-01  8.00000000E-01  1.50000000E+00
  8.00000000E-01  8.00000000E-01  1.50000000E+00  8.00000000E-01  8.00000000E-01
  1.50000000E+00  8.00000000E-01  8.00000000E-01  1.50000000E+00  8.00000000E-01
  8.00000000E-01  1.50000000E+00  8.00000000E-01  8.00000000E-01  1.50000000E+00
  8.00000000E-01  8.00000000E-01  1.50000000E+00  8.00000000E-01  8.00000000E-01
  1.50000000E+00  8.00000000E-01  8.00000000E-01  1.50000000E+00  8.00000000E-01
  8.00000000E-01  1.50000000E+00  8.00000000E-01  8.00000000E-01  1.50000000E+00
  8.00000000E-01  8.00000000E-01  1.50000000E+00  8.00000000E-01  8.00000000E-01
  1.50000000E+00  8.00000000E-01  8.00000000E-01  1.50000000E+00  8.00000000E-01
  8.00000000E-01  1.50000000E+00  8.00000000E-01  8.00000000E-01  1.50000000E+00
  8.00000000E-01  8.00000000E-01  1.50000000E+00  8.00000000E-01  8.00000000E-01
  1.50000000E+00  8.00000000E-01  8.00000000E-01  1.50000000E+00  8.00000000E-01
  8.00000000E-01  1.50000000E+00  8.00000000E-01  8.00000000E-01  1.50000000E+00
  8.00000000E-01  8.00000000E-01  1.50000000E+00  8.00000000E-01  8.00000000E-01
  1.50000000E+00  8.00000000E-01  8.00000000E-01  1.50000000E+00  8.00000000E-01
  8.00000000E-01  1.50000000E+00  8.00000000E-01  8.00000000E-01  1.50000000E+00
  8.00000000E-01  8.00000000E-01  1.50000000E+00  8.00000000E-01  8.00000000E-01
  1.50000000E+00  8.00000000E-01  8.00000000E-01  1.50000000E+00  8.00000000E-01
  8.00000000E-01  1.50000000E+00  8.00000000E-01  8.00000000E-01  1.50000000E+00
  8.00000000E-01  8.00000000E-01  1.50000000E+00  8.00000000E-01  8.00000000E-01
  1.50000000E+00  8.00000000E-01  8.00000000E-01  1.50000000E+00  8.00000000E-01
  8.00000000E-01  1.50000000E+00  8.00000000E-01  8.00000000E-01  1.50000000E+00
  8.00000000E-01  8.00000000E-01  1.50000000E+00  8.00000000E-01  8.00000000E-01
  1.50000000E+00  8.00000000E-01  8.00000000E-01  1.50000000E+00  8.00000000E-01
  8.00000000E-01  1.50000000E+00  8.00000000E-01  8.00000000E-01  1.50000000E+00
  8.00000000E-01  8.00000000E-01  1.50000000E+00  8.00000000E-01  8.00000000E-01
  1.50000000E+00  8.00000000E-01  8.00000000E-01  1.50000000E+00  8.00000000E-01
  8.00000000E-01  1.50000000E+00  8.00000000E-01  8.00000000E-01  1.50000000E+00
  8.00000000E-01  8.00000000E-01  1.50000000E+00  8.00000000E-01  8.00000000E-01
  1.50000000E+00  8.00000000E-01  8.00000000E-01  1.50000000E+00  8.00000000E-01
  8.00000000E-01  1.50000000E+00  8.00000000E-01  8.00000000E-01  1.50000000E+00
  8.00000000E-01  8.00000000E-01  1.50000000E+00  8.00000000E-01  8.00000000E-01
  1.50000000E+00  8.00000000E-01  8.00000000E-01  1.50000000E+00  8.00000000E-01
  8.00000000E-01  1.50000000E+00  8.00000000E-01  8.00000000E-01  1.50000000E+00
  8.00000000E-01  8.00000000E-01  1.50000000E+00  8.00000000E-01  8.00000000E-01
  1.50000000E+00  8.00000000E-01  8.00000000E-01  1.50000000E+00  8.00000000E-01
  8.00000000E-01  1.50000000E+00  8.00000000E-01  8.00000000E-01  1.50000000E+00
  8.00000000E-01  8.00000000E-01  1.50000000E+00  8.00000000E-01  8.00000000E-01
  1.50000000E+00  8.00000000E-01  8.00000000E-01  1.50000000E+00  8.00000000E-01
  8.00000000E-01  1.50000000E+00  8.00000000E-01  8.00000000E-01  1.50000000E+00
  8.00000000E-01  8.00000000E-01  1.50000000E+00  8.00000000E-01  8.00000000E-01
  1.50000000E+00  8.00000000E-01  8.00000000E-01  1.50000000E+00  8.00000000E-01
  8.00000000E-01  1.50000000E+00  8.00000000E-01  8.00000000E-01  1.50000000E+00
  8.00000000E-01  8.00000000E-01  1.50000000E+00  8.00000000E-01  8.00000000E-01
  1.50000000E+00  8.00000000E-01  8.00000000E-01  1.50000000E+00  8.00000000E-01
  8.00000000E-01  1.50000000E+00  8.00000000E-01  8.00000000E-01  1.50000000E+00
  8.00000000E-01  8.00000000E-01  1.50000000E+00  8.00000000E-01  8.00000000E-01
  1.50000000E+00  8.00000000E-01  8.00000000E-01  1.50000000E+00  8.00000000E-01
  8.00000000E-01  1.50000000E+00  8.00000000E-01  8.00000000E-01  1.50000000E+00
  8.00000000E-01  8.00000000E-01  1.50000000E+00  8.00000000E-01  8.00000000E-01
  1.50000000E+00  8.00000000E-01  8.00000000E-01  1.50000000E+00  8.00000000E-01
  8.00000000E-01  1.50000000E+00  8.00000000E-01  8.00000000E-01  1.50000000E+00
  8.00000000E-01  8.00000000E-01  1.50000000E+00  8.00000000E-01  8.00000000E-01
  1.50000000E+00  8.00000000E-01  8.00000000E-01  1.50000000E+00  8.00000000E-01
  8.00000000E-01  1.50000000E+00  8.00000000E-01  8.00000000E-01  1.50000000E+00
  8.00000000E-01  8.00000000E-01  1.50000000E+00  8.00000000E-01  8.00000000E-01
  1.50000000E+00  8.00000000E-01  8.00000000E-01  1.50000000E+00  8.00000000E-01
  8.00000000E-01  1.50000000E+00  8.00000000E-01  8.00000000E-01  1.50000000E+00
  8.00000000E-01  8.00000000E-01  1.50000000E+00  8.00000000E-01  8.00000000E-01
  1.50000000E+00  8.00000000E-01  8.00000000E-01  1.50000000E+00  8.00000000E-01
  8.00000000E-01  1.50000000E+00  8.00000000E-01  8.00000000E-01  1.50000000E+00
  8.00000000E-01  8.00000000E-01  1.50000000E+00  8.00000000E-01  8.00000000E-01
  1.50000000E+00  8.00000000E-01  8.00000000E-01  1.50000000E+00  8.00000000E-01
  8.00000000E-01  1.50000000E+00  8.00000000E-01  8.00000000E-01  1.50000000E+00
  8.00000000E-01  8.00000000E-01  1.50000000E+00  8.00000000E-01  8.00000000E-01
  1.50000000E+00  8.00000000E-01  8.00000000E-01  1.50000000E+00  8.00000000E-01
  8.00000000E-01  1.50000000E+00  8.00000000E-01  8.00000000E-01  1.50000000E+00
  8.00000000E-01  8.00000000E-01  1.50000000E+00  8.00000000E-01  8.00000000E-01
  1.50000000E+00  8.00000000E-01  8.00000000E-01  1.50000000E+00  8.00000000E-01
  8.00000000E-01  1.50000000E+00  8.00000000E-01  8.00000000E-01  1.50000000E+00
  8.00000000E-01  8.00000000E-01  1.50000000E+00  8.00000000E-01  8.00000000E-01
  1.50000000E+00  8.00000000E-01  8.00000000E-01  1.50000000E+00  8.00000000E-01
  8.00000000E-01  1.50000000E+00  8.00000000E-01  8.00000000E-01  1.50000000E+00
  8.00000000E-01  8.00000000E-01  1.50000000E+00  8.00000000E-01  8.00000000E-01
  1.50000000E+00  8.00000000E-01  8.00000000E-01  1.50000000E+00  8.00000000E-01
  8.00000000E-01  1.50000000E+00  8.00000000E-01  8.00000000E-01  1.50000000E+00
  8.00000000E-01  8.00000000E-01  1.50000000E+00  8.00000000E-01  8.00000000E-01
  1.50000000E+00  8.00000000E-01  8.00000000E-01  1.50000000E+00  8.00000000E-01
  8.00000000E-01  1.50000000E+00  8.00000000E-01  8.00000000E-01  1.50000000E+00
  8.00000000E-01  8.00000000E-01  1.50000000E+00  8.00000000E-01  8.00000000E-01
  1.50000000E+00  8.00000000E-01  8.00000000E-01  1.50000000E+00  8.00000000E-01
  8.00000000E-01  1.50000000E+00  8.00000000E-01  8.00000000E-01  1.50000000E+00
  8.00000000E-01  8.00000000E-01  1.50000000E+00  8.00000000E-01  8.00000000E-01
  1.50000000E+00  8.00000000E-01  8.00000000E-01  1.50000000E+00  8.00000000E-01
  8.00000000E-01  1.50000000E+00  8.00000000E-01  8.00000000E-01  1.50000000E+00
  8.00000000E-01  8.00000000E-01  1.50000000E+00  8.00000000E-01  8.00000000E-01
  1.50000000E+00  8.00000000E-01  8.00000000E-01  1.50000000E+00  8.00000000E-01
  8.00000000E-01  1.50000000E+00  8.00000000E-01  8.00000000E-01  1.50000000E+00
  8.00000000E-01  8.00000000E-01  1.50000000E+00  8.00000000E-01  8.00000000E-01
  1.50000000E+00  8.00000000E-01  8.00000000E-01  1.50000000E+00  8.00000000E-01
  8.00000000E-01  1.50000000E+00  8.00000000E-01  8.00000000E-01  1.50000000E+00
  8.00000000E-01  8.00000000E-01  1.50000000E+00  8.00000000E-01  8.00000000E-01
  1.50000000E+00  8.00000000E-01  8.00000000E-01  1.50000000E+00  8.00000000E-01
  8.00000000E-01  1.50000000E+00  8.00000000E-01  8.00000000E-01  1.50000000E+00
  8.00000000E-01  8.00000000E-01  1.50000000E+00  8.00000000E-01  8.00000000E-01
  1.50000000E+00  8.00000000E-01  8.00000000E-01  1.50000000E+00  8.00000000E-01
  8.00000000E-01  1.50000000E+00  8.00000000E-01  8.00000000E-01  1.50000000E+00
  8.00000000E-01  8.00000000E-01  1.50000000E+00  8.00000000E-01  8.00000000E-01
  1.50000000E+00  8.00000000E-01  8.00000000E-01  1.50000000E+00  8.00000000E-01
  8.00000000E-01  1.50000000E+00  8.00000000E-01  8.00000000E-01  1.50000000E+00
  8.00000000E-01  8.00000000E-01  1.50000000E+00  8.00000000E-01  8.00000000E-01
  1.50000000E+00  8.00000000E-01  8.00000000E-01  1.50000000E+00  8.00000000E-01
  8.00000000E-01  1.50000000E+00  8.00000000E-01  8.00000000E-01  1.50000000E+00
  8.00000000E-01  8.00000000E-01  1.50000000E+00  8.00000000E-01  8.00000000E-01
  1.50000000E+00  8.00000000E-01  8.00000000E-01  1.50000000E+00  8.00000000E-01
  8.00000000E-01  1.50000000E+00  8.00000000E-01  8.00000000E-01  1.50000000E+00
  8.00000000E-01  8.00000000E-01  1.50000000E+00  8.00000000E-01  8.00000000E-01
  1.50000000E+00  8.00000000E-01  8.00000000E-01  1.50000000E+00  8.00000000E-01
  8.00000000E-01  1.50000000E+00  8.00000000E-01  8.00000000E-01  1.50000000E+00
  8.00000000E-01  8.00000000E-01  1.50000000E+00  8.00000000E-01  8.00000000E-01
  1.50000000E+00  8.00000000E-01  8.00000000E-01  1.50000000E+00  8.00000000E-01
  8.00000000E-01  1.50000000E+00  8.00000000E-01  8.00000000E-01  1.50000000E+00
  8.00000000E-01  8.00000000E-01  1.50000000E+00  8.00000000E-01  8.00000000E-01
  1.50000000E+00  8.00000000E-01  8.00000000E-01  1.50000000E+00  8.00000000E-01
  8.00000000E-01  1.50000000E+00  8.00000000E-01  8.00000000E-01  1.50000000E+00
  8.00000000E-01  8.00000000E-01  1.50000000E+00  8.00000000E-01  8.00000000E-01
  1.50000000E+00  8.00000000E-01  8.00000000E-01  1.50000000E+00  8.00000000E-01
  8.00000000E-01  1.50000000E+00  8.00000000E-01  8.00000000E-01  1.50000000E+00
  8.00000000E-01  8.00000000E-01  1.50000000E+00  8.00000000E-01  8.00000000E-01
  1.50000000E+00  8.00000000E-01  8.00000000E-01  1.50000000E+00  8.00000000E-01
  8.00000000E-01  1.50000000E+00  8.00000000E-01  8.00000000E-01  1.50000000E+00
  8.00000000E-01  8.00000000E-01  1.50000000E+00  8.00000000E-01  8.00000000E-01
  1.50000000E+00  8.00000000E-01  8.00000000E-01  1.50000000E+00  8.00000000E-01
  8.00000000E-01  1.50000000E+00  8.00000000E-01  8.00000000E-01  1.50000000E+00
  8.00000000E-01  8.00000000E-01  1.50000000E+00  8.00000000E-01  8.00000000E-01
  1.50000000E+00  8.00000000E-01  8.00000000E-01  1.50000000E+00  8.00000000E-01
  8.00000000E-01  1.50000000E+00  8.00000000E-01  8.00000000E-01  1.50000000E+00
  8.00000000E-01  8.00000000E-01  1.50000000E+00  8.00000000E-01  8.00000000E-01
  1.50000000E+00  8.00000000E-01  8.00000000E-01  1.50000000E+00  8.00000000E-01
  8.00000000E-01  1.50000000E+00  8.00000000E-01  8.00000000E-01  1.50000000E+00
  8.00000000E-01  8.00000000E-01  1.50000000E+00  8.00000000E-01  8.00000000E-01
  1.50000000E+00  8.00000000E-01  8.00000000E-01  1.50000000E+00  8.00000000E-01
  8.00000000E-01  1.50000000E+00  8.00000000E-01  8.00000000E-01  1.50000000E+00
  8.00000000E-01  8.00000000E-01  1.50000000E+00  8.00000000E-01  8.00000000E-01
  1.50000000E+00  8.00000000E-01  8.00000000E-01  1.50000000E+00  8.00000000E-01
  8.00000000E-01  1.50000000E+00  8.00000000E-01  8.00000000E-01  1.50000000E+00
  8.00000000E-01  8.00000000E-01  1.50000000E+00  8.00000000E-01  8.00000000E-01
  1.50000000E+00  8.00000000E-01  8.00000000E-01  1.50000000E+00  8.00000000E-01
  8.00000000E-01  1.50000000E+00  8.00000000E-01  8.00000000E-01  1.50000000E+00
  8.00000000E-01  8.00000000E-01  1.50000000E+00  8.00000000E-01  8.00000000E-01
  1.50000000E+00  8.00000000E-01  8.00000000E-01  1.50000000E+00  8.00000000E-01
  8.00000000E-01  1.50000000E+00  8.00000000E-01  8.00000000E-01  1.50000000E+00
  8.00000000E-01  8.00000000E-01  1.50000000E+00  8.00000000E-01  8.00000000E-01
  1.50000000E+00  8.00000000E-01  8.00000000E-01  1.50000000E+00  8.00000000E-01
  8.00000000E-01  1.50000000E+00  8.00000000E-01  8.00000000E-01  1.50000000E+00
  8.00000000E-01  8.00000000E-01  1.50000000E+00  8.00000000E-01  8.00000000E-01
  1.50000000E+00  8.00000000E-01  8.00000000E-01  1.50000000E+00  8.00000000E-01
  8.00000000E-01  1.50000000E+00  8.00000000E-01  8.00000000E-01  1.50000000E+00
  8.00000000E-01  8.00000000E-01  1.50000000E+00  8.00000000E-01  8.00000000E-01
  1.50000000E+00  8.00000000E-01  8.00000000E-01  1.50000000E+00  8.00000000E-01
  8.00000000E-01  1.50000000E+00  8.00000000E-01  8.00000000E-01  1.50000000E+00
  8.00000000E-01  8.00000000E-01  1.50000000E+00  8.00000000E-01  8.00000000E-01
  1.50000000E+00  8.00000000E-01  8.00000000E-01  1.50000000E+00  8.00000000E-01
  8.00000000E-01  1.50000000E+00  8.00000000E-01  8.00000000E-01  1.50000000E+00
  8.00000000E-01  8.00000000E-01  1.50000000E+00  8.00000000E-01  8.00000000E-01
  1.50000000E+00  8.00000000E-01  8.00000000E-01  1.50000000E+00  8.00000000E-01
  8.00000000E-01  1.50000000E+00  8.00000000E-01  8.00000000E-01  1.50000000E+00
  8.00000000E-01  8.00000000E-01  1.50000000E+00  8.00000000E-01  8.00000000E-01
  1.50000000E+00  8.00000000E-01  8.00000000E-01  1.50000000E+00  8.00000000E-01
  8.00000000E-01  1.50000000E+00  8.00000000E-01  8.00000000E-01  1.50000000E+00
  8.00000000E-01  8.00000000E-01  1.50000000E+00  8.00000000E-01  8.00000000E-01
  1.50000000E+00  8.00000000E-01  8.00000000E-01  1.50000000E+00  8.00000000E-01
  8.00000000E-01  1.50000000E+00  8.00000000E-01  8.00000000E-01  1.50000000E+00
  8.00000000E-01  8.00000000E-01  1.50000000E+00  8.00000000E-01  8.00000000E-01
  1.50000000E+00  8.00000000E-01  8.00000000E-01  1.50000000E+00  8.00000000E-01
  8.00000000E-01  1.50000000E+00  8.00000000E-01  8.00000000E-01  1.50000000E+00
  8.00000000E-01  8.00000000E-01  1.50000000E+00  8.00000000E-01  8.00000000E-01
  1.50000000E+00  8.00000000E-01  8.00000000E-01  1.50000000E+00  8.00000000E-01
  8.00000000E-01  1.50000000E+00  8.00000000E-01  8.00000000E-01  1.50000000E+00
  8.00000000E-01  8.00000000E-01  1.50000000E+00  8.00000000E-01  8.00000000E-01
  1.50000000E+00  8.00000000E-01  8.00000000E-01  1.50000000E+00  8.00000000E-01
  8.00000000E-01  1.50000000E+00  8.00000000E-01  8.00000000E-01  1.50000000E+00
  8.00000000E-01  8.00000000E-01  1.50000000E+00  8.00000000E-01  8.00000000E-01
  1.50000000E+00  8.00000000E-01  8.00000000E-01  1.50000000E+00  8.00000000E-01
  8.00000000E-01  1.50000000E+00  8.00000000E-01  8.00000000E-01  1.50000000E+00
  8.00000000E-01  8.00000000E-01  1.50000000E+00  8.00000000E-01  8.00000000E-01
  1.50000000E+00  8.00000000E-01  8.00000000E-01  1.50000000E+00  8.00000000E-01
  8.00000000E-01  1.50000000E+00  8.00000000E-01  8.00000000E-01  1.50000000E+00
  8.00000000E-01  8.00000000E-01  1.50000000E+00  8.00000000E-01  8.00000000E-01
  1.50000000E+00  8.00000000E-01  8.00000000E-01  1.50000000E+00  8.00000000E-01
  8.00000000E-01  1.50000000E+00  8.00000000E-01  8.00000000E-01  1.50000000E+00
  8.00000000E-01  8.00000000E-01  1.50000000E+00  8.00000000E-01  8.00000000E-01
  1.50000000E+00  8.00000000E-01  8.00000000E-01  1.50000000E+00  8.00000000E-01
  8.00000000E-01  1.50000000E+00  8.00000000E-01  8.00000000E-01  1.50000000E+00
  8.00000000E-01  8.00000000E-01  1.50000000E+00  8.00000000E-01  8.00000000E-01
  1.50000000E+00  8.00000000E-01  8.00000000E-01  1.50000000E+00  8.00000000E-01
  8.00000000E-01  1.50000000E+00  8.00000000E-01  8.00000000E-01  1.50000000E+00
  8.00000000E-01  8.00000000E-01  1.50000000E+00  8.00000000E-01  8.00000000E-01
  1.50000000E+00  8.00000000E-01  8.00000000E-01  1.50000000E+00  8.00000000E-01
  8.00000000E-01  1.50000000E+00  8.00000000E-01  8.00000000E-01  1.50000000E+00
  8.00000000E-01  8.00000000E-01  1.50000000E+00  8.00000000E-01  8.00000000E-01
  1.50000000E+00  8.00000000E-01  8.00000000E-01  1.50000000E+00  8.00000000E-01
  8.00000000E-01  1.50000000E+00  8.00000000E-01  8.00000000E-01  1.50000000E+00
  8.00000000E-01  8.00000000E-01  1.50000000E+00  8.00000000E-01  8.00000000E-01
  1.50000000E+00  8.00000000E-01  8.00000000E-01  1.50000000E+00  8.00000000E-01
  8.00000000E-01  1.50000000E+00  8.00000000E-01  8.00000000E-01  1.50000000E+00
  8.00000000E-01  8.00000000E-01  1.50000000E+00  8.00000000E-01  8.00000000E-01
  1.50000000E+00  8.00000000E-01  8.00000000E-01  1.50000000E+00  8.00000000E-01
  8.00000000E-01  1.50000000E+00  8.00000000E-01  8.00000000E-01  1.50000000E+00
  8.00000000E-01  8.00000000E-01  1.50000000E+00  8.00000000E-01  8.00000000E-01
  1.50000000E+00  8.00000000E-01  8.00000000E-01  1.50000000E+00  8.00000000E-01
  8.00000000E-01  1.50000000E+00  8.00000000E-01  8.00000000E-01  1.50000000E+00
  8.00000000E-01  8.00000000E-01  1.50000000E+00  8.00000000E-01  8.00000000E-01
  1.50000000E+00  8.00000000E-01  8.00000000E-01  1.50000000E+00  8.00000000E-01
  8.00000000E-01  1.50000000E+00  8.00000000E-01  8.00000000E-01  1.50000000E+00
  8.00000000E-01  8.00000000E-01  1.50000000E+00  8.00000000E-01  8.00000000E-01
  1.50000000E+00  8.00000000E-01  8.00000000E-01  1.50000000E+00  8.00000000E-01
  8.00000000E-01  1.50000000E+00  8.00000000E-01  8.00000000E-01  1.50000000E+00
  8.00000000E-01  8.00000000E-01  1.50000000E+00  8.00000000E-01  8.00000000E-01
  1.50000000E+00  8.00000000E-01  8.00000000E-01  1.50000000E+00  8.00000000E-01
  8.00000000E-01  1.50000000E+00  8.00000000E-01  8.00000000E-01  1.50000000E+00
  8.00000000E-01  8.00000000E-01  1.50000000E+00  8.00000000E-01  8.00000000E-01
  1.50000000E+00  8.00000000E-01  8.00000000E-01  1.50000000E+00  8.00000000E-01
  8.00000000E-01  1.50000000E+00  8.00000000E-01  8.00000000E-01  1.50000000E+00
  8.00000000E-01  8.00000000E-01  1.50000000E+00  8.00000000E-01  8.00000000E-01
  1.50000000E+00  8.00000000E-01  8.00000000E-01  1.50000000E+00  8.00000000E-01
  8.00000000E-01  1.50000000E+00  8.00000000E-01  8.00000000E-01  1.50000000E+00
  8.00000000E-01  8.00000000E-01  1.50000000E+00  8.00000000E-01  8.00000000E-01
  1.50000000E+00  8.00000000E-01  8.00000000E-01  1.50000000E+00  8.00000000E-01
  8.00000000E-01  1.50000000E+00  8.00000000E-01  8.00000000E-01  1.50000000E+00
  8.00000000E-01  8.00000000E-01  1.50000000E+00  8.00000000E-01  8.00000000E-01
  1.50000000E+00  8.00000000E-01  8.00000000E-01  1.50000000E+00  8.00000000E-01
  8.00000000E-01  1.50000000E+00  8.00000000E-01  8.00000000E-01  1.50000000E+00
  8.00000000E-01  8.00000000E-01  1.50000000E+00  8.00000000E-01  8.00000000E-01
  1.50000000E+00  8.00000000E-01  8.00000000E-01  1.50000000E+00  8.00000000E-01
  8.00000000E-01  1.50000000E+00  8.00000000E-01  8.00000000E-01  1.50000000E+00
  8.00000000E-01  8.00000000E-01  1.50000000E+00  8.00000000E-01  8.00000000E-01
  1.50000000E+00  8.00000000E-01  8.00000000E-01  1.50000000E+00  8.00000000E-01
  8.00000000E-01  1.50000000E+00  8.00000000E-01  8.00000000E-01  1.50000000E+00
  8.00000000E-01  8.00000000E-01  1.50000000E+00  8.00000000E-01  8.00000000E-01
  1.50000000E+00  8.00000000E-01  8.00000000E-01  1.50000000E+00  8.00000000E-01
  8.00000000E-01  1.50000000E+00  8.00000000E-01  8.00000000E-01  1.50000000E+00
  8.00000000E-01  8.00000000E-01  1.50000000E+00  8.00000000E-01  8.00000000E-01
  1.50000000E+00  8.00000000E-01  8.00000000E-01  1.50000000E+00  8.00000000E-01
  8.00000000E-01  1.50000000E+00  8.00000000E-01  8.00000000E-01  1.50000000E+00
  8.00000000E-01  8.00000000E-01  1.50000000E+00  8.00000000E-01  8.00000000E-01
  1.50000000E+00  8.00000000E-01  8.00000000E-01  1.50000000E+00  8.00000000E-01
  8.00000000E-01  1.50000000E+00  8.00000000E-01  8.00000000E-01  1.50000000E+00
  8.00000000E-01  8.00000000E-01  1.50000000E+00  8.00000000E-01  8.00000000E-01
  1.50000000E+00  8.00000000E-01  8.00000000E-01  1.50000000E+00  8.00000000E-01
  8.00000000E-01  1.50000000E+00  8.00000000E-01  8.00000000E-01  1.50000000E+00
  8.00000000E-01  8.00000000E-01  1.50000000E+00  8.00000000E-01  8.00000000E-01
  1.50000000E+00  8.00000000E-01  8.00000000E-01  1.50000000E+00  8.00000000E-01
  8.00000000E-01  1.50000000E+00  8.00000000E-01  8.00000000E-01  1.50000000E+00
  8.00000000E-01  8.00000000E-01  1.50000000E+00  8.00000000E-01  8.00000000E-01
  1.50000000E+00  8.00000000E-01  8.00000000E-01  1.50000000E+00  8.00000000E-01
  8.00000000E-01  1.50000000E+00  8.00000000E-01  8.00000000E-01  1.50000000E+00
  8.00000000E-01  8.00000000E-01  1.50000000E+00  8.00000000E-01  8.00000000E-01
  1.50000000E+00  8.00000000E-01  8.00000000E-01  1.50000000E+00  8.00000000E-01
  8.00000000E-01  1.50000000E+00  8.00000000E-01  8.00000000E-01  1.50000000E+00
  8.00000000E-01  8.00000000E-01  1.50000000E+00  8.00000000E-01  8.00000000E-01
  1.50000000E+00  8.00000000E-01  8.00000000E-01  1.50000000E+00  8.00000000E-01
  8.00000000E-01  1.50000000E+00  8.00000000E-01  8.00000000E-01  1.50000000E+00
  8.00000000E-01  8.00000000E-01  1.50000000E+00  8.00000000E-01  8.00000000E-01
  1.50000000E+00  8.00000000E-01  8.00000000E-01  1.50000000E+00  8.00000000E-01
  8.00000000E-01  1.50000000E+00  8.00000000E-01  8.00000000E-01  1.50000000E+00
  8.00000000E-01  8.00000000E-01  1.50000000E+00  8.00000000E-01  8.00000000E-01
  1.50000000E+00  8.00000000E-01  8.00000000E-01  1.50000000E+00  8.00000000E-01
  8.00000000E-01  1.50000000E+00  8.00000000E-01  8.00000000E-01  1.50000000E+00
  8.00000000E-01  8.00000000E-01  1.50000000E+00  8.00000000E-01  8.00000000E-01
  1.50000000E+00  8.00000000E-01  8.00000000E-01  1.50000000E+00  8.00000000E-01
  8.00000000E-01  1.50000000E+00  8.00000000E-01  8.00000000E-01  1.50000000E+00
  8.00000000E-01  8.00000000E-01  1.50000000E+00  8.00000000E-01  8.00000000E-01
  1.50000000E+00  8.00000000E-01  8.00000000E-01  1.50000000E+00  8.00000000E-01
  8.00000000E-01  1.50000000E+00  8.00000000E-01  8.00000000E-01  1.50000000E+00
  8.00000000E-01  8.00000000E-01  1.50000000E+00  8.00000000E-01  8.00000000E-01
  1.50000000E+00  8.00000000E-01  8.00000000E-01  1.50000000E+00  8.00000000E-01
  8.00000000E-01  1.50000000E+00  8.00000000E-01  8.00000000E-01  1.50000000E+00
  8.00000000E-01  8.00000000E-01  1.50000000E+00  8.00000000E-01  8.00000000E-01
  1.50000000E+00  8.00000000E-01  8.00000000E-01  1.50000000E+00  8.00000000E-01
  8.00000000E-01  1.50000000E+00  8.00000000E-01  8.00000000E-01  1.50000000E+00
  8.00000000E-01  8.00000000E-01  1.50000000E+00  8.00000000E-01  8.00000000E-01
  1.50000000E+00  8.00000000E-01  8.00000000E-01  1.50000000E+00  8.00000000E-01
  8.00000000E-01  1.50000000E+00  8.00000000E-01  8.00000000E-01  1.50000000E+00
  8.00000000E-01  8.00000000E-01  1.50000000E+00  8.00000000E-01  8.00000000E-01
  1.50000000E+00  8.00000000E-01  8.00000000E-01  1.50000000E+00  8.00000000E-01
  8.00000000E-01  1.50000000E+00  8.00000000E-01  8.00000000E-01  1.50000000E+00
  8.00000000E-01  8.00000000E-01  1.50000000E+00  8.00000000E-01  8.00000000E-01
  1.50000000E+00  8.00000000E-01  8.00000000E-01  1.50000000E+00  8.00000000E-01
  8.00000000E-01  1.50000000E+00  8.00000000E-01  8.00000000E-01  1.50000000E+00
  8.00000000E-01  8.00000000E-01  1.50000000E+00  8.00000000E-01  8.00000000E-01
  1.50000000E+00  8.00000000E-01  8.00000000E-01  1.50000000E+00  8.00000000E-01
  8.00000000E-01  1.50000000E+00  8.00000000E-01  8.00000000E-01  1.50000000E+00
  8.00000000E-01  8.00000000E-01  1.50000000E+00  8.00000000E-01  8.00000000E-01
  1.50000000E+00  8.00000000E-01  8.00000000E-01  1.50000000E+00  8.00000000E-01
  8.00000000E-01  1.50000000E+00  8.00000000E-01  8.00000000E-01  1.50000000E+00
  8.00000000E-01  8.00000000E-01  1.50000000E+00  8.00000000E-01  8.00000000E-01
  1.50000000E+00  8.00000000E-01  8.00000000E-01  1.50000000E+00  8.00000000E-01
  8.00000000E-01  1.50000000E+00  8.00000000E-01  8.00000000E-01  1.50000000E+00
  8.00000000E-01  8.00000000E-01  1.50000000E+00  8.00000000E-01  8.00000000E-01
  1.50000000E+00  8.00000000E-01  8.00000000E-01  1.50000000E+00  8.00000000E-01
  8.00000000E-01  1.50000000E+00  8.00000000E-01  8.00000000E-01  1.50000000E+00
  8.00000000E-01  8.00000000E-01  1.50000000E+00  8.00000000E-01  8.00000000E-01
  1.50000000E+00  8.00000000E-01  8.00000000E-01  1.50000000E+00  8.00000000E-01
  8.00000000E-01  1.50000000E+00  8.00000000E-01  8.00000000E-01  1.50000000E+00
  8.00000000E-01  8.00000000E-01  1.50000000E+00  8.00000000E-01  8.00000000E-01
  1.50000000E+00  8.00000000E-01  8.00000000E-01  1.50000000E+00  8.00000000E-01
  8.00000000E-01  1.50000000E+00  8.00000000E-01  8.00000000E-01  1.50000000E+00
  8.00000000E-01  8.00000000E-01  1.50000000E+00  8.00000000E-01  8.00000000E-01
  1.50000000E+00  8.00000000E-01  8.00000000E-01  1.50000000E+00  8.00000000E-01
  8.00000000E-01  1.50000000E+00  8.00000000E-01  8.00000000E-01  1.50000000E+00
  8.00000000E-01  8.00000000E-01  1.50000000E+00  8.00000000E-01  8.00000000E-01
  1.50000000E+00  8.00000000E-01  8.00000000E-01  1.50000000E+00  8.00000000E-01
  8.00000000E-01  1.50000000E+00  8.00000000E-01  8.00000000E-01  1.50000000E+00
  8.00000000E-01  8.00000000E-01  1.50000000E+00  8.00000000E-01  8.00000000E-01
  1.50000000E+00  8.00000000E-01  8.00000000E-01  1.50000000E+00  8.00000000E-01
  8.00000000E-01  1.50000000E+00  8.00000000E-01  8.00000000E-01  1.50000000E+00
  8.00000000E-01  8.00000000E-01  1.50000000E+00  8.00000000E-01  8.00000000E-01
  1.50000000E+00  8.00000000E-01  8.00000000E-01  1.50000000E+00  8.00000000E-01
  8.00000000E-01  1.50000000E+00  8.00000000E-01  8.00000000E-01  1.50000000E+00
  8.00000000E-01  8.00000000E-01  1.50000000E+00  8.00000000E-01  8.00000000E-01
  1.50000000E+00  8.00000000E-01  8.00000000E-01  1.50000000E+00  8.00000000E-01
  8.00000000E-01  1.50000000E+00  8.00000000E-01  8.00000000E-01  1.50000000E+00
  8.00000000E-01  8.00000000E-01  1.50000000E+00  8.00000000E-01  8.00000000E-01
  1.50000000E+00  8.00000000E-01  8.00000000E-01  1.50000000E+00  8.00000000E-01
  8.00000000E-01  1.50000000E+00  8.00000000E-01  8.00000000E-01  1.50000000E+00
  8.00000000E-01  8.00000000E-01  1.50000000E+00  8.00000000E-01  8.00000000E-01
  1.50000000E+00  8.00000000E-01  8.00000000E-01  1.50000000E+00  8.00000000E-01
  8.00000000E-01  1.50000000E+00  8.00000000E-01  8.00000000E-01  1.50000000E+00
  8.00000000E-01  8.00000000E-01  1.50000000E+00  8.00000000E-01  8.00000000E-01
  1.50000000E+00  8.00000000E-01  8.00000000E-01  1.50000000E+00  8.00000000E-01
  8.00000000E-01  1.50000000E+00  8.00000000E-01  8.00000000E-01  1.50000000E+00
  8.00000000E-01  8.00000000E-01  1.50000000E+00  8.00000000E-01  8.00000000E-01
  1.50000000E+00  8.00000000E-01  8.00000000E-01  1.50000000E+00  8.00000000E-01
  8.00000000E-01  1.50000000E+00  8.00000000E-01  8.00000000E-01  1.50000000E+00
  8.00000000E-01  8.00000000E-01  1.50000000E+00  8.00000000E-01  8.00000000E-01
  1.50000000E+00  8.00000000E-01  8.00000000E-01  1.50000000E+00  8.00000000E-01
  8.00000000E-01  1.50000000E+00  8.00000000E-01  8.00000000E-01  1.50000000E+00
  8.00000000E-01  8.00000000E-01  1.50000000E+00  8.00000000E-01  8.00000000E-01
  1.50000000E+00  8.00000000E-01  8.00000000E-01  1.50000000E+00  8.00000000E-01
  8.00000000E-01  1.50000000E+00  8.00000000E-01  8.00000000E-01  1.50000000E+00
  8.00000000E-01  8.00000000E-01  1.50000000E+00  8.00000000E-01  8.00000000E-01
  1.50000000E+00  8.00000000E-01  8.00000000E-01  1.50000000E+00  8.00000000E-01
  8.00000000E-01  1.50000000E+00  8.00000000E-01  8.00000000E-01  1.50000000E+00
  8.00000000E-01  8.00000000E-01  1.50000000E+00  8.00000000E-01  8.00000000E-01
  1.50000000E+00  8.00000000E-01  8.00000000E-01  1.50000000E+00  8.00000000E-01
  8.00000000E-01  1.50000000E+00  8.00000000E-01  8.00000000E-01  1.50000000E+00
  8.00000000E-01  8.00000000E-01  1.50000000E+00  8.00000000E-01  8.00000000E-01
  1.50000000E+00  8.00000000E-01  8.00000000E-01  1.50000000E+00  8.00000000E-01
  8.00000000E-01  1.50000000E+00  8.00000000E-01  8.00000000E-01  1.50000000E+00
  8.00000000E-01  8.00000000E-01  1.50000000E+00  8.00000000E-01  8.00000000E-01
  1.50000000E+00  8.00000000E-01  8.00000000E-01  1.50000000E+00  8.00000000E-01
  8.00000000E-01  1.50000000E+00  8.00000000E-01  8.00000000E-01  1.50000000E+00
  8.00000000E-01  8.00000000E-01  1.50000000E+00  8.00000000E-01  8.00000000E-01
  1.50000000E+00  8.00000000E-01  8.00000000E-01  1.50000000E+00  8.00000000E-01
  8.00000000E-01  1.50000000E+00  8.00000000E-01  8.00000000E-01  1.50000000E+00
  8.00000000E-01  8.00000000E-01  1.50000000E+00  8.00000000E-01  8.00000000E-01
  1.50000000E+00  8.00000000E-01  8.00000000E-01  1.50000000E+00  8.00000000E-01
  8.00000000E-01  1.50000000E+00  8.00000000E-01  8.00000000E-01  1.50000000E+00
  8.00000000E-01  8.00000000E-01  1.50000000E+00  8.00000000E-01  8.00000000E-01
  1.50000000E+00  8.00000000E-01  8.00000000E-01  1.50000000E+00  8.00000000E-01
  8.00000000E-01  1.50000000E+00  8.00000000E-01  8.00000000E-01  1.50000000E+00
  8.00000000E-01  8.00000000E-01  1.50000000E+00  8.00000000E-01  8.00000000E-01
  1.50000000E+00  8.00000000E-01  8.00000000E-01  1.50000000E+00  8.00000000E-01
  8.00000000E-01  1.50000000E+00  8.00000000E-01  8.00000000E-01  1.50000000E+00
  8.00000000E-01  8.00000000E-01  1.50000000E+00  8.00000000E-01  8.00000000E-01
  1.50000000E+00  8.00000000E-01  8.00000000E-01  1.50000000E+00  8.00000000E-01
  8.00000000E-01  1.50000000E+00  8.00000000E-01  8.00000000E-01  1.50000000E+00
  8.00000000E-01  8.00000000E-01  1.50000000E+00  8.00000000E-01  8.00000000E-01
  1.50000000E+00  8.00000000E-01  8.00000000E-01  1.50000000E+00  8.00000000E-01
  8.00000000E-01  1.50000000E+00  8.00000000E-01  8.00000000E-01  1.50000000E+00
  8.00000000E-01  8.00000000E-01  1.50000000E+00  8.00000000E-01  8.00000000E-01
  1.50000000E+00  8.00000000E-01  8.00000000E-01  1.50000000E+00  8.00000000E-01
  8.00000000E-01  1.50000000E+00  8.00000000E-01  8.00000000E-01  1.50000000E+00
  8.00000000E-01  8.00000000E-01  1.50000000E+00  8.00000000E-01  8.00000000E-01
  1.50000000E+00  8.00000000E-01  8.00000000E-01  1.50000000E+00  8.00000000E-01
  8.00000000E-01  1.50000000E+00  8.00000000E-01  8.00000000E-01  1.50000000E+00
  8.00000000E-01  8.00000000E-01  1.50000000E+00  8.00000000E-01  8.00000000E-01
  1.50000000E+00  8.00000000E-01  8.00000000E-01  1.50000000E+00  8.00000000E-01
  8.00000000E-01  1.50000000E+00  8.00000000E-01  8.00000000E-01  1.50000000E+00
  8.00000000E-01  8.00000000E-01  1.50000000E+00  8.00000000E-01  8.00000000E-01
  1.50000000E+00  8.00000000E-01  8.00000000E-01  1.50000000E+00  8.00000000E-01
  8.00000000E-01  1.50000000E+00  8.00000000E-01  8.00000000E-01  1.50000000E+00
  8.00000000E-01  8.00000000E-01  1.50000000E+00  8.00000000E-01  8.00000000E-01
  1.50000000E+00  8.00000000E-01  8.00000000E-01  1.50000000E+00  8.00000000E-01
  8.00000000E-01  1.50000000E+00  8.00000000E-01  8.00000000E-01  1.50000000E+00
  8.00000000E-01  8.00000000E-01  1.50000000E+00  8.00000000E-01  8.00000000E-01
  1.50000000E+00  8.00000000E-01  8.00000000E-01  1.50000000E+00  8.00000000E-01
  8.00000000E-01  1.50000000E+00  8.00000000E-01  8.00000000E-01  1.50000000E+00
  8.00000000E-01  8.00000000E-01  1.50000000E+00  8.00000000E-01  8.00000000E-01
  1.50000000E+00  8.00000000E-01  8.00000000E-01  1.50000000E+00  8.00000000E-01
  8.00000000E-01  1.50000000E+00  8.00000000E-01  8.00000000E-01  1.50000000E+00
  8.00000000E-01  8.00000000E-01  1.50000000E+00  8.00000000E-01  8.00000000E-01
  1.50000000E+00  8.00000000E-01  8.00000000E-01  1.50000000E+00  8.00000000E-01
  8.00000000E-01  1.50000000E+00  8.00000000E-01  8.00000000E-01  1.50000000E+00
  8.00000000E-01  8.00000000E-01  1.50000000E+00  8.00000000E-01  8.00000000E-01
  1.50000000E+00  8.00000000E-01  8.00000000E-01  1.50000000E+00  8.00000000E-01
  8.00000000E-01  1.50000000E+00  8.00000000E-01  8.00000000E-01  1.50000000E+00
  8.00000000E-01  8.00000000E-01  1.50000000E+00  8.00000000E-01  8.00000000E-01
  1.50000000E+00  8.00000000E-01  8.00000000E-01  1.50000000E+00  8.00000000E-01
  8.00000000E-01  1.50000000E+00  8.00000000E-01  8.00000000E-01  1.50000000E+00
  8.00000000E-01  8.00000000E-01  1.50000000E+00  8.00000000E-01  8.00000000E-01
  1.50000000E+00  8.00000000E-01  8.00000000E-01  1.50000000E+00  8.00000000E-01
  8.00000000E-01  1.50000000E+00  8.00000000E-01  8.00000000E-01  1.50000000E+00
  8.00000000E-01  8.00000000E-01  1.50000000E+00  8.00000000E-01  8.00000000E-01
  1.50000000E+00  8.00000000E-01  8.00000000E-01  1.50000000E+00  8.00000000E-01
  8.00000000E-01  1.50000000E+00  8.00000000E-01  8.00000000E-01  1.50000000E+00
  8.00000000E-01  8.00000000E-01  1.50000000E+00  8.00000000E-01  8.00000000E-01
  1.50000000E+00  8.00000000E-01  8.00000000E-01  1.50000000E+00  8.00000000E-01
  8.00000000E-01  1.50000000E+00  8.00000000E-01  8.00000000E-01  1.50000000E+00
  8.00000000E-01  8.00000000E-01  1.50000000E+00  8.00000000E-01  8.00000000E-01
  1.50000000E+00  8.00000000E-01  8.00000000E-01  1.50000000E+00  8.00000000E-01
  8.00000000E-01  1.50000000E+00  8.00000000E-01  8.00000000E-01  1.50000000E+00
  8.00000000E-01  8.00000000E-01  1.50000000E+00  8.00000000E-01  8.00000000E-01
  1.50000000E+00  8.00000000E-01  8.00000000E-01  1.50000000E+00  8.00000000E-01
  8.00000000E-01  1.50000000E+00  8.00000000E-01  8.00000000E-01  1.50000000E+00
  8.00000000E-01  8.00000000E-01  1.50000000E+00  8.00000000E-01  8.00000000E-01
  1.50000000E+00  8.00000000E-01  8.00000000E-01  1.50000000E+00  8.00000000E-01
  8.00000000E-01  1.50000000E+00  8.00000000E-01  8.00000000E-01  1.50000000E+00
  8.00000000E-01  8.00000000E-01  1.50000000E+00  8.00000000E-01  8.00000000E-01
  1.50000000E+00  8.00000000E-01  8.00000000E-01  1.50000000E+00  8.00000000E-01
  8.00000000E-01  1.50000000E+00  8.00000000E-01  8.00000000E-01  1.50000000E+00
  8.00000000E-01  8.00000000E-01  1.50000000E+00  8.00000000E-01  8.00000000E-01
  1.50000000E+00  8.00000000E-01  8.00000000E-01  1.50000000E+00  8.00000000E-01
  8.00000000E-01  1.50000000E+00  8.00000000E-01  8.00000000E-01  1.50000000E+00
  8.00000000E-01  8.00000000E-01  1.50000000E+00  8.00000000E-01  8.00000000E-01
  1.50000000E+00  8.00000000E-01  8.00000000E-01  1.50000000E+00  8.00000000E-01
  8.00000000E-01  1.50000000E+00  8.00000000E-01  8.00000000E-01  1.50000000E+00
  8.00000000E-01  8.00000000E-01  1.50000000E+00  8.00000000E-01  8.00000000E-01
  1.50000000E+00  8.00000000E-01  8.00000000E-01  1.50000000E+00  8.00000000E-01
  8.00000000E-01  1.50000000E+00  8.00000000E-01  8.00000000E-01  1.50000000E+00
  8.00000000E-01  8.00000000E-01  1.50000000E+00  8.00000000E-01  8.00000000E-01
  1.50000000E+00  8.00000000E-01  8.00000000E-01  1.50000000E+00  8.00000000E-01
  8.00000000E-01  1.50000000E+00  8.00000000E-01  8.00000000E-01  1.50000000E+00
  8.00000000E-01  8.00000000E-01  1.50000000E+00  8.00000000E-01  8.00000000E-01
  1.50000000E+00  8.00000000E-01  8.00000000E-01  1.50000000E+00  8.00000000E-01
  8.00000000E-01  1.50000000E+00  8.00000000E-01  8.00000000E-01  1.50000000E+00
  8.00000000E-01  8.00000000E-01  1.50000000E+00  8.00000000E-01  8.00000000E-01
  1.50000000E+00  8.00000000E-01  8.00000000E-01  1.50000000E+00  8.00000000E-01
  8.00000000E-01  1.50000000E+00  8.00000000E-01  8.00000000E-01  1.50000000E+00
  8.00000000E-01  8.00000000E-01  1.50000000E+00  8.00000000E-01  8.00000000E-01
  1.50000000E+00  8.00000000E-01  8.00000000E-01  1.50000000E+00  8.00000000E-01
  8.00000000E-01  1.50000000E+00  8.00000000E-01  8.00000000E-01  1.50000000E+00
  8.00000000E-01  8.00000000E-01  1.50000000E+00  8.00000000E-01  8.00000000E-01
  1.50000000E+00  8.00000000E-01  8.00000000E-01  1.50000000E+00  8.00000000E-01
  8.00000000E-01  1.50000000E+00  8.00000000E-01  8.00000000E-01  1.50000000E+00
  8.00000000E-01  8.00000000E-01  1.50000000E+00  8.00000000E-01  8.00000000E-01
  1.50000000E+00  8.00000000E-01  8.00000000E-01  1.50000000E+00  8.00000000E-01
  8.00000000E-01  1.50000000E+00  8.00000000E-01  8.00000000E-01  1.50000000E+00
  8.00000000E-01  8.00000000E-01  1.50000000E+00  8.00000000E-01  8.00000000E-01
  1.50000000E+00  8.00000000E-01  8.00000000E-01  1.50000000E+00  8.00000000E-01
  8.00000000E-01  1.50000000E+00  8.00000000E-01  8.00000000E-01  1.50000000E+00
  8.00000000E-01  8.00000000E-01  1.50000000E+00  8.00000000E-01  8.00000000E-01
  1.50000000E+00  8.00000000E-01  8.00000000E-01  1.50000000E+00  8.00000000E-01
  8.00000000E-01  1.50000000E+00  8.00000000E-01  8.00000000E-01  1.50000000E+00
  8.00000000E-01  8.00000000E-01  1.50000000E+00  8.00000000E-01  8.00000000E-01
  1.50000000E+00  8.00000000E-01  8.00000000E-01  1.50000000E+00  8.00000000E-01
  8.00000000E-01  1.50000000E+00  8.00000000E-01  8.00000000E-01  1.50000000E+00
  8.00000000E-01  8.00000000E-01  1.50000000E+00  8.00000000E-01  8.00000000E-01
  1.50000000E+00  8.00000000E-01  8.00000000E-01  1.50000000E+00  8.00000000E-01
  8.00000000E-01  1.50000000E+00  8.00000000E-01  8.00000000E-01  1.50000000E+00
  8.00000000E-01  8.00000000E-01  1.50000000E+00  8.00000000E-01  8.00000000E-01
  1.50000000E+00  8.00000000E-01  8.00000000E-01  1.50000000E+00  8.00000000E-01
  8.00000000E-01  1.50000000E+00  8.00000000E-01  8.00000000E-01  1.50000000E+00
  8.00000000E-01  8.00000000E-01  1.50000000E+00  8.00000000E-01  8.00000000E-01
  1.50000000E+00  8.00000000E-01  8.00000000E-01  1.50000000E+00  8.00000000E-01
  8.00000000E-01  1.50000000E+00  8.00000000E-01  8.00000000E-01  1.50000000E+00
  8.00000000E-01  8.00000000E-01  1.50000000E+00  8.00000000E-01  8.00000000E-01
  1.50000000E+00  8.00000000E-01  8.00000000E-01  1.50000000E+00  8.00000000E-01
  8.00000000E-01  1.50000000E+00  8.00000000E-01  8.00000000E-01  1.50000000E+00
  8.00000000E-01  8.00000000E-01  1.50000000E+00  8.00000000E-01  8.00000000E-01
  1.50000000E+00  8.00000000E-01  8.00000000E-01  1.50000000E+00  8.00000000E-01
  8.00000000E-01  1.50000000E+00  8.00000000E-01  8.00000000E-01  1.50000000E+00
  8.00000000E-01  8.00000000E-01  1.50000000E+00  8.00000000E-01  8.00000000E-01
  1.50000000E+00  8.00000000E-01  8.00000000E-01  1.50000000E+00  8.00000000E-01
  8.00000000E-01  1.50000000E+00  8.00000000E-01  8.00000000E-01  1.50000000E+00
  8.00000000E-01  8.00000000E-01  1.50000000E+00  8.00000000E-01  8.00000000E-01
  1.50000000E+00  8.00000000E-01  8.00000000E-01  1.50000000E+00  8.00000000E-01
  8.00000000E-01  1.50000000E+00  8.00000000E-01  8.00000000E-01  1.50000000E+00
  8.00000000E-01  8.00000000E-01  1.50000000E+00  8.00000000E-01  8.00000000E-01
  1.50000000E+00  8.00000000E-01  8.00000000E-01  1.50000000E+00  8.00000000E-01
  8.00000000E-01  1.50000000E+00  8.00000000E-01  8.00000000E-01  1.50000000E+00
  8.00000000E-01  8.00000000E-01  1.50000000E+00  8.00000000E-01  8.00000000E-01
  1.50000000E+00  8.00000000E-01  8.00000000E-01  1.50000000E+00  8.00000000E-01
  8.00000000E-01  1.50000000E+00  8.00000000E-01  8.00000000E-01  1.50000000E+00
  8.00000000E-01  8.00000000E-01  1.50000000E+00  8.00000000E-01  8.00000000E-01
  1.50000000E+00  8.00000000E-01  8.00000000E-01  1.50000000E+00  8.00000000E-01
  8.00000000E-01  1.50000000E+00  8.00000000E-01  8.00000000E-01  1.50000000E+00
  8.00000000E-01  8.00000000E-01  1.50000000E+00  8.00000000E-01  8.00000000E-01
  1.50000000E+00  8.00000000E-01  8.00000000E-01  1.50000000E+00  8.00000000E-01
  8.00000000E-01  1.50000000E+00  8.00000000E-01  8.00000000E-01  1.50000000E+00
  8.00000000E-01  8.00000000E-01  1.50000000E+00  8.00000000E-01  8.00000000E-01
  1.50000000E+00  8.00000000E-01  8.00000000E-01  1.50000000E+00  8.00000000E-01
  8.00000000E-01  1.50000000E+00  8.00000000E-01  8.00000000E-01  1.50000000E+00
  8.00000000E-01  8.00000000E-01  1.50000000E+00  8.00000000E-01  8.00000000E-01
  1.50000000E+00  8.00000000E-01  8.00000000E-01  1.50000000E+00  8.00000000E-01
  8.00000000E-01  1.50000000E+00  8.00000000E-01  8.00000000E-01  1.50000000E+00
  8.00000000E-01  8.00000000E-01  1.50000000E+00  8.00000000E-01  8.00000000E-01
  1.50000000E+00  8.00000000E-01  8.00000000E-01  1.50000000E+00  8.00000000E-01
  8.00000000E-01  1.50000000E+00  8.00000000E-01  8.00000000E-01  1.50000000E+00
  8.00000000E-01  8.00000000E-01  1.50000000E+00  8.00000000E-01  8.00000000E-01
  1.50000000E+00  8.00000000E-01  8.00000000E-01  1.50000000E+00  8.00000000E-01
  8.00000000E-01  1.50000000E+00  8.00000000E-01  8.00000000E-01  1.50000000E+00
  8.00000000E-01  8.00000000E-01  1.50000000E+00  8.00000000E-01  8.00000000E-01
  1.50000000E+00  8.00000000E-01  8.00000000E-01  1.50000000E+00  8.00000000E-01
  8.00000000E-01  1.50000000E+00  8.00000000E-01  8.00000000E-01  1.50000000E+00
  8.00000000E-01  8.00000000E-01  1.50000000E+00  8.00000000E-01  8.00000000E-01
  1.50000000E+00  8.00000000E-01  8.00000000E-01  1.50000000E+00  8.00000000E-01
  8.00000000E-01  1.50000000E+00  8.00000000E-01  8.00000000E-01  1.50000000E+00
  8.00000000E-01  8.00000000E-01  1.50000000E+00  8.00000000E-01  8.00000000E-01
  1.50000000E+00  8.00000000E-01  8.00000000E-01  1.50000000E+00  8.00000000E-01
  8.00000000E-01  1.50000000E+00  8.00000000E-01  8.00000000E-01  1.50000000E+00
  8.00000000E-01  8.00000000E-01  1.50000000E+00  8.00000000E-01  8.00000000E-01
  1.50000000E+00  8.00000000E-01  8.00000000E-01  1.50000000E+00  8.00000000E-01
  8.00000000E-01  1.50000000E+00  8.00000000E-01  8.00000000E-01  1.50000000E+00
  8.00000000E-01  8.00000000E-01  1.50000000E+00  8.00000000E-01  8.00000000E-01
  1.50000000E+00  8.00000000E-01  8.00000000E-01  1.50000000E+00  8.00000000E-01
  8.00000000E-01  1.50000000E+00  8.00000000E-01  8.00000000E-01  1.50000000E+00
  8.00000000E-01  8.00000000E-01  1.50000000E+00  8.00000000E-01  8.00000000E-01
  1.50000000E+00  8.00000000E-01  8.00000000E-01  1.50000000E+00  8.00000000E-01
  8.00000000E-01  1.50000000E+00  8.00000000E-01  8.00000000E-01  1.50000000E+00
  8.00000000E-01  8.00000000E-01  1.50000000E+00  8.00000000E-01  8.00000000E-01
  1.50000000E+00  8.00000000E-01  8.00000000E-01  1.50000000E+00  8.00000000E-01
  8.00000000E-01  1.50000000E+00  8.00000000E-01  8.00000000E-01  1.50000000E+00
  8.00000000E-01  8.00000000E-01  1.50000000E+00  8.00000000E-01  8.00000000E-01
  1.50000000E+00  8.00000000E-01  8.00000000E-01  1.50000000E+00  8.00000000E-01
  8.00000000E-01  1.50000000E+00  8.00000000E-01  8.00000000E-01  1.50000000E+00
  8.00000000E-01  8.00000000E-01  1.50000000E+00  8.00000000E-01  8.00000000E-01
  1.50000000E+00  8.00000000E-01  8.00000000E-01  1.50000000E+00  8.00000000E-01
  8.00000000E-01  1.50000000E+00  8.00000000E-01  8.00000000E-01  1.50000000E+00
  8.00000000E-01  8.00000000E-01  1.50000000E+00  8.00000000E-01  8.00000000E-01
  1.50000000E+00  8.00000000E-01  8.00000000E-01  1.50000000E+00  8.00000000E-01
  8.00000000E-01  1.50000000E+00  8.00000000E-01  8.00000000E-01  1.50000000E+00
  8.00000000E-01  8.00000000E-01  1.50000000E+00  8.00000000E-01  8.00000000E-01
  1.50000000E+00  8.00000000E-01  8.00000000E-01  1.50000000E+00  8.00000000E-01
  8.00000000E-01  1.50000000E+00  8.00000000E-01  8.00000000E-01  1.50000000E+00
  8.00000000E-01  8.00000000E-01  1.50000000E+00  8.00000000E-01  8.00000000E-01
  1.50000000E+00  8.00000000E-01  8.00000000E-01  1.50000000E+00  8.00000000E-01
  8.00000000E-01  1.50000000E+00  8.00000000E-01  8.00000000E-01  1.50000000E+00
  8.00000000E-01  8.00000000E-01  1.50000000E+00  8.00000000E-01  8.00000000E-01
  1.50000000E+00  8.00000000E-01  8.00000000E-01  1.50000000E+00  8.00000000E-01
  8.00000000E-01  1.50000000E+00  8.00000000E-01  8.00000000E-01  1.50000000E+00
  8.00000000E-01  8.00000000E-01  1.50000000E+00  8.00000000E-01  8.00000000E-01
  1.50000000E+00  8.00000000E-01  8.00000000E-01  1.50000000E+00  8.00000000E-01
  8.00000000E-01  1.50000000E+00  8.00000000E-01  8.00000000E-01  1.50000000E+00
  8.00000000E-01  8.00000000E-01  1.50000000E+00  8.00000000E-01  8.00000000E-01
  1.50000000E+00  8.00000000E-01  8.00000000E-01  1.50000000E+00  8.00000000E-01
  8.00000000E-01  1.50000000E+00  8.00000000E-01  8.00000000E-01  1.50000000E+00
  8.00000000E-01  8.00000000E-01  1.50000000E+00  8.00000000E-01  8.00000000E-01
  1.50000000E+00  8.00000000E-01  8.00000000E-01  1.50000000E+00  8.00000000E-01
  8.00000000E-01  1.50000000E+00  8.00000000E-01  8.00000000E-01  1.50000000E+00
  8.00000000E-01  8.00000000E-01  1.50000000E+00  8.00000000E-01  8.00000000E-01
  1.50000000E+00  8.00000000E-01  8.00000000E-01  1.50000000E+00  8.00000000E-01
  8.00000000E-01  1.50000000E+00  8.00000000E-01  8.00000000E-01  1.50000000E+00
  8.00000000E-01  8.00000000E-01  1.50000000E+00  8.00000000E-01  8.00000000E-01
  1.50000000E+00  8.00000000E-01  8.00000000E-01  1.50000000E+00  8.00000000E-01
  8.00000000E-01  1.50000000E+00  8.00000000E-01  8.00000000E-01  1.50000000E+00
  8.00000000E-01  8.00000000E-01  1.50000000E+00  8.00000000E-01  8.00000000E-01
  1.50000000E+00  8.00000000E-01  8.00000000E-01  1.50000000E+00  8.00000000E-01
  8.00000000E-01  1.50000000E+00  8.00000000E-01  8.00000000E-01  1.50000000E+00
  8.00000000E-01  8.00000000E-01  1.50000000E+00  8.00000000E-01  8.00000000E-01
  1.50000000E+00  8.00000000E-01  8.00000000E-01  1.50000000E+00  8.00000000E-01
  8.00000000E-01  1.50000000E+00  8.00000000E-01  8.00000000E-01  1.50000000E+00
  8.00000000E-01  8.00000000E-01  1.50000000E+00  8.00000000E-01  8.00000000E-01
  1.50000000E+00  8.00000000E-01  8.00000000E-01  1.50000000E+00  8.00000000E-01
  8.00000000E-01  1.50000000E+00  8.00000000E-01  8.00000000E-01  1.50000000E+00
  8.00000000E-01  8.00000000E-01  1.50000000E+00  8.00000000E-01  8.00000000E-01
  1.50000000E+00  8.00000000E-01  8.00000000E-01  1.50000000E+00  8.00000000E-01
  8.00000000E-01  1.50000000E+00  8.00000000E-01  8.00000000E-01  1.50000000E+00
  8.00000000E-01  8.00000000E-01  1.50000000E+00  8.00000000E-01  8.00000000E-01
  1.50000000E+00  8.00000000E-01  8.00000000E-01  1.50000000E+00  8.00000000E-01
  8.00000000E-01  1.50000000E+00  8.00000000E-01  8.00000000E-01  1.50000000E+00
  8.00000000E-01  8.00000000E-01  1.50000000E+00  8.00000000E-01  8.00000000E-01
  1.50000000E+00  8.00000000E-01  8.00000000E-01  1.50000000E+00  8.00000000E-01
  8.00000000E-01  1.50000000E+00  8.00000000E-01  8.00000000E-01  1.50000000E+00
  8.00000000E-01  8.00000000E-01  1.50000000E+00  8.00000000E-01  8.00000000E-01
  1.50000000E+00  8.00000000E-01  8.00000000E-01  1.50000000E+00  8.00000000E-01
  8.00000000E-01  1.50000000E+00  8.00000000E-01  8.00000000E-01  1.50000000E+00
  8.00000000E-01  8.00000000E-01  1.50000000E+00  8.00000000E-01  8.00000000E-01
  1.50000000E+00  8.00000000E-01  8.00000000E-01  1.50000000E+00  8.00000000E-01
  8.00000000E-01  1.50000000E+00  8.00000000E-01  8.00000000E-01  1.50000000E+00
  8.00000000E-01  8.00000000E-01  1.50000000E+00  8.00000000E-01  8.00000000E-01
  1.50000000E+00  8.00000000E-01  8.00000000E-01  1.50000000E+00  8.00000000E-01
  8.00000000E-01  1.50000000E+00  8.00000000E-01  8.00000000E-01  1.50000000E+00
  8.00000000E-01  8.00000000E-01  1.50000000E+00  8.00000000E-01  8.00000000E-01
  1.50000000E+00  8.00000000E-01  8.00000000E-01  1.50000000E+00  8.00000000E-01
  8.00000000E-01  1.50000000E+00  8.00000000E-01  8.00000000E-01  1.50000000E+00
  8.00000000E-01  8.00000000E-01  1.50000000E+00  8.00000000E-01  8.00000000E-01
  1.50000000E+00  8.00000000E-01  8.00000000E-01  1.50000000E+00  8.00000000E-01
  8.00000000E-01  1.50000000E+00  8.00000000E-01  8.00000000E-01  1.50000000E+00
  8.00000000E-01  8.00000000E-01  1.50000000E+00  8.00000000E-01  8.00000000E-01
  1.50000000E+00  8.00000000E-01  8.00000000E-01  1.50000000E+00  8.00000000E-01
  8.00000000E-01  1.50000000E+00  8.00000000E-01  8.00000000E-01  1.50000000E+00
  8.00000000E-01  8.00000000E-01  1.50000000E+00  8.00000000E-01  8.00000000E-01
  1.50000000E+00  8.00000000E-01  8.00000000E-01  1.50000000E+00  8.00000000E-01
  8.00000000E-01  1.50000000E+00  8.00000000E-01  8.00000000E-01  1.50000000E+00
  8.00000000E-01  8.00000000E-01  1.50000000E+00  8.00000000E-01  8.00000000E-01
  1.50000000E+00  8.00000000E-01  8.00000000E-01  1.50000000E+00  8.00000000E-01
  8.00000000E-01  1.50000000E+00  8.00000000E-01  8.00000000E-01  1.50000000E+00
  8.00000000E-01  8.00000000E-01  1.50000000E+00  8.00000000E-01  8.00000000E-01
  1.50000000E+00  8.00000000E-01  8.00000000E-01  1.50000000E+00  8.00000000E-01
  8.00000000E-01  1.50000000E+00  8.00000000E-01  8.00000000E-01  1.50000000E+00
  8.00000000E-01  8.00000000E-01  1.50000000E+00  8.00000000E-01  8.00000000E-01
  1.50000000E+00  8.00000000E-01  8.00000000E-01  1.50000000E+00  8.00000000E-01
  8.00000000E-01  1.50000000E+00  8.00000000E-01  8.00000000E-01  1.50000000E+00
  8.00000000E-01  8.00000000E-01  1.50000000E+00  8.00000000E-01  8.00000000E-01
  1.50000000E+00  8.00000000E-01  8.00000000E-01  1.50000000E+00  8.00000000E-01
  8.00000000E-01  1.50000000E+00  8.00000000E-01  8.00000000E-01  1.50000000E+00
  8.00000000E-01  8.00000000E-01  1.50000000E+00  8.00000000E-01  8.00000000E-01
  1.50000000E+00  8.00000000E-01  8.00000000E-01  1.50000000E+00  8.00000000E-01
  8.00000000E-01  1.50000000E+00  8.00000000E-01  8.00000000E-01  1.50000000E+00
  8.00000000E-01  8.00000000E-01  1.50000000E+00  8.00000000E-01  8.00000000E-01
  1.50000000E+00  8.00000000E-01  8.00000000E-01  1.50000000E+00  8.00000000E-01
  8.00000000E-01  1.50000000E+00  8.00000000E-01  8.00000000E-01  1.50000000E+00
  8.00000000E-01  8.00000000E-01  1.50000000E+00  8.00000000E-01  8.00000000E-01
  1.50000000E+00  8.00000000E-01  8.00000000E-01  1.50000000E+00  8.00000000E-01
  8.00000000E-01  1.50000000E+00  8.00000000E-01  8.00000000E-01  1.50000000E+00
  8.00000000E-01  8.00000000E-01  1.50000000E+00  8.00000000E-01  8.00000000E-01
  1.50000000E+00  8.00000000E-01  8.00000000E-01  1.50000000E+00  8.00000000E-01
  8.00000000E-01  1.50000000E+00  8.00000000E-01  8.00000000E-01  1.50000000E+00
  8.00000000E-01  8.00000000E-01  1.50000000E+00  8.00000000E-01  8.00000000E-01
  1.50000000E+00  8.00000000E-01  8.00000000E-01  1.50000000E+00  8.00000000E-01
  8.00000000E-01  1.50000000E+00  8.00000000E-01  8.00000000E-01  1.50000000E+00
  8.00000000E-01  8.00000000E-01  1.50000000E+00  8.00000000E-01  8.00000000E-01
  1.50000000E+00  8.00000000E-01  8.00000000E-01  1.50000000E+00  8.00000000E-01
  8.00000000E-01  1.50000000E+00  8.00000000E-01  8.00000000E-01  1.50000000E+00
  8.00000000E-01  8.00000000E-01  1.50000000E+00  8.00000000E-01  8.00000000E-01
  1.50000000E+00  8.00000000E-01  8.00000000E-01  1.50000000E+00  8.00000000E-01
  8.00000000E-01  1.50000000E+00  8.00000000E-01  8.00000000E-01  1.50000000E+00
  8.00000000E-01  8.00000000E-01  1.50000000E+00  8.00000000E-01  8.00000000E-01
  1.50000000E+00  8.00000000E-01  8.00000000E-01  1.50000000E+00  8.00000000E-01
  8.00000000E-01  1.50000000E+00  8.00000000E-01  8.00000000E-01  1.50000000E+00
  8.00000000E-01  8.00000000E-01  1.50000000E+00  8.00000000E-01  8.00000000E-01
  1.50000000E+00  8.00000000E-01  8.00000000E-01  1.50000000E+00  8.00000000E-01
  8.00000000E-01  1.50000000E+00  8.00000000E-01  8.00000000E-01  1.50000000E+00
  8.00000000E-01  8.00000000E-01  1.50000000E+00  8.00000000E-01  8.00000000E-01
  1.50000000E+00  8.00000000E-01  8.00000000E-01  1.50000000E+00  8.00000000E-01
  8.00000000E-01  1.50000000E+00  8.00000000E-01  8.00000000E-01  1.50000000E+00
  8.00000000E-01  8.00000000E-01  1.50000000E+00  8.00000000E-01  8.00000000E-01
  1.50000000E+00  8.00000000E-01  8.00000000E-01  1.50000000E+00  8.00000000E-01
  8.00000000E-01  1.50000000E+00  8.00000000E-01  8.00000000E-01  1.50000000E+00
  8.00000000E-01  8.00000000E-01  1.50000000E+00  8.00000000E-01  8.00000000E-01
  1.50000000E+00  8.00000000E-01  8.00000000E-01  1.50000000E+00  8.00000000E-01
  8.00000000E-01  1.50000000E+00  8.00000000E-01  8.00000000E-01  1.50000000E+00
  8.00000000E-01  8.00000000E-01  1.50000000E+00  8.00000000E-01  8.00000000E-01
  1.50000000E+00  8.00000000E-01  8.00000000E-01  1.50000000E+00  8.00000000E-01
  8.00000000E-01  1.50000000E+00  8.00000000E-01  8.00000000E-01  1.50000000E+00
  8.00000000E-01  8.00000000E-01  1.50000000E+00  8.00000000E-01  8.00000000E-01
  1.50000000E+00  8.00000000E-01  8.00000000E-01  1.50000000E+00  8.00000000E-01
  8.00000000E-01  1.50000000E+00  8.00000000E-01  8.00000000E-01  1.50000000E+00
  8.00000000E-01  8.00000000E-01  1.50000000E+00  8.00000000E-01  8.00000000E-01
  1.50000000E+00  8.00000000E-01  8.00000000E-01  1.50000000E+00  8.00000000E-01
  8.00000000E-01  1.50000000E+00  8.00000000E-01  8.00000000E-01  1.50000000E+00
  8.00000000E-01  8.00000000E-01  1.50000000E+00  8.00000000E-01  8.00000000E-01
  1.50000000E+00  8.00000000E-01  8.00000000E-01  1.50000000E+00  8.00000000E-01
  8.00000000E-01  1.50000000E+00  8.00000000E-01  8.00000000E-01  1.50000000E+00
  8.00000000E-01  8.00000000E-01  1.50000000E+00  8.00000000E-01  8.00000000E-01
  1.50000000E+00  8.00000000E-01  8.00000000E-01  1.50000000E+00  8.00000000E-01
  8.00000000E-01  1.50000000E+00  8.00000000E-01  8.00000000E-01  1.50000000E+00
  8.00000000E-01  8.00000000E-01  1.50000000E+00  8.00000000E-01  8.00000000E-01
  1.50000000E+00  8.00000000E-01  8.00000000E-01  1.50000000E+00  8.00000000E-01
  8.00000000E-01  1.50000000E+00  8.00000000E-01  8.00000000E-01  1.50000000E+00
  8.00000000E-01  8.00000000E-01  1.50000000E+00  8.00000000E-01  8.00000000E-01
  1.50000000E+00  8.00000000E-01  8.00000000E-01  1.50000000E+00  8.00000000E-01
  8.00000000E-01  1.50000000E+00  8.00000000E-01  8.00000000E-01  1.50000000E+00
  8.00000000E-01  8.00000000E-01  1.50000000E+00  8.00000000E-01  8.00000000E-01
  1.50000000E+00  8.00000000E-01  8.00000000E-01  1.50000000E+00  8.00000000E-01
  8.00000000E-01  1.50000000E+00  8.00000000E-01  8.00000000E-01  1.50000000E+00
  8.00000000E-01  8.00000000E-01  1.50000000E+00  8.00000000E-01  8.00000000E-01
  1.50000000E+00  8.00000000E-01  8.00000000E-01  1.50000000E+00  8.00000000E-01
  8.00000000E-01  1.50000000E+00  8.00000000E-01  8.00000000E-01  1.50000000E+00
  8.00000000E-01  8.00000000E-01  1.50000000E+00  8.00000000E-01  8.00000000E-01
  1.50000000E+00  8.00000000E-01  8.00000000E-01  1.50000000E+00  8.00000000E-01
  8.00000000E-01  1.50000000E+00  8.00000000E-01  8.00000000E-01  1.50000000E+00
  8.00000000E-01  8.00000000E-01  1.50000000E+00  8.00000000E-01  8.00000000E-01
  1.50000000E+00  8.00000000E-01  8.00000000E-01  1.50000000E+00  8.00000000E-01
  8.00000000E-01  1.50000000E+00  8.00000000E-01  8.00000000E-01  1.50000000E+00
  8.00000000E-01  8.00000000E-01  1.50000000E+00  8.00000000E-01  8.00000000E-01
  1.50000000E+00  8.00000000E-01  8.00000000E-01  1.50000000E+00  8.00000000E-01
  8.00000000E-01  1.50000000E+00  8.00000000E-01  8.00000000E-01  1.50000000E+00
  8.00000000E-01  8.00000000E-01  1.50000000E+00  8.00000000E-01  8.00000000E-01
  1.50000000E+00  8.00000000E-01  8.00000000E-01  1.50000000E+00  8.00000000E-01
  8.00000000E-01  1.50000000E+00  8.00000000E-01  8.00000000E-01  1.50000000E+00
  8.00000000E-01  8.00000000E-01  1.50000000E+00  8.00000000E-01  8.00000000E-01
  1.50000000E+00  8.00000000E-01  8.00000000E-01  1.50000000E+00  8.00000000E-01
  8.00000000E-01  1.50000000E+00  8.00000000E-01  8.00000000E-01  1.50000000E+00
  8.00000000E-01  8.00000000E-01  1.50000000E+00  8.00000000E-01  8.00000000E-01
  1.50000000E+00  8.00000000E-01  8.00000000E-01  1.50000000E+00  8.00000000E-01
  8.00000000E-01  1.50000000E+00  8.00000000E-01  8.00000000E-01  1.50000000E+00
  8.00000000E-01  8.00000000E-01  1.50000000E+00  8.00000000E-01  8.00000000E-01
  1.50000000E+00  8.00000000E-01  8.00000000E-01  1.50000000E+00  8.00000000E-01
  8.00000000E-01  1.50000000E+00  8.00000000E-01  8.00000000E-01  1.50000000E+00
  8.00000000E-01  8.00000000E-01  1.50000000E+00  8.00000000E-01  8.00000000E-01
  1.50000000E+00  8.00000000E-01  8.00000000E-01  1.50000000E+00  8.00000000E-01
  8.00000000E-01  1.50000000E+00  8.00000000E-01  8.00000000E-01  1.50000000E+00
  8.00000000E-01  8.00000000E-01  1.50000000E+00  8.00000000E-01  8.00000000E-01
  1.50000000E+00  8.00000000E-01  8.00000000E-01  1.50000000E+00  8.00000000E-01
  8.00000000E-01  1.50000000E+00  8.00000000E-01  8.00000000E-01  1.50000000E+00
  8.00000000E-01  8.00000000E-01  1.50000000E+00  8.00000000E-01  8.00000000E-01
  1.50000000E+00  8.00000000E-01  8.00000000E-01  1.50000000E+00  8.00000000E-01
  8.00000000E-01  1.50000000E+00  8.00000000E-01  8.00000000E-01  1.50000000E+00
  8.00000000E-01  8.00000000E-01  1.50000000E+00  8.00000000E-01  8.00000000E-01
  1.50000000E+00  8.00000000E-01  8.00000000E-01  1.50000000E+00  8.00000000E-01
  8.00000000E-01  1.50000000E+00  8.00000000E-01  8.00000000E-01  1.50000000E+00
  8.00000000E-01  8.00000000E-01  1.50000000E+00  8.00000000E-01  8.00000000E-01
  1.50000000E+00  8.00000000E-01  8.00000000E-01  1.50000000E+00  8.00000000E-01
  8.00000000E-01  1.50000000E+00  8.00000000E-01  8.00000000E-01  1.50000000E+00
  8.00000000E-01  8.00000000E-01  1.50000000E+00  8.00000000E-01  8.00000000E-01
  1.50000000E+00  8.00000000E-01  8.00000000E-01  1.50000000E+00  8.00000000E-01
  8.00000000E-01  1.50000000E+00  8.00000000E-01  8.00000000E-01  1.50000000E+00
  8.00000000E-01  8.00000000E-01  1.50000000E+00  8.00000000E-01  8.00000000E-01
  1.50000000E+00  8.00000000E-01  8.00000000E-01  1.50000000E+00  8.00000000E-01
  8.00000000E-01  1.50000000E+00  8.00000000E-01  8.00000000E-01  1.50000000E+00
  8.00000000E-01  8.00000000E-01  1.50000000E+00  8.00000000E-01  8.00000000E-01
  1.50000000E+00  8.00000000E-01  8.00000000E-01  1.50000000E+00  8.00000000E-01
  8.00000000E-01  1.50000000E+00  8.00000000E-01  8.00000000E-01  1.50000000E+00
  8.00000000E-01  8.00000000E-01  1.50000000E+00  8.00000000E-01  8.00000000E-01
  1.50000000E+00  8.00000000E-01  8.00000000E-01  1.50000000E+00  8.00000000E-01
  8.00000000E-01  1.50000000E+00  8.00000000E-01  8.00000000E-01  1.50000000E+00
  8.00000000E-01  8.00000000E-01  1.50000000E+00  8.00000000E-01  8.00000000E-01
  1.50000000E+00  8.00000000E-01  8.00000000E-01  1.50000000E+00  8.00000000E-01
  8.00000000E-01  1.50000000E+00  8.00000000E-01  8.00000000E-01  1.50000000E+00
  8.00000000E-01  8.00000000E-01  1.50000000E+00  8.00000000E-01  8.00000000E-01
  1.50000000E+00  8.00000000E-01  8.00000000E-01  1.50000000E+00  8.00000000E-01
  8.00000000E-01  1.50000000E+00  8.00000000E-01  8.00000000E-01  1.50000000E+00
  8.00000000E-01  8.00000000E-01  1.50000000E+00  8.00000000E-01  8.00000000E-01
  1.50000000E+00  8.00000000E-01  8.00000000E-01  1.50000000E+00  8.00000000E-01
  8.00000000E-01  1.50000000E+00  8.00000000E-01  8.00000000E-01  1.50000000E+00
  8.00000000E-01  8.00000000E-01  1.50000000E+00  8.00000000E-01  8.00000000E-01
  1.50000000E+00  8.00000000E-01  8.00000000E-01  1.50000000E+00  8.00000000E-01
  8.00000000E-01  1.50000000E+00  8.00000000E-01  8.00000000E-01  1.50000000E+00
  8.00000000E-01  8.00000000E-01  1.50000000E+00  8.00000000E-01  8.00000000E-01
  1.50000000E+00  8.00000000E-01  8.00000000E-01  1.50000000E+00  8.00000000E-01
  8.00000000E-01  1.50000000E+00  8.00000000E-01  8.00000000E-01  1.50000000E+00
  8.00000000E-01  8.00000000E-01  1.50000000E+00  8.00000000E-01  8.00000000E-01
  1.50000000E+00  8.00000000E-01  8.00000000E-01  1.50000000E+00  8.00000000E-01
  8.00000000E-01  1.50000000E+00  8.00000000E-01  8.00000000E-01  1.50000000E+00
  8.00000000E-01  8.00000000E-01  1.50000000E+00  8.00000000E-01  8.00000000E-01
  1.50000000E+00  8.00000000E-01  8.00000000E-01  1.50000000E+00  8.00000000E-01
  8.00000000E-01  1.50000000E+00  8.00000000E-01  8.00000000E-01  1.50000000E+00
  8.00000000E-01  8.00000000E-01  1.50000000E+00  8.00000000E-01  8.00000000E-01
  1.50000000E+00  8.00000000E-01  8.00000000E-01  1.50000000E+00  8.00000000E-01
  8.00000000E-01  1.50000000E+00  8.00000000E-01  8.00000000E-01  1.50000000E+00
  8.00000000E-01  8.00000000E-01  1.50000000E+00  8.00000000E-01  8.00000000E-01
  1.50000000E+00  8.00000000E-01  8.00000000E-01  1.50000000E+00  8.00000000E-01
  8.00000000E-01  1.50000000E+00  8.00000000E-01  8.00000000E-01  1.50000000E+00
  8.00000000E-01  8.00000000E-01  1.50000000E+00  8.00000000E-01  8.00000000E-01
  1.50000000E+00  8.00000000E-01  8.00000000E-01  1.50000000E+00  8.00000000E-01
  8.00000000E-01  1.50000000E+00  8.00000000E-01  8.00000000E-01  1.50000000E+00
  8.00000000E-01  8.00000000E-01  1.50000000E+00  8.00000000E-01  8.00000000E-01
  1.50000000E+00  8.00000000E-01  8.00000000E-01  1.50000000E+00  8.00000000E-01
  8.00000000E-01  1.50000000E+00  8.00000000E-01  8.00000000E-01  1.50000000E+00
  8.00000000E-01  8.00000000E-01  1.50000000E+00  8.00000000E-01  8.00000000E-01
  1.50000000E+00  8.00000000E-01  8.00000000E-01  1.50000000E+00  8.00000000E-01
  8.00000000E-01  1.50000000E+00  8.00000000E-01  8.00000000E-01  1.50000000E+00
  8.00000000E-01  8.00000000E-01  1.50000000E+00  8.00000000E-01  8.00000000E-01
  1.50000000E+00  8.00000000E-01  8.00000000E-01  1.50000000E+00  8.00000000E-01
  8.00000000E-01  1.50000000E+00  8.00000000E-01  8.00000000E-01  1.50000000E+00
  8.00000000E-01  8.00000000E-01  1.50000000E+00  8.00000000E-01  8.00000000E-01
  1.50000000E+00  8.00000000E-01  8.00000000E-01  1.50000000E+00  8.00000000E-01
  8.00000000E-01  1.50000000E+00  8.00000000E-01  8.00000000E-01  1.50000000E+00
  8.00000000E-01  8.00000000E-01  1.50000000E+00  8.00000000E-01  8.00000000E-01
  1.50000000E+00  8.00000000E-01  8.00000000E-01  1.50000000E+00  8.00000000E-01
  8.00000000E-01  1.50000000E+00  8.00000000E-01  8.00000000E-01  1.50000000E+00
  8.00000000E-01  8.00000000E-01  1.50000000E+00  8.00000000E-01  8.00000000E-01
  1.50000000E+00  8.00000000E-01  8.00000000E-01  1.50000000E+00  8.00000000E-01
  8.00000000E-01  1.50000000E+00  8.00000000E-01  8.00000000E-01  1.50000000E+00
  8.00000000E-01  8.00000000E-01  1.50000000E+00  8.00000000E-01  8.00000000E-01
  1.50000000E+00  8.00000000E-01  8.00000000E-01  1.50000000E+00  8.00000000E-01
  8.00000000E-01  1.50000000E+00  8.00000000E-01  8.00000000E-01  1.50000000E+00
  8.00000000E-01  8.00000000E-01  1.50000000E+00  8.00000000E-01  8.00000000E-01
  1.50000000E+00  8.00000000E-01  8.00000000E-01  1.50000000E+00  8.00000000E-01
  8.00000000E-01  1.50000000E+00  8.00000000E-01  8.00000000E-01  1.50000000E+00
  8.00000000E-01  8.00000000E-01  1.50000000E+00  8.00000000E-01  8.00000000E-01
  1.50000000E+00  8.00000000E-01  8.00000000E-01  1.50000000E+00  8.00000000E-01
  8.00000000E-01  1.50000000E+00  8.00000000E-01  8.00000000E-01  1.50000000E+00
  8.00000000E-01  8.00000000E-01  1.50000000E+00  8.00000000E-01  8.00000000E-01
  1.50000000E+00  8.00000000E-01  8.00000000E-01  1.50000000E+00  8.00000000E-01
  8.00000000E-01  1.50000000E+00  8.00000000E-01  8.00000000E-01  1.50000000E+00
  8.00000000E-01  8.00000000E-01  1.50000000E+00  8.00000000E-01  8.00000000E-01
  1.50000000E+00  8.00000000E-01  8.00000000E-01  1.50000000E+00  8.00000000E-01
  8.00000000E-01  1.50000000E+00  8.00000000E-01  8.00000000E-01  1.50000000E+00
  8.00000000E-01  8.00000000E-01  1.50000000E+00  8.00000000E-01  8.00000000E-01
  1.50000000E+00  8.00000000E-01  8.00000000E-01  1.50000000E+00  8.00000000E-01
  8.00000000E-01  1.50000000E+00  8.00000000E-01  8.00000000E-01  1.50000000E+00
  8.00000000E-01  8.00000000E-01  1.50000000E+00  8.00000000E-01  8.00000000E-01
  1.50000000E+00  8.00000000E-01  8.00000000E-01  1.50000000E+00  8.00000000E-01
  8.00000000E-01  1.50000000E+00  8.00000000E-01  8.00000000E-01  1.50000000E+00
  8.00000000E-01  8.00000000E-01  1.50000000E+00  8.00000000E-01  8.00000000E-01
  1.50000000E+00  8.00000000E-01  8.00000000E-01  1.50000000E+00  8.00000000E-01
  8.00000000E-01  1.50000000E+00  8.00000000E-01  8.00000000E-01  1.50000000E+00
  8.00000000E-01  8.00000000E-01  1.50000000E+00  8.00000000E-01  8.00000000E-01
  1.50000000E+00  8.00000000E-01  8.00000000E-01  1.50000000E+00  8.00000000E-01
  8.00000000E-01  1.50000000E+00  8.00000000E-01  8.00000000E-01  1.50000000E+00
  8.00000000E-01  8.00000000E-01  1.50000000E+00  8.00000000E-01  8.00000000E-01
  1.50000000E+00  8.00000000E-01  8.00000000E-01  1.50000000E+00  8.00000000E-01
  8.00000000E-01  1.50000000E+00  8.00000000E-01  8.00000000E-01  1.50000000E+00
  8.00000000E-01  8.00000000E-01  1.50000000E+00  8.00000000E-01  8.00000000E-01
  1.50000000E+00  8.00000000E-01  8.00000000E-01  1.50000000E+00  8.00000000E-01
  8.00000000E-01  1.50000000E+00  8.00000000E-01  8.00000000E-01  1.50000000E+00
  8.00000000E-01  8.00000000E-01  1.50000000E+00  8.00000000E-01  8.00000000E-01
  1.50000000E+00  8.00000000E-01  8.00000000E-01  1.50000000E+00  8.00000000E-01
  8.00000000E-01  1.50000000E+00  8.00000000E-01  8.00000000E-01  1.50000000E+00
  8.00000000E-01  8.00000000E-01  1.50000000E+00  8.00000000E-01  8.00000000E-01
  1.50000000E+00  8.00000000E-01  8.00000000E-01  1.50000000E+00  8.00000000E-01
  8.00000000E-01  1.50000000E+00  8.00000000E-01  8.00000000E-01  1.50000000E+00
  8.00000000E-01  8.00000000E-01  1.50000000E+00  8.00000000E-01  8.00000000E-01
  1.50000000E+00  8.00000000E-01  8.00000000E-01  1.50000000E+00  8.00000000E-01
  8.00000000E-01  1.50000000E+00  8.00000000E-01  8.00000000E-01  1.50000000E+00
  8.00000000E-01  8.00000000E-01  1.50000000E+00  8.00000000E-01  8.00000000E-01
  1.50000000E+00  8.00000000E-01  8.00000000E-01  1.50000000E+00  8.00000000E-01
  8.00000000E-01  1.50000000E+00  8.00000000E-01  8.00000000E-01  1.50000000E+00
  8.00000000E-01  8.00000000E-01  1.50000000E+00  8.00000000E-01  8.00000000E-01
  1.50000000E+00  8.00000000E-01  8.00000000E-01  1.50000000E+00  8.00000000E-01
  8.00000000E-01  1.50000000E+00  8.00000000E-01  8.00000000E-01  1.50000000E+00
  8.00000000E-01  8.00000000E-01  1.50000000E+00  8.00000000E-01  8.00000000E-01
  1.50000000E+00  8.00000000E-01  8.00000000E-01  1.50000000E+00  8.00000000E-01
  8.00000000E-01  1.50000000E+00  8.00000000E-01  8.00000000E-01  1.50000000E+00
  8.00000000E-01  8.00000000E-01  1.50000000E+00  8.00000000E-01  8.00000000E-01
  1.50000000E+00  8.00000000E-01  8.00000000E-01  1.50000000E+00  8.00000000E-01
  8.00000000E-01  1.50000000E+00  8.00000000E-01  8.00000000E-01  1.50000000E+00
  8.00000000E-01  8.00000000E-01  1.50000000E+00  8.00000000E-01  8.00000000E-01
  1.50000000E+00  8.00000000E-01  8.00000000E-01  1.50000000E+00  8.00000000E-01
  8.00000000E-01  1.50000000E+00  8.00000000E-01  8.00000000E-01  1.50000000E+00
  8.00000000E-01  8.00000000E-01  1.50000000E+00  8.00000000E-01  8.00000000E-01
  1.50000000E+00  8.00000000E-01  8.00000000E-01  1.50000000E+00  8.00000000E-01
  8.00000000E-01  1.50000000E+00  8.00000000E-01  8.00000000E-01  1.50000000E+00
  8.00000000E-01  8.00000000E-01  1.50000000E+00  8.00000000E-01  8.00000000E-01
  1.50000000E+00  8.00000000E-01  8.00000000E-01  1.50000000E+00  8.00000000E-01
  8.00000000E-01  1.50000000E+00  8.00000000E-01  8.00000000E-01  1.50000000E+00
  8.00000000E-01  8.00000000E-01  1.50000000E+00  8.00000000E-01  8.00000000E-01
  1.50000000E+00  8.00000000E-01  8.00000000E-01  1.50000000E+00  8.00000000E-01
  8.00000000E-01  1.50000000E+00  8.00000000E-01  8.00000000E-01  1.50000000E+00
  8.00000000E-01  8.00000000E-01  1.50000000E+00  8.00000000E-01  8.00000000E-01
  1.50000000E+00  8.00000000E-01  8.00000000E-01  1.50000000E+00  8.00000000E-01
  8.00000000E-01  1.50000000E+00  8.00000000E-01  8.00000000E-01  1.50000000E+00
  8.00000000E-01  8.00000000E-01  1.50000000E+00  8.00000000E-01  8.00000000E-01
  1.50000000E+00  8.00000000E-01  8.00000000E-01  1.50000000E+00  8.00000000E-01
  8.00000000E-01  1.50000000E+00  8.00000000E-01  8.00000000E-01  1.50000000E+00
  8.00000000E-01  8.00000000E-01  1.50000000E+00  8.00000000E-01  8.00000000E-01
  1.50000000E+00  8.00000000E-01  8.00000000E-01  1.50000000E+00  8.00000000E-01
  8.00000000E-01  1.50000000E+00  8.00000000E-01  8.00000000E-01  1.50000000E+00
  8.00000000E-01  8.00000000E-01  1.50000000E+00  8.00000000E-01  8.00000000E-01
  1.50000000E+00  8.00000000E-01  8.00000000E-01  1.50000000E+00  8.00000000E-01
  8.00000000E-01  1.50000000E+00  8.00000000E-01  8.00000000E-01  1.50000000E+00
  8.00000000E-01  8.00000000E-01  1.50000000E+00  8.00000000E-01  8.00000000E-01
  1.50000000E+00  8.00000000E-01  8.00000000E-01  1.50000000E+00  8.00000000E-01
  8.00000000E-01  1.50000000E+00  8.00000000E-01  8.00000000E-01  1.50000000E+00
  8.00000000E-01  8.00000000E-01  1.50000000E+00  8.00000000E-01  8.00000000E-01
  1.50000000E+00  8.00000000E-01  8.00000000E-01  1.50000000E+00  8.00000000E-01
  8.00000000E-01  1.50000000E+00  8.00000000E-01  8.00000000E-01  1.50000000E+00
  8.00000000E-01  8.00000000E-01  1.50000000E+00  8.00000000E-01  8.00000000E-01
  1.50000000E+00  8.00000000E-01  8.00000000E-01  1.50000000E+00  8.00000000E-01
  8.00000000E-01  1.50000000E+00  8.00000000E-01  8.00000000E-01  1.50000000E+00
  8.00000000E-01  8.00000000E-01  1.50000000E+00  8.00000000E-01  8.00000000E-01
  1.50000000E+00  8.00000000E-01  8.00000000E-01  1.50000000E+00  8.00000000E-01
  8.00000000E-01  1.50000000E+00  8.00000000E-01  8.00000000E-01  1.50000000E+00
  8.00000000E-01  8.00000000E-01  1.50000000E+00  8.00000000E-01  8.00000000E-01
  1.50000000E+00  8.00000000E-01  8.00000000E-01  1.50000000E+00  8.00000000E-01
  8.00000000E-01  1.50000000E+00  8.00000000E-01  8.00000000E-01  1.50000000E+00
  8.00000000E-01  8.00000000E-01  1.50000000E+00  8.00000000E-01  8.00000000E-01
  1.50000000E+00  8.00000000E-01  8.00000000E-01  1.50000000E+00  8.00000000E-01
  8.00000000E-01  1.50000000E+00  8.00000000E-01  8.00000000E-01  1.50000000E+00
  8.00000000E-01  8.00000000E-01  1.50000000E+00  8.00000000E-01  8.00000000E-01
  1.50000000E+00  8.00000000E-01  8.00000000E-01  1.50000000E+00  8.00000000E-01
  8.00000000E-01  1.50000000E+00  8.00000000E-01  8.00000000E-01  1.50000000E+00
  8.00000000E-01  8.00000000E-01  1.50000000E+00  8.00000000E-01  8.00000000E-01
  1.50000000E+00  8.00000000E-01  8.00000000E-01  1.50000000E+00  8.00000000E-01
  8.00000000E-01  1.50000000E+00  8.00000000E-01  8.00000000E-01  1.50000000E+00
  8.00000000E-01  8.00000000E-01  1.50000000E+00  8.00000000E-01  8.00000000E-01
  1.50000000E+00  8.00000000E-01  8.00000000E-01  1.50000000E+00  8.00000000E-01
  8.00000000E-01  1.50000000E+00  8.00000000E-01  8.00000000E-01  1.50000000E+00
  8.00000000E-01  8.00000000E-01  1.50000000E+00  8.00000000E-01  8.00000000E-01
  1.50000000E+00  8.00000000E-01  8.00000000E-01  1.50000000E+00  8.00000000E-01
  8.00000000E-01  1.50000000E+00  8.00000000E-01  8.00000000E-01  1.50000000E+00
  8.00000000E-01  8.00000000E-01  1.50000000E+00  8.00000000E-01  8.00000000E-01
  1.50000000E+00  8.00000000E-01  8.00000000E-01  1.50000000E+00  8.00000000E-01
  8.00000000E-01  1.50000000E+00  8.00000000E-01  8.00000000E-01  1.50000000E+00
  8.00000000E-01  8.00000000E-01  1.50000000E+00  8.00000000E-01  8.00000000E-01
  1.50000000E+00  8.00000000E-01  8.00000000E-01  1.50000000E+00  8.00000000E-01
  8.00000000E-01  1.50000000E+00  8.00000000E-01  8.00000000E-01  1.50000000E+00
  8.00000000E-01  8.00000000E-01  1.50000000E+00  8.00000000E-01  8.00000000E-01
  1.50000000E+00  8.00000000E-01  8.00000000E-01  1.50000000E+00  8.00000000E-01
  8.00000000E-01  1.50000000E+00  8.00000000E-01  8.00000000E-01  1.50000000E+00
  8.00000000E-01  8.00000000E-01  1.50000000E+00  8.00000000E-01  8.00000000E-01
  1.50000000E+00  8.00000000E-01  8.00000000E-01  1.50000000E+00  8.00000000E-01
  8.00000000E-01  1.50000000E+00  8.00000000E-01  8.00000000E-01  1.50000000E+00
  8.00000000E-01  8.00000000E-01  1.50000000E+00  8.00000000E-01  8.00000000E-01
  1.50000000E+00  8.00000000E-01  8.00000000E-01  1.50000000E+00  8.00000000E-01
  8.00000000E-01  1.50000000E+00  8.00000000E-01  8.00000000E-01  1.50000000E+00
  8.00000000E-01  8.00000000E-01  1.50000000E+00  8.00000000E-01  8.00000000E-01
  1.50000000E+00  8.00000000E-01  8.00000000E-01  1.50000000E+00  8.00000000E-01
  8.00000000E-01  1.50000000E+00  8.00000000E-01  8.00000000E-01  1.50000000E+00
  8.00000000E-01  8.00000000E-01  1.50000000E+00  8.00000000E-01  8.00000000E-01
  1.50000000E+00  8.00000000E-01  8.00000000E-01  1.50000000E+00  8.00000000E-01
  8.00000000E-01  1.50000000E+00  8.00000000E-01  8.00000000E-01  1.50000000E+00
  8.00000000E-01  8.00000000E-01  1.50000000E+00  8.00000000E-01  8.00000000E-01
  1.50000000E+00  8.00000000E-01  8.00000000E-01  1.50000000E+00  8.00000000E-01
  8.00000000E-01  1.50000000E+00  8.00000000E-01  8.00000000E-01  1.50000000E+00
  8.00000000E-01  8.00000000E-01  1.50000000E+00  8.00000000E-01  8.00000000E-01
  1.50000000E+00  8.00000000E-01  8.00000000E-01  1.50000000E+00  8.00000000E-01
  8.00000000E-01  1.50000000E+00  8.00000000E-01  8.00000000E-01  1.50000000E+00
  8.00000000E-01  8.00000000E-01  1.50000000E+00  8.00000000E-01  8.00000000E-01
  1.50000000E+00  8.00000000E-01  8.00000000E-01  1.50000000E+00  8.00000000E-01
  8.00000000E-01  1.50000000E+00  8.00000000E-01  8.00000000E-01  1.50000000E+00
  8.00000000E-01  8.00000000E-01  1.50000000E+00  8.00000000E-01  8.00000000E-01
  1.50000000E+00  8.00000000E-01  8.00000000E-01  1.50000000E+00  8.00000000E-01
  8.00000000E-01  1.50000000E+00  8.00000000E-01  8.00000000E-01  1.50000000E+00
  8.00000000E-01  8.00000000E-01  1.50000000E+00  8.00000000E-01  8.00000000E-01
  1.50000000E+00  8.00000000E-01  8.00000000E-01  1.50000000E+00  8.00000000E-01
  8.00000000E-01  1.50000000E+00  8.00000000E-01  8.00000000E-01  1.50000000E+00
  8.00000000E-01  8.00000000E-01  1.50000000E+00  8.00000000E-01  8.00000000E-01
  1.50000000E+00  8.00000000E-01  8.00000000E-01  1.50000000E+00  8.00000000E-01
  8.00000000E-01  1.50000000E+00  8.00000000E-01  8.00000000E-01  1.50000000E+00
  8.00000000E-01  8.00000000E-01  1.50000000E+00  8.00000000E-01  8.00000000E-01
  1.50000000E+00  8.00000000E-01  8.00000000E-01  1.50000000E+00  8.00000000E-01
  8.00000000E-01  1.50000000E+00  8.00000000E-01  8.00000000E-01  1.50000000E+00
  8.00000000E-01  8.00000000E-01  1.50000000E+00  8.00000000E-01  8.00000000E-01
  1.50000000E+00  8.00000000E-01  8.00000000E-01  1.50000000E+00  8.00000000E-01
  8.00000000E-01  1.50000000E+00  8.00000000E-01  8.00000000E-01  1.50000000E+00
  8.00000000E-01  8.00000000E-01  1.50000000E+00  8.00000000E-01  8.00000000E-01
  1.50000000E+00  8.00000000E-01  8.00000000E-01  1.50000000E+00  8.00000000E-01
  8.00000000E-01  1.50000000E+00  8.00000000E-01  8.00000000E-01  1.50000000E+00
  8.00000000E-01  8.00000000E-01  1.50000000E+00  8.00000000E-01  8.00000000E-01
  1.50000000E+00  8.00000000E-01  8.00000000E-01  1.50000000E+00  8.00000000E-01
  8.00000000E-01  1.50000000E+00  8.00000000E-01  8.00000000E-01  1.50000000E+00
  8.00000000E-01  8.00000000E-01  1.50000000E+00  8.00000000E-01  8.00000000E-01
  1.50000000E+00  8.00000000E-01  8.00000000E-01  1.50000000E+00  8.00000000E-01
  8.00000000E-01  1.50000000E+00  8.00000000E-01  8.00000000E-01  1.50000000E+00
  8.00000000E-01  8.00000000E-01  1.50000000E+00  8.00000000E-01  8.00000000E-01
  1.50000000E+00  8.00000000E-01  8.00000000E-01  1.50000000E+00  8.00000000E-01
  8.00000000E-01  1.50000000E+00  8.00000000E-01  8.00000000E-01  1.50000000E+00
  8.00000000E-01  8.00000000E-01  1.50000000E+00  8.00000000E-01  8.00000000E-01
  1.50000000E+00  8.00000000E-01  8.00000000E-01  1.50000000E+00  8.00000000E-01
  8.00000000E-01  1.50000000E+00  8.00000000E-01  8.00000000E-01  1.50000000E+00
  8.00000000E-01  8.00000000E-01  1.50000000E+00  8.00000000E-01  8.00000000E-01
  1.50000000E+00  8.00000000E-01  8.00000000E-01  1.50000000E+00  8.00000000E-01
  8.00000000E-01  1.50000000E+00  8.00000000E-01  8.00000000E-01  1.50000000E+00
  8.00000000E-01  8.00000000E-01  1.50000000E+00  8.00000000E-01  8.00000000E-01
  1.50000000E+00  8.00000000E-01  8.00000000E-01  1.50000000E+00  8.00000000E-01
  8.00000000E-01  1.50000000E+00  8.00000000E-01  8.00000000E-01  1.50000000E+00
  8.00000000E-01  8.00000000E-01  1.50000000E+00  8.00000000E-01  8.00000000E-01
  1.50000000E+00  8.00000000E-01  8.00000000E-01  1.50000000E+00  8.00000000E-01
  8.00000000E-01  1.50000000E+00  8.00000000E-01  8.00000000E-01  1.50000000E+00
  8.00000000E-01  8.00000000E-01  1.50000000E+00  8.00000000E-01  8.00000000E-01
  1.50000000E+00  8.00000000E-01  8.00000000E-01  1.50000000E+00  8.00000000E-01
  8.00000000E-01  1.50000000E+00  8.00000000E-01  8.00000000E-01  1.50000000E+00
  8.00000000E-01  8.00000000E-01  1.50000000E+00  8.00000000E-01  8.00000000E-01
  1.50000000E+00  8.00000000E-01  8.00000000E-01  1.50000000E+00  8.00000000E-01
  8.00000000E-01  1.50000000E+00  8.00000000E-01  8.00000000E-01  1.50000000E+00
  8.00000000E-01  8.00000000E-01  1.50000000E+00  8.00000000E-01  8.00000000E-01
  1.50000000E+00  8.00000000E-01  8.00000000E-01  1.50000000E+00  8.00000000E-01
  8.00000000E-01  1.50000000E+00  8.00000000E-01  8.00000000E-01  1.50000000E+00
  8.00000000E-01  8.00000000E-01  1.50000000E+00  8.00000000E-01  8.00000000E-01
  1.50000000E+00  8.00000000E-01  8.00000000E-01  1.50000000E+00  8.00000000E-01
  8.00000000E-01  1.50000000E+00  8.00000000E-01  8.00000000E-01  1.50000000E+00
  8.00000000E-01  8.00000000E-01  1.50000000E+00  8.00000000E-01  8.00000000E-01
  1.50000000E+00  8.00000000E-01  8.00000000E-01  1.50000000E+00  8.00000000E-01
  8.00000000E-01  1.50000000E+00  8.00000000E-01  8.00000000E-01  1.50000000E+00
  8.00000000E-01  8.00000000E-01  1.50000000E+00  8.00000000E-01  8.00000000E-01
  1.50000000E+00  8.00000000E-01  8.00000000E-01  1.50000000E+00  8.00000000E-01
  8.00000000E-01  1.50000000E+00  8.00000000E-01  8.00000000E-01  1.50000000E+00
  8.00000000E-01  8.00000000E-01  1.50000000E+00  8.00000000E-01  8.00000000E-01
  1.50000000E+00  8.00000000E-01  8.00000000E-01  1.50000000E+00  8.00000000E-01
  8.00000000E-01  1.50000000E+00  8.00000000E-01  8.00000000E-01  1.50000000E+00
  8.00000000E-01  8.00000000E-01  1.50000000E+00  8.00000000E-01  8.00000000E-01
  1.50000000E+00  8.00000000E-01  8.00000000E-01  1.50000000E+00  8.00000000E-01
  8.00000000E-01  1.50000000E+00  8.00000000E-01  8.00000000E-01  1.50000000E+00
  8.00000000E-01  8.00000000E-01  1.50000000E+00  8.00000000E-01  8.00000000E-01
  1.50000000E+00  8.00000000E-01  8.00000000E-01  1.50000000E+00  8.00000000E-01
  8.00000000E-01  1.50000000E+00  8.00000000E-01  8.00000000E-01  1.50000000E+00
  8.00000000E-01  8.00000000E-01  1.50000000E+00  8.00000000E-01  8.00000000E-01
  1.50000000E+00  8.00000000E-01  8.00000000E-01  1.50000000E+00  8.00000000E-01
  8.00000000E-01  1.50000000E+00  8.00000000E-01  8.00000000E-01  1.50000000E+00
  8.00000000E-01  8.00000000E-01  1.50000000E+00  8.00000000E-01  8.00000000E-01
  1.50000000E+00  8.00000000E-01  8.00000000E-01  1.50000000E+00  8.00000000E-01
  8.00000000E-01  1.50000000E+00  8.00000000E-01  8.00000000E-01  1.50000000E+00
  8.00000000E-01  8.00000000E-01  1.50000000E+00  8.00000000E-01  8.00000000E-01
  1.50000000E+00  8.00000000E-01  8.00000000E-01  1.50000000E+00  8.00000000E-01
  8.00000000E-01  1.50000000E+00  8.00000000E-01  8.00000000E-01  1.50000000E+00
  8.00000000E-01  8.00000000E-01  1.50000000E+00  8.00000000E-01  8.00000000E-01
  1.50000000E+00  8.00000000E-01  8.00000000E-01  1.50000000E+00  8.00000000E-01
  8.00000000E-01  1.50000000E+00  8.00000000E-01  8.00000000E-01  1.50000000E+00
  8.00000000E-01  8.00000000E-01  1.50000000E+00  8.00000000E-01  8.00000000E-01
  1.50000000E+00  8.00000000E-01  8.00000000E-01  1.50000000E+00  8.00000000E-01
  8.00000000E-01  1.50000000E+00  8.00000000E-01  8.00000000E-01  1.50000000E+00
  8.00000000E-01  8.00000000E-01  1.50000000E+00  8.00000000E-01  8.00000000E-01
  1.50000000E+00  8.00000000E-01  8.00000000E-01  1.50000000E+00  8.00000000E-01
  8.00000000E-01  1.50000000E+00  8.00000000E-01  8.00000000E-01  1.50000000E+00
  8.00000000E-01  8.00000000E-01  1.50000000E+00  8.00000000E-01  8.00000000E-01
  1.50000000E+00  8.00000000E-01  8.00000000E-01  1.50000000E+00  8.00000000E-01
  8.00000000E-01  1.50000000E+00  8.00000000E-01  8.00000000E-01  1.50000000E+00
  8.00000000E-01  8.00000000E-01  1.50000000E+00  8.00000000E-01  8.00000000E-01
  1.50000000E+00  8.00000000E-01  8.00000000E-01  1.50000000E+00  8.00000000E-01
  8.00000000E-01  1.50000000E+00  8.00000000E-01  8.00000000E-01  1.50000000E+00
  8.00000000E-01  8.00000000E-01  1.50000000E+00  8.00000000E-01  8.00000000E-01
  1.50000000E+00  8.00000000E-01  8.00000000E-01  1.50000000E+00  8.00000000E-01
  8.00000000E-01  1.50000000E+00  8.00000000E-01  8.00000000E-01  1.50000000E+00
  8.00000000E-01  8.00000000E-01  1.50000000E+00  8.00000000E-01  8.00000000E-01
  1.50000000E+00  8.00000000E-01  8.00000000E-01  1.50000000E+00  8.00000000E-01
  8.00000000E-01  1.50000000E+00  8.00000000E-01  8.00000000E-01  1.50000000E+00
  8.00000000E-01  8.00000000E-01  1.50000000E+00  8.00000000E-01  8.00000000E-01
  1.50000000E+00  8.00000000E-01  8.00000000E-01  1.50000000E+00  8.00000000E-01
  8.00000000E-01  1.50000000E+00  8.00000000E-01  8.00000000E-01  1.50000000E+00
  8.00000000E-01  8.00000000E-01  1.50000000E+00  8.00000000E-01  8.00000000E-01
  1.50000000E+00  8.00000000E-01  8.00000000E-01  1.50000000E+00  8.00000000E-01
  8.00000000E-01  1.50000000E+00  8.00000000E-01  8.00000000E-01  1.50000000E+00
  8.00000000E-01  8.00000000E-01  1.50000000E+00  8.00000000E-01  8.00000000E-01
  1.50000000E+00  8.00000000E-01  8.00000000E-01  1.50000000E+00  8.00000000E-01
  8.00000000E-01  1.50000000E+00  8.00000000E-01  8.00000000E-01  1.50000000E+00
  8.00000000E-01  8.00000000E-01  1.50000000E+00  8.00000000E-01  8.00000000E-01
  1.50000000E+00  8.00000000E-01  8.00000000E-01  1.50000000E+00  8.00000000E-01
  8.00000000E-01  1.50000000E+00  8.00000000E-01  8.00000000E-01  1.50000000E+00
  8.00000000E-01  8.00000000E-01  1.50000000E+00  8.00000000E-01  8.00000000E-01
  1.50000000E+00  8.00000000E-01  8.00000000E-01  1.50000000E+00  8.00000000E-01
  8.00000000E-01  1.50000000E+00  8.00000000E-01  8.00000000E-01  1.50000000E+00
  8.00000000E-01  8.00000000E-01  1.50000000E+00  8.00000000E-01  8.00000000E-01
  1.50000000E+00  8.00000000E-01  8.00000000E-01  1.50000000E+00  8.00000000E-01
  8.00000000E-01  1.50000000E+00  8.00000000E-01  8.00000000E-01  1.50000000E+00
  8.00000000E-01  8.00000000E-01  1.50000000E+00  8.00000000E-01  8.00000000E-01
  1.50000000E+00  8.00000000E-01  8.00000000E-01  1.50000000E+00  8.00000000E-01
  8.00000000E-01  1.50000000E+00  8.00000000E-01  8.00000000E-01  1.50000000E+00
  8.00000000E-01  8.00000000E-01  1.50000000E+00  8.00000000E-01  8.00000000E-01
  1.50000000E+00  8.00000000E-01  8.00000000E-01  1.50000000E+00  8.00000000E-01
  8.00000000E-01  1.50000000E+00  8.00000000E-01  8.00000000E-01  1.50000000E+00
  8.00000000E-01  8.00000000E-01  1.50000000E+00  8.00000000E-01  8.00000000E-01
  1.50000000E+00  8.00000000E-01  8.00000000E-01  1.50000000E+00  8.00000000E-01
  8.00000000E-01  1.50000000E+00  8.00000000E-01  8.00000000E-01  1.50000000E+00
  8.00000000E-01  8.00000000E-01  1.50000000E+00  8.00000000E-01  8.00000000E-01
  1.50000000E+00  8.00000000E-01  8.00000000E-01  1.50000000E+00  8.00000000E-01
  8.00000000E-01  1.50000000E+00  8.00000000E-01  8.00000000E-01  1.50000000E+00
  8.00000000E-01  8.00000000E-01  1.50000000E+00  8.00000000E-01  8.00000000E-01
  1.50000000E+00  8.00000000E-01  8.00000000E-01  1.50000000E+00  8.00000000E-01
  8.00000000E-01  1.50000000E+00  8.00000000E-01  8.00000000E-01  1.50000000E+00
  8.00000000E-01  8.00000000E-01  1.50000000E+00  8.00000000E-01  8.00000000E-01
  1.50000000E+00  8.00000000E-01  8.00000000E-01  1.50000000E+00  8.00000000E-01
  8.00000000E-01  1.50000000E+00  8.00000000E-01  8.00000000E-01  1.50000000E+00
  8.00000000E-01  8.00000000E-01  1.50000000E+00  8.00000000E-01  8.00000000E-01
  1.50000000E+00  8.00000000E-01  8.00000000E-01  1.50000000E+00  8.00000000E-01
  8.00000000E-01  1.50000000E+00  8.00000000E-01  8.00000000E-01  1.50000000E+00
  8.00000000E-01  8.00000000E-01  1.50000000E+00  8.00000000E-01  8.00000000E-01
  1.50000000E+00  8.00000000E-01  8.00000000E-01  1.50000000E+00  8.00000000E-01
  8.00000000E-01  1.50000000E+00  8.00000000E-01  8.00000000E-01  1.50000000E+00
  8.00000000E-01  8.00000000E-01  1.50000000E+00  8.00000000E-01  8.00000000E-01
  1.50000000E+00  8.00000000E-01  8.00000000E-01  1.50000000E+00  8.00000000E-01
  8.00000000E-01  1.50000000E+00  8.00000000E-01  8.00000000E-01  1.50000000E+00
  8.00000000E-01  8.00000000E-01  1.50000000E+00  8.00000000E-01  8.00000000E-01
  1.50000000E+00  8.00000000E-01  8.00000000E-01  1.50000000E+00  8.00000000E-01
  8.00000000E-01  1.50000000E+00  8.00000000E-01  8.00000000E-01  1.50000000E+00
  8.00000000E-01  8.00000000E-01  1.50000000E+00  8.00000000E-01  8.00000000E-01
  1.50000000E+00  8.00000000E-01  8.00000000E-01  1.50000000E+00  8.00000000E-01
  8.00000000E-01  1.50000000E+00  8.00000000E-01  8.00000000E-01  1.50000000E+00
  8.00000000E-01  8.00000000E-01  1.50000000E+00  8.00000000E-01  8.00000000E-01
  1.50000000E+00  8.00000000E-01  8.00000000E-01  1.50000000E+00  8.00000000E-01
  8.00000000E-01  1.50000000E+00  8.00000000E-01  8.00000000E-01  1.50000000E+00
  8.00000000E-01  8.00000000E-01  1.50000000E+00  8.00000000E-01  8.00000000E-01
  1.50000000E+00  8.00000000E-01  8.00000000E-01  1.50000000E+00  8.00000000E-01
  8.00000000E-01  1.50000000E+00  8.00000000E-01  8.00000000E-01  1.50000000E+00
  8.00000000E-01  8.00000000E-01  1.50000000E+00  8.00000000E-01  8.00000000E-01
  1.50000000E+00  8.00000000E-01  8.00000000E-01  1.50000000E+00  8.00000000E-01
  8.00000000E-01  1.50000000E+00  8.00000000E-01  8.00000000E-01  1.50000000E+00
  8.00000000E-01  8.00000000E-01  1.50000000E+00  8.00000000E-01  8.00000000E-01
  1.50000000E+00  8.00000000E-01  8.00000000E-01  1.50000000E+00  8.00000000E-01
  8.00000000E-01  1.50000000E+00  8.00000000E-01  8.00000000E-01  1.50000000E+00
  8.00000000E-01  8.00000000E-01  1.50000000E+00  8.00000000E-01  8.00000000E-01
  1.50000000E+00  8.00000000E-01  8.00000000E-01  1.50000000E+00  8.00000000E-01
  8.00000000E-01  1.50000000E+00  8.00000000E-01  8.00000000E-01  1.50000000E+00
  8.00000000E-01  8.00000000E-01  1.50000000E+00  8.00000000E-01  8.00000000E-01
  1.50000000E+00  8.00000000E-01  8.00000000E-01  1.50000000E+00  8.00000000E-01
  8.00000000E-01  1.50000000E+00  8.00000000E-01  8.00000000E-01  1.50000000E+00
  8.00000000E-01  8.00000000E-01  1.50000000E+00  8.00000000E-01  8.00000000E-01
  1.50000000E+00  8.00000000E-01  8.00000000E-01  1.50000000E+00  8.00000000E-01
  8.00000000E-01  1.50000000E+00  8.00000000E-01  8.00000000E-01  1.50000000E+00
  8.00000000E-01  8.00000000E-01  1.50000000E+00  8.00000000E-01  8.00000000E-01
  1.50000000E+00  8.00000000E-01  8.00000000E-01  1.50000000E+00  8.00000000E-01
  8.00000000E-01  1.50000000E+00  8.00000000E-01  8.00000000E-01  1.50000000E+00
  8.00000000E-01  8.00000000E-01  1.50000000E+00  8.00000000E-01  8.00000000E-01
  1.50000000E+00  8.00000000E-01  8.00000000E-01  1.50000000E+00  8.00000000E-01
  8.00000000E-01  1.50000000E+00  8.00000000E-01  8.00000000E-01  1.50000000E+00
  8.00000000E-01  8.00000000E-01  1.50000000E+00  8.00000000E-01  8.00000000E-01
  1.50000000E+00  8.00000000E-01  8.00000000E-01  1.50000000E+00  8.00000000E-01
  8.00000000E-01  1.50000000E+00  8.00000000E-01  8.00000000E-01  1.50000000E+00
  8.00000000E-01  8.00000000E-01  1.50000000E+00  8.00000000E-01  8.00000000E-01
  1.50000000E+00  8.00000000E-01  8.00000000E-01  1.50000000E+00  8.00000000E-01
  8.00000000E-01  1.50000000E+00  8.00000000E-01  8.00000000E-01  1.50000000E+00
  8.00000000E-01  8.00000000E-01  1.50000000E+00  8.00000000E-01  8.00000000E-01
  1.50000000E+00  8.00000000E-01  8.00000000E-01  1.50000000E+00  8.00000000E-01
  8.00000000E-01  1.50000000E+00  8.00000000E-01  8.00000000E-01  1.50000000E+00
  8.00000000E-01  8.00000000E-01  1.50000000E+00  8.00000000E-01  8.00000000E-01
  1.50000000E+00  8.00000000E-01  8.00000000E-01  1.50000000E+00  8.00000000E-01
  8.00000000E-01  1.50000000E+00  8.00000000E-01  8.00000000E-01  1.50000000E+00
  8.00000000E-01  8.00000000E-01  1.50000000E+00  8.00000000E-01  8.00000000E-01
  1.50000000E+00  8.00000000E-01  8.00000000E-01  1.50000000E+00  8.00000000E-01
  8.00000000E-01  1.50000000E+00  8.00000000E-01  8.00000000E-01  1.50000000E+00
  8.00000000E-01  8.00000000E-01  1.50000000E+00  8.00000000E-01  8.00000000E-01
  1.50000000E+00  8.00000000E-01  8.00000000E-01  1.50000000E+00  8.00000000E-01
  8.00000000E-01  1.50000000E+00  8.00000000E-01  8.00000000E-01  1.50000000E+00
  8.00000000E-01  8.00000000E-01  1.50000000E+00  8.00000000E-01  8.00000000E-01
  1.50000000E+00  8.00000000E-01  8.00000000E-01  1.50000000E+00  8.00000000E-01
  8.00000000E-01  1.50000000E+00  8.00000000E-01  8.00000000E-01  1.50000000E+00
  8.00000000E-01  8.00000000E-01  1.50000000E+00  8.00000000E-01  8.00000000E-01
  1.50000000E+00  8.00000000E-01  8.00000000E-01  1.50000000E+00  8.00000000E-01
  8.00000000E-01  1.50000000E+00  8.00000000E-01  8.00000000E-01  1.50000000E+00
  8.00000000E-01  8.00000000E-01  1.50000000E+00  8.00000000E-01  8.00000000E-01
  1.50000000E+00  8.00000000E-01  8.00000000E-01  1.50000000E+00  8.00000000E-01
  8.00000000E-01  1.50000000E+00  8.00000000E-01  8.00000000E-01  1.50000000E+00
  8.00000000E-01  8.00000000E-01  1.50000000E+00  8.00000000E-01  8.00000000E-01
  1.50000000E+00  8.00000000E-01  8.00000000E-01  1.50000000E+00  8.00000000E-01
  8.00000000E-01  1.50000000E+00  8.00000000E-01  8.00000000E-01  1.50000000E+00
  8.00000000E-01  8.00000000E-01  1.50000000E+00  8.00000000E-01  8.00000000E-01
  1.50000000E+00  8.00000000E-01  8.00000000E-01  1.50000000E+00  8.00000000E-01
  8.00000000E-01  1.50000000E+00  8.00000000E-01  8.00000000E-01  1.50000000E+00
  8.00000000E-01  8.00000000E-01  1.50000000E+00  8.00000000E-01  8.00000000E-01
  1.50000000E+00  8.00000000E-01  8.00000000E-01  1.50000000E+00  8.00000000E-01
  8.00000000E-01  1.50000000E+00  8.00000000E-01  8.00000000E-01  1.50000000E+00
  8.00000000E-01  8.00000000E-01  1.50000000E+00  8.00000000E-01  8.00000000E-01
  1.50000000E+00  8.00000000E-01  8.00000000E-01  1.50000000E+00  8.00000000E-01
  8.00000000E-01  1.50000000E+00  8.00000000E-01  8.00000000E-01  1.50000000E+00
  8.00000000E-01  8.00000000E-01  1.50000000E+00  8.00000000E-01  8.00000000E-01
  1.50000000E+00  8.00000000E-01  8.00000000E-01  1.50000000E+00  8.00000000E-01
  8.00000000E-01  1.50000000E+00  8.00000000E-01  8.00000000E-01  1.50000000E+00
  8.00000000E-01  8.00000000E-01  1.50000000E+00  8.00000000E-01  8.00000000E-01
  1.50000000E+00  8.00000000E-01  8.00000000E-01  1.50000000E+00  8.00000000E-01
  8.00000000E-01  1.50000000E+00  8.00000000E-01  8.00000000E-01  1.50000000E+00
  8.00000000E-01  8.00000000E-01  1.50000000E+00  8.00000000E-01  8.00000000E-01
  1.50000000E+00  8.00000000E-01  8.00000000E-01  1.50000000E+00  8.00000000E-01
  8.00000000E-01  1.50000000E+00  8.00000000E-01  8.00000000E-01  1.50000000E+00
  8.00000000E-01  8.00000000E-01  1.50000000E+00  8.00000000E-01  8.00000000E-01
  1.50000000E+00  8.00000000E-01  8.00000000E-01  1.50000000E+00  8.00000000E-01
  8.00000000E-01  1.50000000E+00  8.00000000E-01  8.00000000E-01  1.50000000E+00
  8.00000000E-01  8.00000000E-01  1.50000000E+00  8.00000000E-01  8.00000000E-01
  1.50000000E+00  8.00000000E-01  8.00000000E-01  1.50000000E+00  8.00000000E-01
  8.00000000E-01  1.50000000E+00  8.00000000E-01  8.00000000E-01  1.50000000E+00
  8.00000000E-01  8.00000000E-01  1.50000000E+00  8.00000000E-01  8.00000000E-01
  1.50000000E+00  8.00000000E-01  8.00000000E-01  1.50000000E+00  8.00000000E-01
  8.00000000E-01  1.50000000E+00  8.00000000E-01  8.00000000E-01  1.50000000E+00
  8.00000000E-01  8.00000000E-01  1.50000000E+00  8.00000000E-01  8.00000000E-01
  1.50000000E+00  8.00000000E-01  8.00000000E-01  1.50000000E+00  8.00000000E-01
  8.00000000E-01  1.50000000E+00  8.00000000E-01  8.00000000E-01  1.50000000E+00
  8.00000000E-01  8.00000000E-01  1.50000000E+00  8.00000000E-01  8.00000000E-01
  1.50000000E+00  8.00000000E-01  8.00000000E-01  1.50000000E+00  8.00000000E-01
  8.00000000E-01  1.50000000E+00  8.00000000E-01  8.00000000E-01  1.50000000E+00
  8.00000000E-01  8.00000000E-01  1.50000000E+00  8.00000000E-01  8.00000000E-01
  1.50000000E+00  8.00000000E-01  8.00000000E-01  1.50000000E+00  8.00000000E-01
  8.00000000E-01  1.50000000E+00  8.00000000E-01  8.00000000E-01  1.50000000E+00
  8.00000000E-01  8.00000000E-01  1.50000000E+00  8.00000000E-01  8.00000000E-01
  1.50000000E+00  8.00000000E-01  8.00000000E-01  1.50000000E+00  8.00000000E-01
  8.00000000E-01  1.50000000E+00  8.00000000E-01  8.00000000E-01  1.50000000E+00
  8.00000000E-01  8.00000000E-01  1.50000000E+00  8.00000000E-01  8.00000000E-01
  1.50000000E+00  8.00000000E-01  8.00000000E-01  1.50000000E+00  8.00000000E-01
  8.00000000E-01  1.50000000E+00  8.00000000E-01  8.00000000E-01  1.50000000E+00
  8.00000000E-01  8.00000000E-01  1.50000000E+00  8.00000000E-01  8.00000000E-01
  1.50000000E+00  8.00000000E-01  8.00000000E-01  1.50000000E+00  8.00000000E-01
  8.00000000E-01  1.50000000E+00  8.00000000E-01  8.00000000E-01  1.50000000E+00
  8.00000000E-01  8.00000000E-01  1.50000000E+00  8.00000000E-01  8.00000000E-01
  1.50000000E+00  8.00000000E-01  8.00000000E-01  1.50000000E+00  8.00000000E-01
  8.00000000E-01  1.50000000E+00  8.00000000E-01  8.00000000E-01  1.50000000E+00
  8.00000000E-01  8.00000000E-01  1.50000000E+00  8.00000000E-01  8.00000000E-01
  1.50000000E+00  8.00000000E-01  8.00000000E-01  1.50000000E+00  8.00000000E-01
  8.00000000E-01  1.50000000E+00  8.00000000E-01  8.00000000E-01  1.50000000E+00
  8.00000000E-01  8.00000000E-01  1.50000000E+00  8.00000000E-01  8.00000000E-01
  1.50000000E+00  8.00000000E-01  8.00000000E-01  1.50000000E+00  8.00000000E-01
  8.00000000E-01  1.50000000E+00  8.00000000E-01  8.00000000E-01  1.50000000E+00
  8.00000000E-01  8.00000000E-01  1.50000000E+00  8.00000000E-01  8.00000000E-01
  1.50000000E+00  8.00000000E-01  8.00000000E-01  1.50000000E+00  8.00000000E-01
  8.00000000E-01  1.50000000E+00  8.00000000E-01  8.00000000E-01  1.50000000E+00
  8.00000000E-01  8.00000000E-01  1.50000000E+00  8.00000000E-01  8.00000000E-01
  1.50000000E+00  8.00000000E-01  8.00000000E-01  1.50000000E+00  8.00000000E-01
  8.00000000E-01  1.50000000E+00  8.00000000E-01  8.00000000E-01  1.50000000E+00
  8.00000000E-01  8.00000000E-01  1.50000000E+00  8.00000000E-01  8.00000000E-01
  1.50000000E+00  8.00000000E-01  8.00000000E-01  1.50000000E+00  8.00000000E-01
  8.00000000E-01  1.50000000E+00  8.00000000E-01  8.00000000E-01  1.50000000E+00
  8.00000000E-01  8.00000000E-01  1.50000000E+00  8.00000000E-01  8.00000000E-01
  1.50000000E+00  8.00000000E-01  8.00000000E-01  1.50000000E+00  8.00000000E-01
  8.00000000E-01  1.50000000E+00  8.00000000E-01  8.00000000E-01  1.50000000E+00
  8.00000000E-01  8.00000000E-01  1.50000000E+00  8.00000000E-01  8.00000000E-01
  1.50000000E+00  8.00000000E-01  8.00000000E-01  1.50000000E+00  8.00000000E-01
  8.00000000E-01  1.50000000E+00  8.00000000E-01  8.00000000E-01  1.50000000E+00
  8.00000000E-01  8.00000000E-01  1.50000000E+00  8.00000000E-01  8.00000000E-01
  1.50000000E+00  8.00000000E-01  8.00000000E-01  1.50000000E+00  8.00000000E-01
  8.00000000E-01  1.50000000E+00  8.00000000E-01  8.00000000E-01  1.50000000E+00
  8.00000000E-01  8.00000000E-01  1.50000000E+00  8.00000000E-01  8.00000000E-01
  1.50000000E+00  8.00000000E-01  8.00000000E-01  1.50000000E+00  8.00000000E-01
  8.00000000E-01  1.50000000E+00  8.00000000E-01  8.00000000E-01  1.50000000E+00
  8.00000000E-01  8.00000000E-01  1.50000000E+00  8.00000000E-01  8.00000000E-01
  1.50000000E+00  8.00000000E-01  8.00000000E-01  1.50000000E+00  8.00000000E-01
  8.00000000E-01  1.50000000E+00  8.00000000E-01  8.00000000E-01  1.50000000E+00
  8.00000000E-01  8.00000000E-01  1.50000000E+00  8.00000000E-01  8.00000000E-01
  1.50000000E+00  8.00000000E-01  8.00000000E-01  1.50000000E+00  8.00000000E-01
  8.00000000E-01  1.50000000E+00  8.00000000E-01  8.00000000E-01  1.50000000E+00
  8.00000000E-01  8.00000000E-01  1.50000000E+00  8.00000000E-01  8.00000000E-01
  1.50000000E+00  8.00000000E-01  8.00000000E-01  1.50000000E+00  8.00000000E-01
  8.00000000E-01  1.50000000E+00  8.00000000E-01  8.00000000E-01  1.50000000E+00
  8.00000000E-01  8.00000000E-01  1.50000000E+00  8.00000000E-01  8.00000000E-01
  1.50000000E+00  8.00000000E-01  8.00000000E-01  1.50000000E+00  8.00000000E-01
  8.00000000E-01  1.50000000E+00  8.00000000E-01  8.00000000E-01  1.50000000E+00
  8.00000000E-01  8.00000000E-01  1.50000000E+00  8.00000000E-01  8.00000000E-01
  1.50000000E+00  8.00000000E-01  8.00000000E-01  1.50000000E+00  8.00000000E-01
  8.00000000E-01  1.50000000E+00  8.00000000E-01  8.00000000E-01  1.50000000E+00
  8.00000000E-01  8.00000000E-01  1.50000000E+00  8.00000000E-01  8.00000000E-01
  1.50000000E+00  8.00000000E-01  8.00000000E-01  1.50000000E+00  8.00000000E-01
  8.00000000E-01  1.50000000E+00  8.00000000E-01  8.00000000E-01  1.50000000E+00
  8.00000000E-01  8.00000000E-01  1.50000000E+00  8.00000000E-01  8.00000000E-01
  1.50000000E+00  8.00000000E-01  8.00000000E-01  1.50000000E+00  8.00000000E-01
  8.00000000E-01  1.50000000E+00  8.00000000E-01  8.00000000E-01  1.50000000E+00
  8.00000000E-01  8.00000000E-01  1.50000000E+00  8.00000000E-01  8.00000000E-01
  1.50000000E+00  8.00000000E-01  8.00000000E-01  1.50000000E+00  8.00000000E-01
  8.00000000E-01  1.50000000E+00  8.00000000E-01  8.00000000E-01  1.50000000E+00
  8.00000000E-01  8.00000000E-01  1.50000000E+00  8.00000000E-01  8.00000000E-01
  1.50000000E+00  8.00000000E-01  8.00000000E-01  1.50000000E+00  8.00000000E-01
  8.00000000E-01  1.50000000E+00  8.00000000E-01  8.00000000E-01  1.50000000E+00
  8.00000000E-01  8.00000000E-01  1.50000000E+00  8.00000000E-01  8.00000000E-01
  1.50000000E+00  8.00000000E-01  8.00000000E-01  1.50000000E+00  8.00000000E-01
  8.00000000E-01  1.50000000E+00  8.00000000E-01  8.00000000E-01  1.50000000E+00
  8.00000000E-01  8.00000000E-01  1.50000000E+00  8.00000000E-01  8.00000000E-01
  1.50000000E+00  8.00000000E-01  8.00000000E-01  1.50000000E+00  8.00000000E-01
  8.00000000E-01  1.50000000E+00  8.00000000E-01  8.00000000E-01  1.50000000E+00
  8.00000000E-01  8.00000000E-01  1.50000000E+00  8.00000000E-01  8.00000000E-01
  1.50000000E+00  8.00000000E-01  8.00000000E-01  1.50000000E+00  8.00000000E-01
  8.00000000E-01  1.50000000E+00  8.00000000E-01  8.00000000E-01  1.50000000E+00
  8.00000000E-01  8.00000000E-01  1.50000000E+00  8.00000000E-01  8.00000000E-01
  1.50000000E+00  8.00000000E-01  8.00000000E-01  1.50000000E+00  8.00000000E-01
  8.00000000E-01  1.50000000E+00  8.00000000E-01  8.00000000E-01  1.50000000E+00
  8.00000000E-01  8.00000000E-01  1.50000000E+00  8.00000000E-01  8.00000000E-01
  1.50000000E+00  8.00000000E-01  8.00000000E-01  1.50000000E+00  8.00000000E-01
  8.00000000E-01  1.50000000E+00  8.00000000E-01  8.00000000E-01  1.50000000E+00
  8.00000000E-01  8.00000000E-01  1.50000000E+00  8.00000000E-01  8.00000000E-01
  1.50000000E+00  8.00000000E-01  8.00000000E-01  1.50000000E+00  8.00000000E-01
  8.00000000E-01  1.50000000E+00  8.00000000E-01  8.00000000E-01  1.50000000E+00
  8.00000000E-01  8.00000000E-01  1.50000000E+00  8.00000000E-01  8.00000000E-01
  1.50000000E+00  8.00000000E-01  8.00000000E-01  1.50000000E+00  8.00000000E-01
  8.00000000E-01  1.50000000E+00  8.00000000E-01  8.00000000E-01  1.50000000E+00
  8.00000000E-01  8.00000000E-01  1.50000000E+00  8.00000000E-01  8.00000000E-01
  1.50000000E+00  8.00000000E-01  8.00000000E-01  1.50000000E+00  8.00000000E-01
  8.00000000E-01  1.50000000E+00  8.00000000E-01  8.00000000E-01  1.50000000E+00
  8.00000000E-01  8.00000000E-01  1.50000000E+00  8.00000000E-01  8.00000000E-01
  1.50000000E+00  8.00000000E-01  8.00000000E-01  1.50000000E+00  8.00000000E-01
  8.00000000E-01  1.50000000E+00  8.00000000E-01  8.00000000E-01  1.50000000E+00
  8.00000000E-01  8.00000000E-01  1.50000000E+00  8.00000000E-01  8.00000000E-01
  1.50000000E+00  8.00000000E-01  8.00000000E-01  1.50000000E+00  8.00000000E-01
  8.00000000E-01  1.50000000E+00  8.00000000E-01  8.00000000E-01  1.50000000E+00
  8.00000000E-01  8.00000000E-01  1.50000000E+00  8.00000000E-01  8.00000000E-01
  1.50000000E+00  8.00000000E-01  8.00000000E-01  1.50000000E+00  8.00000000E-01
  8.00000000E-01  1.50000000E+00  8.00000000E-01  8.00000000E-01  1.50000000E+00
  8.00000000E-01  8.00000000E-01  1.50000000E+00  8.00000000E-01  8.00000000E-01
  1.50000000E+00  8.00000000E-01  8.00000000E-01  1.50000000E+00  8.00000000E-01
  8.00000000E-01  1.50000000E+00  8.00000000E-01  8.00000000E-01  1.50000000E+00
  8.00000000E-01  8.00000000E-01  1.50000000E+00  8.00000000E-01  8.00000000E-01
  1.50000000E+00  8.00000000E-01  8.00000000E-01  1.50000000E+00  8.00000000E-01
  8.00000000E-01  1.50000000E+00  8.00000000E-01  8.00000000E-01  1.50000000E+00
  8.00000000E-01  8.00000000E-01  1.50000000E+00  8.00000000E-01  8.00000000E-01
  1.50000000E+00  8.00000000E-01  8.00000000E-01  1.50000000E+00  8.00000000E-01
  8.00000000E-01  1.50000000E+00  8.00000000E-01  8.00000000E-01  1.50000000E+00
  8.00000000E-01  8.00000000E-01  1.50000000E+00  8.00000000E-01  8.00000000E-01
  1.50000000E+00  8.00000000E-01  8.00000000E-01  1.50000000E+00  8.00000000E-01
  8.00000000E-01  1.50000000E+00  8.00000000E-01  8.00000000E-01  1.50000000E+00
  8.00000000E-01  8.00000000E-01  1.50000000E+00  8.00000000E-01  8.00000000E-01
  1.50000000E+00  8.00000000E-01  8.00000000E-01  1.50000000E+00  8.00000000E-01
  8.00000000E-01  1.50000000E+00  8.00000000E-01  8.00000000E-01  1.50000000E+00
  8.00000000E-01  8.00000000E-01  1.50000000E+00  8.00000000E-01  8.00000000E-01
  1.50000000E+00  8.00000000E-01  8.00000000E-01  1.50000000E+00  8.00000000E-01
  8.00000000E-01  1.50000000E+00  8.00000000E-01  8.00000000E-01  1.50000000E+00
  8.00000000E-01  8.00000000E-01  1.50000000E+00  8.00000000E-01  8.00000000E-01
  1.50000000E+00  8.00000000E-01  8.00000000E-01  1.50000000E+00  8.00000000E-01
  8.00000000E-01  1.50000000E+00  8.00000000E-01  8.00000000E-01  1.50000000E+00
  8.00000000E-01  8.00000000E-01  1.50000000E+00  8.00000000E-01  8.00000000E-01
  1.50000000E+00  8.00000000E-01  8.00000000E-01  1.50000000E+00  8.00000000E-01
  8.00000000E-01  1.50000000E+00  8.00000000E-01  8.00000000E-01  1.50000000E+00
  8.00000000E-01  8.00000000E-01  1.50000000E+00  8.00000000E-01  8.00000000E-01
  1.50000000E+00  8.00000000E-01  8.00000000E-01  1.50000000E+00  8.00000000E-01
  8.00000000E-01  1.50000000E+00  8.00000000E-01  8.00000000E-01  1.50000000E+00
  8.00000000E-01  8.00000000E-01  1.50000000E+00  8.00000000E-01  8.00000000E-01
  1.50000000E+00  8.00000000E-01  8.00000000E-01  1.50000000E+00  8.00000000E-01
  8.00000000E-01  1.50000000E+00  8.00000000E-01  8.00000000E-01  1.50000000E+00
  8.00000000E-01  8.00000000E-01  1.50000000E+00  8.00000000E-01  8.00000000E-01
  1.50000000E+00  8.00000000E-01  8.00000000E-01  1.50000000E+00  8.00000000E-01
  8.00000000E-01  1.50000000E+00  8.00000000E-01  8.00000000E-01  1.50000000E+00
  8.00000000E-01  8.00000000E-01  1.50000000E+00  8.00000000E-01  8.00000000E-01
  1.50000000E+00  8.00000000E-01  8.00000000E-01  1.50000000E+00  8.00000000E-01
  8.00000000E-01  1.50000000E+00  8.00000000E-01  8.00000000E-01  1.50000000E+00
  8.00000000E-01  8.00000000E-01  1.50000000E+00  8.00000000E-01  8.00000000E-01
  1.50000000E+00  8.00000000E-01  8.00000000E-01  1.50000000E+00  8.00000000E-01
  8.00000000E-01  1.50000000E+00  8.00000000E-01  8.00000000E-01  1.50000000E+00
  8.00000000E-01  8.00000000E-01  1.50000000E+00  8.00000000E-01  8.00000000E-01
  1.50000000E+00  8.00000000E-01  8.00000000E-01  1.50000000E+00  8.00000000E-01
  8.00000000E-01  1.50000000E+00  8.00000000E-01  8.00000000E-01  1.50000000E+00
  8.00000000E-01  8.00000000E-01  1.50000000E+00  8.00000000E-01  8.00000000E-01
  1.50000000E+00  8.00000000E-01  8.00000000E-01  1.50000000E+00  8.00000000E-01
  8.00000000E-01  1.50000000E+00  8.00000000E-01  8.00000000E-01  1.50000000E+00
  8.00000000E-01  8.00000000E-01  1.50000000E+00  8.00000000E-01  8.00000000E-01
  1.50000000E+00  8.00000000E-01  8.00000000E-01  1.50000000E+00  8.00000000E-01
  8.00000000E-01  1.50000000E+00  8.00000000E-01  8.00000000E-01  1.50000000E+00
  8.00000000E-01  8.00000000E-01  1.50000000E+00  8.00000000E-01  8.00000000E-01
  1.50000000E+00  8.00000000E-01  8.00000000E-01  1.50000000E+00  8.00000000E-01
  8.00000000E-01  1.50000000E+00  8.00000000E-01  8.00000000E-01  1.50000000E+00
  8.00000000E-01  8.00000000E-01  1.50000000E+00  8.00000000E-01  8.00000000E-01
  1.50000000E+00  8.00000000E-01  8.00000000E-01  1.50000000E+00  8.00000000E-01
  8.00000000E-01  1.50000000E+00  8.00000000E-01  8.00000000E-01  1.50000000E+00
  8.00000000E-01  8.00000000E-01  1.50000000E+00  8.00000000E-01  8.00000000E-01
  1.50000000E+00  8.00000000E-01  8.00000000E-01  1.50000000E+00  8.00000000E-01
  8.00000000E-01  1.50000000E+00  8.00000000E-01  8.00000000E-01  1.50000000E+00
  8.00000000E-01  8.00000000E-01  1.50000000E+00  8.00000000E-01  8.00000000E-01
  1.50000000E+00  8.00000000E-01  8.00000000E-01  1.50000000E+00  8.00000000E-01
  8.00000000E-01  1.50000000E+00  8.00000000E-01  8.00000000E-01  1.50000000E+00
  8.00000000E-01  8.00000000E-01  1.50000000E+00  8.00000000E-01  8.00000000E-01
  1.50000000E+00  8.00000000E-01  8.00000000E-01  1.50000000E+00  8.00000000E-01
  8.00000000E-01  1.50000000E+00  8.00000000E-01  8.00000000E-01  1.50000000E+00
  8.00000000E-01  8.00000000E-01  1.50000000E+00  8.00000000E-01  8.00000000E-01
  1.50000000E+00  8.00000000E-01  8.00000000E-01  1.50000000E+00  8.00000000E-01
  8.00000000E-01  1.50000000E+00  8.00000000E-01  8.00000000E-01  1.50000000E+00
  8.00000000E-01  8.00000000E-01  1.50000000E+00  8.00000000E-01  8.00000000E-01
  1.50000000E+00  8.00000000E-01  8.00000000E-01  1.50000000E+00  8.00000000E-01
  8.00000000E-01  1.50000000E+00  8.00000000E-01  8.00000000E-01  1.50000000E+00
  8.00000000E-01  8.00000000E-01  1.50000000E+00  8.00000000E-01  8.00000000E-01
  1.50000000E+00  8.00000000E-01  8.00000000E-01  1.50000000E+00  8.00000000E-01
  8.00000000E-01  1.50000000E+00  8.00000000E-01  8.00000000E-01  1.50000000E+00
  8.00000000E-01  8.00000000E-01  1.50000000E+00  8.00000000E-01  8.00000000E-01
  1.50000000E+00  8.00000000E-01  8.00000000E-01  1.50000000E+00  8.00000000E-01
  8.00000000E-01  1.50000000E+00  8.00000000E-01  8.00000000E-01  1.50000000E+00
  8.00000000E-01  8.00000000E-01  1.50000000E+00  8.00000000E-01  8.00000000E-01
  1.50000000E+00  8.00000000E-01  8.00000000E-01  1.50000000E+00  8.00000000E-01
  8.00000000E-01  1.50000000E+00  8.00000000E-01  8.00000000E-01  1.50000000E+00
  8.00000000E-01  8.00000000E-01  1.50000000E+00  8.00000000E-01  8.00000000E-01
  1.50000000E+00  8.00000000E-01  8.00000000E-01  1.50000000E+00  8.00000000E-01
  8.00000000E-01  1.50000000E+00  8.00000000E-01  8.00000000E-01  1.50000000E+00
  8.00000000E-01  8.00000000E-01  1.50000000E+00  8.00000000E-01  8.00000000E-01
  1.50000000E+00  8.00000000E-01  8.00000000E-01  1.50000000E+00  8.00000000E-01
  8.00000000E-01  1.50000000E+00  8.00000000E-01  8.00000000E-01  1.50000000E+00
  8.00000000E-01  8.00000000E-01  1.50000000E+00  8.00000000E-01  8.00000000E-01
  1.50000000E+00  8.00000000E-01  8.00000000E-01  1.50000000E+00  8.00000000E-01
  8.00000000E-01  1.50000000E+00  8.00000000E-01  8.00000000E-01  1.50000000E+00
  8.00000000E-01  8.00000000E-01  1.50000000E+00  8.00000000E-01  8.00000000E-01
  1.50000000E+00  8.00000000E-01  8.00000000E-01  1.50000000E+00  8.00000000E-01
  8.00000000E-01  1.50000000E+00  8.00000000E-01  8.00000000E-01  1.50000000E+00
  8.00000000E-01  8.00000000E-01  1.50000000E+00  8.00000000E-01  8.00000000E-01
  1.50000000E+00  8.00000000E-01  8.00000000E-01  1.50000000E+00  8.00000000E-01
  8.00000000E-01  1.50000000E+00  8.00000000E-01  8.00000000E-01  1.50000000E+00
  8.00000000E-01  8.00000000E-01  1.50000000E+00  8.00000000E-01  8.00000000E-01
  1.50000000E+00  8.00000000E-01  8.00000000E-01  1.50000000E+00  8.00000000E-01
  8.00000000E-01  1.50000000E+00  8.00000000E-01  8.00000000E-01  1.50000000E+00
  8.00000000E-01  8.00000000E-01  1.50000000E+00  8.00000000E-01  8.00000000E-01
  1.50000000E+00  8.00000000E-01  8.00000000E-01  1.50000000E+00  8.00000000E-01
  8.00000000E-01  1.50000000E+00  8.00000000E-01  8.00000000E-01  1.50000000E+00
  8.00000000E-01  8.00000000E-01  1.50000000E+00  8.00000000E-01  8.00000000E-01
  1.50000000E+00  8.00000000E-01  8.00000000E-01  1.50000000E+00  8.00000000E-01
  8.00000000E-01  1.50000000E+00  8.00000000E-01  8.00000000E-01  1.50000000E+00
  8.00000000E-01  8.00000000E-01  1.50000000E+00  8.00000000E-01  8.00000000E-01
  1.50000000E+00  8.00000000E-01  8.00000000E-01  1.50000000E+00  8.00000000E-01
  8.00000000E-01  1.50000000E+00  8.00000000E-01  8.00000000E-01  1.50000000E+00
  8.00000000E-01  8.00000000E-01  1.50000000E+00  8.00000000E-01  8.00000000E-01
  1.50000000E+00  8.00000000E-01  8.00000000E-01  1.50000000E+00  8.00000000E-01
  8.00000000E-01  1.50000000E+00  8.00000000E-01  8.00000000E-01  1.50000000E+00
  8.00000000E-01  8.00000000E-01  1.50000000E+00  8.00000000E-01  8.00000000E-01
  1.50000000E+00  8.00000000E-01  8.00000000E-01  1.50000000E+00  8.00000000E-01
  8.00000000E-01  1.50000000E+00  8.00000000E-01  8.00000000E-01  1.50000000E+00
  8.00000000E-01  8.00000000E-01  1.50000000E+00  8.00000000E-01  8.00000000E-01
  1.50000000E+00  8.00000000E-01  8.00000000E-01  1.50000000E+00  8.00000000E-01
  8.00000000E-01  1.50000000E+00  8.00000000E-01  8.00000000E-01  1.50000000E+00
  8.00000000E-01  8.00000000E-01  1.50000000E+00  8.00000000E-01  8.00000000E-01
  1.50000000E+00  8.00000000E-01  8.00000000E-01  1.50000000E+00  8.00000000E-01
  8.00000000E-01  1.50000000E+00  8.00000000E-01  8.00000000E-01  1.50000000E+00
  8.00000000E-01  8.00000000E-01  1.50000000E+00  8.00000000E-01  8.00000000E-01
  1.50000000E+00  8.00000000E-01  8.00000000E-01  1.50000000E+00  8.00000000E-01
  8.00000000E-01  1.50000000E+00  8.00000000E-01  8.00000000E-01  1.50000000E+00
  8.00000000E-01  8.00000000E-01  1.50000000E+00  8.00000000E-01  8.00000000E-01
  1.50000000E+00  8.00000000E-01  8.00000000E-01  1.50000000E+00  8.00000000E-01
  8.00000000E-01  1.50000000E+00  8.00000000E-01  8.00000000E-01  1.50000000E+00
  8.00000000E-01  8.00000000E-01  1.50000000E+00  8.00000000E-01  8.00000000E-01
  1.50000000E+00  8.00000000E-01  8.00000000E-01  1.50000000E+00  8.00000000E-01
  8.00000000E-01  1.50000000E+00  8.00000000E-01  8.00000000E-01  1.50000000E+00
  8.00000000E-01  8.00000000E-01  1.50000000E+00  8.00000000E-01  8.00000000E-01
  1.50000000E+00  8.00000000E-01  8.00000000E-01  1.50000000E+00  8.00000000E-01
  8.00000000E-01  1.50000000E+00  8.00000000E-01  8.00000000E-01  1.50000000E+00
  8.00000000E-01  8.00000000E-01  1.50000000E+00  8.00000000E-01  8.00000000E-01
  1.50000000E+00  8.00000000E-01  8.00000000E-01  1.50000000E+00  8.00000000E-01
  8.00000000E-01  1.50000000E+00  8.00000000E-01  8.00000000E-01  1.50000000E+00
  8.00000000E-01  8.00000000E-01  1.50000000E+00  8.00000000E-01  8.00000000E-01
  1.50000000E+00  8.00000000E-01  8.00000000E-01  1.50000000E+00  8.00000000E-01
  8.00000000E-01  1.50000000E+00  8.00000000E-01  8.00000000E-01  1.50000000E+00
  8.00000000E-01  8.00000000E-01  1.50000000E+00  8.00000000E-01  8.00000000E-01
  1.50000000E+00  8.00000000E-01  8.00000000E-01  1.50000000E+00  8.00000000E-01
  8.00000000E-01  1.50000000E+00  8.00000000E-01  8.00000000E-01  1.50000000E+00
  8.00000000E-01  8.00000000E-01  1.50000000E+00  8.00000000E-01  8.00000000E-01
  1.50000000E+00  8.00000000E-01  8.00000000E-01  1.50000000E+00  8.00000000E-01
  8.00000000E-01  1.50000000E+00  8.00000000E-01  8.00000000E-01  1.50000000E+00
  8.00000000E-01  8.00000000E-01  1.50000000E+00  8.00000000E-01  8.00000000E-01
  1.50000000E+00  8.00000000E-01  8.00000000E-01  1.50000000E+00  8.00000000E-01
  8.00000000E-01  1.50000000E+00  8.00000000E-01  8.00000000E-01  1.50000000E+00
  8.00000000E-01  8.00000000E-01  1.50000000E+00  8.00000000E-01  8.00000000E-01
  1.50000000E+00  8.00000000E-01  8.00000000E-01  1.50000000E+00  8.00000000E-01
  8.00000000E-01  1.50000000E+00  8.00000000E-01  8.00000000E-01  1.50000000E+00
  8.00000000E-01  8.00000000E-01  1.50000000E+00  8.00000000E-01  8.00000000E-01
  1.50000000E+00  8.00000000E-01  8.00000000E-01  1.50000000E+00  8.00000000E-01
  8.00000000E-01  1.50000000E+00  8.00000000E-01  8.00000000E-01  1.50000000E+00
  8.00000000E-01  8.00000000E-01  1.50000000E+00  8.00000000E-01  8.00000000E-01
  1.50000000E+00  8.00000000E-01  8.00000000E-01  1.50000000E+00  8.00000000E-01
  8.00000000E-01  1.50000000E+00  8.00000000E-01  8.00000000E-01  1.50000000E+00
  8.00000000E-01  8.00000000E-01  1.50000000E+00  8.00000000E-01  8.00000000E-01
  1.50000000E+00  8.00000000E-01  8.00000000E-01  1.50000000E+00  8.00000000E-01
  8.00000000E-01  1.50000000E+00  8.00000000E-01  8.00000000E-01  1.50000000E+00
  8.00000000E-01  8.00000000E-01  1.50000000E+00  8.00000000E-01  8.00000000E-01
  1.50000000E+00  8.00000000E-01  8.00000000E-01  1.50000000E+00  8.00000000E-01
  8.00000000E-01  1.50000000E+00  8.00000000E-01  8.00000000E-01  1.50000000E+00
  8.00000000E-01  8.00000000E-01  1.50000000E+00  8.00000000E-01  8.00000000E-01
  1.50000000E+00  8.00000000E-01  8.00000000E-01  1.50000000E+00  8.00000000E-01
  8.00000000E-01  1.50000000E+00  8.00000000E-01  8.00000000E-01  1.50000000E+00
  8.00000000E-01  8.00000000E-01  1.50000000E+00  8.00000000E-01  8.00000000E-01
  1.50000000E+00  8.00000000E-01  8.00000000E-01  1.50000000E+00  8.00000000E-01
  8.00000000E-01  1.50000000E+00  8.00000000E-01  8.00000000E-01  1.50000000E+00
  8.00000000E-01  8.00000000E-01  1.50000000E+00  8.00000000E-01  8.00000000E-01
  1.50000000E+00  8.00000000E-01  8.00000000E-01  1.50000000E+00  8.00000000E-01
  8.00000000E-01  1.50000000E+00  8.00000000E-01  8.00000000E-01  1.50000000E+00
  8.00000000E-01  8.00000000E-01  1.50000000E+00  8.00000000E-01  8.00000000E-01
  1.50000000E+00  8.00000000E-01  8.00000000E-01  1.50000000E+00  8.00000000E-01
  8.00000000E-01  1.50000000E+00  8.00000000E-01  8.00000000E-01  1.50000000E+00
  8.00000000E-01  8.00000000E-01  1.50000000E+00  8.00000000E-01  8.00000000E-01
  1.50000000E+00  8.00000000E-01  8.00000000E-01  1.50000000E+00  8.00000000E-01
  8.00000000E-01  1.50000000E+00  8.00000000E-01  8.00000000E-01  1.50000000E+00
  8.00000000E-01  8.00000000E-01  1.50000000E+00  8.00000000E-01  8.00000000E-01
  1.50000000E+00  8.00000000E-01  8.00000000E-01  1.50000000E+00  8.00000000E-01
  8.00000000E-01  1.50000000E+00  8.00000000E-01  8.00000000E-01  1.50000000E+00
  8.00000000E-01  8.00000000E-01  1.50000000E+00  8.00000000E-01  8.00000000E-01
  1.50000000E+00  8.00000000E-01  8.00000000E-01  1.50000000E+00  8.00000000E-01
  8.00000000E-01  1.50000000E+00  8.00000000E-01  8.00000000E-01  1.50000000E+00
  8.00000000E-01  8.00000000E-01  1.50000000E+00  8.00000000E-01  8.00000000E-01
  1.50000000E+00  8.00000000E-01  8.00000000E-01  1.50000000E+00  8.00000000E-01
  8.00000000E-01  1.50000000E+00  8.00000000E-01  8.00000000E-01  1.50000000E+00
  8.00000000E-01  8.00000000E-01  1.50000000E+00  8.00000000E-01  8.00000000E-01
  1.50000000E+00  8.00000000E-01  8.00000000E-01  1.50000000E+00  8.00000000E-01
  8.00000000E-01  1.50000000E+00  8.00000000E-01  8.00000000E-01  1.50000000E+00
  8.00000000E-01  8.00000000E-01  1.50000000E+00  8.00000000E-01  8.00000000E-01
  1.50000000E+00  8.00000000E-01  8.00000000E-01  1.50000000E+00  8.00000000E-01
  8.00000000E-01  1.50000000E+00  8.00000000E-01  8.00000000E-01  1.50000000E+00
  8.00000000E-01  8.00000000E-01  1.50000000E+00  8.00000000E-01  8.00000000E-01
  1.50000000E+00  8.00000000E-01  8.00000000E-01  1.50000000E+00  8.00000000E-01
  8.00000000E-01  1.50000000E+00  8.00000000E-01  8.00000000E-01  1.50000000E+00
  8.00000000E-01  8.00000000E-01  1.50000000E+00  8.00000000E-01  8.00000000E-01
  1.50000000E+00  8.00000000E-01  8.00000000E-01  1.50000000E+00  8.00000000E-01
  8.00000000E-01  1.50000000E+00  8.00000000E-01  8.00000000E-01  1.50000000E+00
  8.00000000E-01  8.00000000E-01  1.50000000E+00  8.00000000E-01  8.00000000E-01
  1.50000000E+00  8.00000000E-01  8.00000000E-01  1.50000000E+00  8.00000000E-01
  8.00000000E-01  1.50000000E+00  8.00000000E-01  8.00000000E-01  1.50000000E+00
  8.00000000E-01  8.00000000E-01  1.50000000E+00  8.00000000E-01  8.00000000E-01
  1.50000000E+00  8.00000000E-01  8.00000000E-01  1.50000000E+00  8.00000000E-01
  8.00000000E-01  1.50000000E+00  8.00000000E-01  8.00000000E-01  1.50000000E+00
  8.00000000E-01  8.00000000E-01  1.50000000E+00  8.00000000E-01  8.00000000E-01
  1.50000000E+00  8.00000000E-01  8.00000000E-01  1.50000000E+00  8.00000000E-01
  8.00000000E-01  1.50000000E+00  8.00000000E-01  8.00000000E-01  1.50000000E+00
  8.00000000E-01  8.00000000E-01  1.50000000E+00  8.00000000E-01  8.00000000E-01
  1.50000000E+00  8.00000000E-01  8.00000000E-01  1.50000000E+00  8.00000000E-01
  8.00000000E-01  1.50000000E+00  8.00000000E-01  8.00000000E-01  1.50000000E+00
  8.00000000E-01  8.00000000E-01  1.50000000E+00  8.00000000E-01  8.00000000E-01
  1.50000000E+00  8.00000000E-01  8.00000000E-01  1.50000000E+00  8.00000000E-01
  8.00000000E-01  1.50000000E+00  8.00000000E-01  8.00000000E-01  1.50000000E+00
  8.00000000E-01  8.00000000E-01  1.50000000E+00  8.00000000E-01  8.00000000E-01
  1.50000000E+00  8.00000000E-01  8.00000000E-01  1.50000000E+00  8.00000000E-01
  8.00000000E-01  1.50000000E+00  8.00000000E-01  8.00000000E-01  1.50000000E+00
  8.00000000E-01  8.00000000E-01  1.50000000E+00  8.00000000E-01  8.00000000E-01
  1.50000000E+00  8.00000000E-01  8.00000000E-01  1.50000000E+00  8.00000000E-01
  8.00000000E-01  1.50000000E+00  8.00000000E-01  8.00000000E-01  1.50000000E+00
  8.00000000E-01  8.00000000E-01  1.50000000E+00  8.00000000E-01  8.00000000E-01
  1.50000000E+00  8.00000000E-01  8.00000000E-01  1.50000000E+00  8.00000000E-01
  8.00000000E-01  1.50000000E+00  8.00000000E-01  8.00000000E-01  1.50000000E+00
  8.00000000E-01  8.00000000E-01  1.50000000E+00  8.00000000E-01  8.00000000E-01
  1.50000000E+00  8.00000000E-01  8.00000000E-01  1.50000000E+00  8.00000000E-01
  8.00000000E-01  1.50000000E+00  8.00000000E-01  8.00000000E-01  1.50000000E+00
  8.00000000E-01  8.00000000E-01  1.50000000E+00  8.00000000E-01  8.00000000E-01
  1.50000000E+00  8.00000000E-01  8.00000000E-01  1.50000000E+00  8.00000000E-01
  8.00000000E-01  1.50000000E+00  8.00000000E-01  8.00000000E-01  1.50000000E+00
  8.00000000E-01  8.00000000E-01  1.50000000E+00  8.00000000E-01  8.00000000E-01
  1.50000000E+00  8.00000000E-01  8.00000000E-01  1.50000000E+00  8.00000000E-01
  8.00000000E-01  1.50000000E+00  8.00000000E-01  8.00000000E-01  1.50000000E+00
  8.00000000E-01  8.00000000E-01  1.50000000E+00  8.00000000E-01  8.00000000E-01
  1.50000000E+00  8.00000000E-01  8.00000000E-01  1.50000000E+00  8.00000000E-01
  8.00000000E-01  1.50000000E+00  8.00000000E-01  8.00000000E-01  1.50000000E+00
  8.00000000E-01  8.00000000E-01  1.50000000E+00  8.00000000E-01  8.00000000E-01
  1.50000000E+00  8.00000000E-01  8.00000000E-01  1.50000000E+00  8.00000000E-01
  8.00000000E-01  1.50000000E+00  8.00000000E-01  8.00000000E-01  1.50000000E+00
  8.00000000E-01  8.00000000E-01  1.50000000E+00  8.00000000E-01  8.00000000E-01
  1.50000000E+00  8.00000000E-01  8.00000000E-01  1.50000000E+00  8.00000000E-01
  8.00000000E-01  1.50000000E+00  8.00000000E-01  8.00000000E-01  1.50000000E+00
  8.00000000E-01  8.00000000E-01  1.50000000E+00  8.00000000E-01  8.00000000E-01
  1.50000000E+00  8.00000000E-01  8.00000000E-01  1.50000000E+00  8.00000000E-01
  8.00000000E-01  1.50000000E+00  8.00000000E-01  8.00000000E-01  1.50000000E+00
  8.00000000E-01  8.00000000E-01  1.50000000E+00  8.00000000E-01  8.00000000E-01
  1.50000000E+00  8.00000000E-01  8.00000000E-01  1.50000000E+00  8.00000000E-01
  8.00000000E-01  1.50000000E+00  8.00000000E-01  8.00000000E-01  1.50000000E+00
  8.00000000E-01  8.00000000E-01  1.50000000E+00  8.00000000E-01  8.00000000E-01
  1.50000000E+00  8.00000000E-01  8.00000000E-01  1.50000000E+00  8.00000000E-01
  8.00000000E-01  1.50000000E+00  8.00000000E-01  8.00000000E-01  1.50000000E+00
  8.00000000E-01  8.00000000E-01  1.50000000E+00  8.00000000E-01  8.00000000E-01
  1.50000000E+00  8.00000000E-01  8.00000000E-01  1.50000000E+00  8.00000000E-01
  8.00000000E-01  1.50000000E+00  8.00000000E-01  8.00000000E-01  1.50000000E+00
  8.00000000E-01  8.00000000E-01  1.50000000E+00  8.00000000E-01  8.00000000E-01
  1.50000000E+00  8.00000000E-01  8.00000000E-01  1.50000000E+00  8.00000000E-01
  8.00000000E-01  1.50000000E+00  8.00000000E-01  8.00000000E-01  1.50000000E+00
  8.00000000E-01  8.00000000E-01  1.50000000E+00  8.00000000E-01  8.00000000E-01
  1.50000000E+00  8.00000000E-01  8.00000000E-01  1.50000000E+00  8.00000000E-01
  8.00000000E-01  1.50000000E+00  8.00000000E-01  8.00000000E-01  1.50000000E+00
  8.00000000E-01  8.00000000E-01  1.50000000E+00  8.00000000E-01  8.00000000E-01
  1.50000000E+00  8.00000000E-01  8.00000000E-01  1.50000000E+00  8.00000000E-01
  8.00000000E-01  1.50000000E+00  8.00000000E-01  8.00000000E-01  1.50000000E+00
  8.00000000E-01  8.00000000E-01  1.50000000E+00  8.00000000E-01  8.00000000E-01
  1.50000000E+00  8.00000000E-01  8.00000000E-01  1.50000000E+00  8.00000000E-01
  8.00000000E-01  1.50000000E+00  8.00000000E-01  8.00000000E-01  1.50000000E+00
  8.00000000E-01  8.00000000E-01  1.50000000E+00  8.00000000E-01  8.00000000E-01
  1.50000000E+00  8.00000000E-01  8.00000000E-01  1.50000000E+00  8.00000000E-01
  8.00000000E-01  1.50000000E+00  8.00000000E-01  8.00000000E-01  1.50000000E+00
  8.00000000E-01  8.00000000E-01  1.50000000E+00  8.00000000E-01  8.00000000E-01
  1.50000000E+00  8.00000000E-01  8.00000000E-01  1.50000000E+00  8.00000000E-01
  8.00000000E-01  1.50000000E+00  8.00000000E-01  8.00000000E-01  1.50000000E+00
  8.00000000E-01  8.00000000E-01  1.50000000E+00  8.00000000E-01  8.00000000E-01
  1.50000000E+00  8.00000000E-01  8.00000000E-01  1.50000000E+00  8.00000000E-01
  8.00000000E-01  1.50000000E+00  8.00000000E-01  8.00000000E-01  1.50000000E+00
  8.00000000E-01  8.00000000E-01  1.50000000E+00  8.00000000E-01  8.00000000E-01
  1.50000000E+00  8.00000000E-01  8.00000000E-01  1.50000000E+00  8.00000000E-01
  8.00000000E-01  1.50000000E+00  8.00000000E-01  8.00000000E-01  1.50000000E+00
  8.00000000E-01  8.00000000E-01  1.50000000E+00  8.00000000E-01  8.00000000E-01
  1.50000000E+00  8.00000000E-01  8.00000000E-01  1.50000000E+00  8.00000000E-01
  8.00000000E-01  1.50000000E+00  8.00000000E-01  8.00000000E-01  1.50000000E+00
  8.00000000E-01  8.00000000E-01  1.50000000E+00  8.00000000E-01  8.00000000E-01
  1.50000000E+00  8.00000000E-01  8.00000000E-01  1.50000000E+00  8.00000000E-01
  8.00000000E-01  1.50000000E+00  8.00000000E-01  8.00000000E-01  1.50000000E+00
  8.00000000E-01  8.00000000E-01  1.50000000E+00  8.00000000E-01  8.00000000E-01
  1.50000000E+00  8.00000000E-01  8.00000000E-01  1.50000000E+00  8.00000000E-01
  8.00000000E-01  1.50000000E+00  8.00000000E-01  8.00000000E-01  1.50000000E+00
  8.00000000E-01  8.00000000E-01  1.50000000E+00  8.00000000E-01  8.00000000E-01
  1.50000000E+00  8.00000000E-01  8.00000000E-01  1.50000000E+00  8.00000000E-01
  8.00000000E-01  1.50000000E+00  8.00000000E-01  8.00000000E-01  1.50000000E+00
  8.00000000E-01  8.00000000E-01  1.50000000E+00  8.00000000E-01  8.00000000E-01
  1.50000000E+00  8.00000000E-01  8.00000000E-01  1.50000000E+00  8.00000000E-01
  8.00000000E-01  1.50000000E+00  8.00000000E-01  8.00000000E-01  1.50000000E+00
  8.00000000E-01  8.00000000E-01  1.50000000E+00  8.00000000E-01  8.00000000E-01
  1.50000000E+00  8.00000000E-01  8.00000000E-01  1.50000000E+00  8.00000000E-01
  8.00000000E-01  1.50000000E+00  8.00000000E-01  8.00000000E-01  1.50000000E+00
  8.00000000E-01  8.00000000E-01  1.50000000E+00  8.00000000E-01  8.00000000E-01
  1.50000000E+00  8.00000000E-01  8.00000000E-01  1.50000000E+00  8.00000000E-01
  8.00000000E-01  1.50000000E+00  8.00000000E-01  8.00000000E-01  1.50000000E+00
  8.00000000E-01  8.00000000E-01  1.50000000E+00  8.00000000E-01  8.00000000E-01
  1.50000000E+00  8.00000000E-01  8.00000000E-01  1.50000000E+00  8.00000000E-01
  8.00000000E-01  1.50000000E+00  8.00000000E-01  8.00000000E-01  1.50000000E+00
  8.00000000E-01  8.00000000E-01  1.50000000E+00  8.00000000E-01  8.00000000E-01
  1.50000000E+00  8.00000000E-01  8.00000000E-01  1.50000000E+00  8.00000000E-01
  8.00000000E-01  1.50000000E+00  8.00000000E-01  8.00000000E-01  1.50000000E+00
  8.00000000E-01  8.00000000E-01  1.50000000E+00  8.00000000E-01  8.00000000E-01
  1.50000000E+00  8.00000000E-01  8.00000000E-01  1.50000000E+00  8.00000000E-01
  8.00000000E-01  1.50000000E+00  8.00000000E-01  8.00000000E-01  1.50000000E+00
  8.00000000E-01  8.00000000E-01  1.50000000E+00  8.00000000E-01  8.00000000E-01
  1.50000000E+00  8.00000000E-01  8.00000000E-01  1.50000000E+00  8.00000000E-01
  8.00000000E-01  1.50000000E+00  8.00000000E-01  8.00000000E-01  1.50000000E+00
  8.00000000E-01  8.00000000E-01  1.50000000E+00  8.00000000E-01  8.00000000E-01
  1.50000000E+00  8.00000000E-01  8.00000000E-01  1.50000000E+00  8.00000000E-01
  8.00000000E-01  1.50000000E+00  8.00000000E-01  8.00000000E-01  1.50000000E+00
  8.00000000E-01  8.00000000E-01  1.50000000E+00  8.00000000E-01  8.00000000E-01
  1.50000000E+00  8.00000000E-01  8.00000000E-01  1.50000000E+00  8.00000000E-01
  8.00000000E-01  1.50000000E+00  8.00000000E-01  8.00000000E-01  1.50000000E+00
  8.00000000E-01  8.00000000E-01  1.50000000E+00  8.00000000E-01  8.00000000E-01
  1.50000000E+00  8.00000000E-01  8.00000000E-01  1.50000000E+00  8.00000000E-01
  8.00000000E-01  1.50000000E+00  8.00000000E-01  8.00000000E-01  1.50000000E+00
  8.00000000E-01  8.00000000E-01  1.50000000E+00  8.00000000E-01  8.00000000E-01
  1.50000000E+00  8.00000000E-01  8.00000000E-01  1.50000000E+00  8.00000000E-01
  8.00000000E-01  1.50000000E+00  8.00000000E-01  8.00000000E-01  1.50000000E+00
  8.00000000E-01  8.00000000E-01  1.50000000E+00  8.00000000E-01  8.00000000E-01
  1.50000000E+00  8.00000000E-01  8.00000000E-01  1.50000000E+00  8.00000000E-01
  8.00000000E-01  1.50000000E+00  8.00000000E-01  8.00000000E-01  1.50000000E+00
  8.00000000E-01  8.00000000E-01  1.50000000E+00  8.00000000E-01  8.00000000E-01
  1.50000000E+00  8.00000000E-01  8.00000000E-01  1.50000000E+00  8.00000000E-01
  8.00000000E-01  1.50000000E+00  8.00000000E-01  8.00000000E-01  1.50000000E+00
  8.00000000E-01  8.00000000E-01  1.50000000E+00  8.00000000E-01  8.00000000E-01
  1.50000000E+00  8.00000000E-01  8.00000000E-01  1.50000000E+00  8.00000000E-01
  8.00000000E-01  1.50000000E+00  8.00000000E-01  8.00000000E-01  1.50000000E+00
  8.00000000E-01  8.00000000E-01  1.50000000E+00  8.00000000E-01  8.00000000E-01
  1.50000000E+00  8.00000000E-01  8.00000000E-01  1.50000000E+00  8.00000000E-01
  8.00000000E-01  1.50000000E+00  8.00000000E-01  8.00000000E-01  1.50000000E+00
  8.00000000E-01  8.00000000E-01  1.50000000E+00  8.00000000E-01  8.00000000E-01
  1.50000000E+00  8.00000000E-01  8.00000000E-01  1.50000000E+00  8.00000000E-01
  8.00000000E-01  1.50000000E+00  8.00000000E-01  8.00000000E-01  1.50000000E+00
  8.00000000E-01  8.00000000E-01  1.50000000E+00  8.00000000E-01  8.00000000E-01
  1.50000000E+00  8.00000000E-01  8.00000000E-01  1.50000000E+00  8.00000000E-01
  8.00000000E-01  1.50000000E+00  8.00000000E-01  8.00000000E-01  1.50000000E+00
  8.00000000E-01  8.00000000E-01  1.50000000E+00  8.00000000E-01  8.00000000E-01
  1.50000000E+00  8.00000000E-01  8.00000000E-01  1.50000000E+00  8.00000000E-01
  8.00000000E-01  1.50000000E+00  8.00000000E-01  8.00000000E-01  1.50000000E+00
  8.00000000E-01  8.00000000E-01  1.50000000E+00  8.00000000E-01  8.00000000E-01
  1.50000000E+00  8.00000000E-01  8.00000000E-01  1.50000000E+00  8.00000000E-01
  8.00000000E-01  1.50000000E+00  8.00000000E-01  8.00000000E-01  1.50000000E+00
  8.00000000E-01  8.00000000E-01  1.50000000E+00  8.00000000E-01  8.00000000E-01
  1.50000000E+00  8.00000000E-01  8.00000000E-01  1.50000000E+00  8.00000000E-01
  8.00000000E-01  1.50000000E+00  8.00000000E-01  8.00000000E-01  1.50000000E+00
  8.00000000E-01  8.00000000E-01  1.50000000E+00  8.00000000E-01  8.00000000E-01
  1.50000000E+00  8.00000000E-01  8.00000000E-01  1.50000000E+00  8.00000000E-01
  8.00000000E-01  1.50000000E+00  8.00000000E-01  8.00000000E-01  1.50000000E+00
  8.00000000E-01  8.00000000E-01  1.50000000E+00  8.00000000E-01  8.00000000E-01
  1.50000000E+00  8.00000000E-01  8.00000000E-01  1.50000000E+00  8.00000000E-01
  8.00000000E-01  1.50000000E+00  8.00000000E-01  8.00000000E-01  1.50000000E+00
  8.00000000E-01  8.00000000E-01  1.50000000E+00  8.00000000E-01  8.00000000E-01
  1.50000000E+00  8.00000000E-01  8.00000000E-01  1.50000000E+00  8.00000000E-01
  8.00000000E-01  1.50000000E+00  8.00000000E-01  8.00000000E-01  1.50000000E+00
  8.00000000E-01  8.00000000E-01  1.50000000E+00  8.00000000E-01  8.00000000E-01
  1.50000000E+00  8.00000000E-01  8.00000000E-01  1.50000000E+00  8.00000000E-01
  8.00000000E-01  1.50000000E+00  8.00000000E-01  8.00000000E-01  1.50000000E+00
  8.00000000E-01  8.00000000E-01  1.50000000E+00  8.00000000E-01  8.00000000E-01
  1.50000000E+00  8.00000000E-01  8.00000000E-01  1.50000000E+00  8.00000000E-01
  8.00000000E-01  1.50000000E+00  8.00000000E-01  8.00000000E-01  1.50000000E+00
  8.00000000E-01  8.00000000E-01  1.50000000E+00  8.00000000E-01  8.00000000E-01
  1.50000000E+00  8.00000000E-01  8.00000000E-01  1.50000000E+00  8.00000000E-01
  8.00000000E-01  1.50000000E+00  8.00000000E-01  8.00000000E-01  1.50000000E+00
  8.00000000E-01  8.00000000E-01  1.50000000E+00  8.00000000E-01  8.00000000E-01
  1.50000000E+00  8.00000000E-01  8.00000000E-01  1.50000000E+00  8.00000000E-01
  8.00000000E-01  1.50000000E+00  8.00000000E-01  8.00000000E-01  1.50000000E+00
  8.00000000E-01  8.00000000E-01  1.50000000E+00  8.00000000E-01  8.00000000E-01
  1.50000000E+00  8.00000000E-01  8.00000000E-01  1.50000000E+00  8.00000000E-01
  8.00000000E-01  1.50000000E+00  8.00000000E-01  8.00000000E-01  1.50000000E+00
  8.00000000E-01  8.00000000E-01  1.50000000E+00  8.00000000E-01  8.00000000E-01
  1.50000000E+00  8.00000000E-01  8.00000000E-01  1.50000000E+00  8.00000000E-01
  8.00000000E-01  1.50000000E+00  8.00000000E-01  8.00000000E-01  1.50000000E+00
  8.00000000E-01  8.00000000E-01  1.50000000E+00  8.00000000E-01  8.00000000E-01
  1.50000000E+00  8.00000000E-01  8.00000000E-01  1.50000000E+00  8.00000000E-01
  8.00000000E-01  1.50000000E+00  8.00000000E-01  8.00000000E-01  1.50000000E+00
  8.00000000E-01  8.00000000E-01  1.50000000E+00  8.00000000E-01  8.00000000E-01
  1.50000000E+00  8.00000000E-01  8.00000000E-01  1.50000000E+00  8.00000000E-01
  8.00000000E-01  1.50000000E+00  8.00000000E-01  8.00000000E-01  1.50000000E+00
  8.00000000E-01  8.00000000E-01  1.50000000E+00  8.00000000E-01  8.00000000E-01
  1.50000000E+00  8.00000000E-01  8.00000000E-01  1.50000000E+00  8.00000000E-01
  8.00000000E-01  1.50000000E+00  8.00000000E-01  8.00000000E-01  1.50000000E+00
  8.00000000E-01  8.00000000E-01  1.50000000E+00  8.00000000E-01  8.00000000E-01
  1.50000000E+00  8.00000000E-01  8.00000000E-01  1.50000000E+00  8.00000000E-01
  8.00000000E-01  1.50000000E+00  8.00000000E-01  8.00000000E-01  1.50000000E+00
  8.00000000E-01  8.00000000E-01  1.50000000E+00  8.00000000E-01  8.00000000E-01
  1.50000000E+00  8.00000000E-01  8.00000000E-01  1.50000000E+00  8.00000000E-01
  8.00000000E-01  1.50000000E+00  8.00000000E-01  8.00000000E-01  1.50000000E+00
  8.00000000E-01  8.00000000E-01  1.50000000E+00  8.00000000E-01  8.00000000E-01
  1.50000000E+00  8.00000000E-01  8.00000000E-01  1.50000000E+00  8.00000000E-01
  8.00000000E-01  1.50000000E+00  8.00000000E-01  8.00000000E-01  1.50000000E+00
  8.00000000E-01  8.00000000E-01  1.50000000E+00  8.00000000E-01  8.00000000E-01
  1.50000000E+00  8.00000000E-01  8.00000000E-01  1.50000000E+00  8.00000000E-01
  8.00000000E-01  1.50000000E+00  8.00000000E-01  8.00000000E-01  1.50000000E+00
  8.00000000E-01  8.00000000E-01  1.50000000E+00  8.00000000E-01  8.00000000E-01
  1.50000000E+00  8.00000000E-01  8.00000000E-01  1.50000000E+00  8.00000000E-01
  8.00000000E-01  1.50000000E+00  8.00000000E-01  8.00000000E-01  1.50000000E+00
  8.00000000E-01  8.00000000E-01  1.50000000E+00  8.00000000E-01  8.00000000E-01
  1.50000000E+00  8.00000000E-01  8.00000000E-01  1.50000000E+00  8.00000000E-01
  8.00000000E-01  1.50000000E+00  8.00000000E-01  8.00000000E-01  1.50000000E+00
  8.00000000E-01  8.00000000E-01  1.50000000E+00  8.00000000E-01  8.00000000E-01
  1.50000000E+00  8.00000000E-01  8.00000000E-01  1.50000000E+00  8.00000000E-01
  8.00000000E-01  1.50000000E+00  8.00000000E-01  8.00000000E-01  1.50000000E+00
  8.00000000E-01  8.00000000E-01  1.50000000E+00  8.00000000E-01  8.00000000E-01
  1.50000000E+00  8.00000000E-01  8.00000000E-01  1.50000000E+00  8.00000000E-01
  8.00000000E-01  1.50000000E+00  8.00000000E-01  8.00000000E-01  1.50000000E+00
  8.00000000E-01  8.00000000E-01  1.50000000E+00  8.00000000E-01  8.00000000E-01
  1.50000000E+00  8.00000000E-01  8.00000000E-01  1.50000000E+00  8.00000000E-01
  8.00000000E-01  1.50000000E+00  8.00000000E-01  8.00000000E-01  1.50000000E+00
  8.00000000E-01  8.00000000E-01  1.50000000E+00  8.00000000E-01  8.00000000E-01
  1.50000000E+00  8.00000000E-01  8.00000000E-01  1.50000000E+00  8.00000000E-01
  8.00000000E-01  1.50000000E+00  8.00000000E-01  8.00000000E-01  1.50000000E+00
  8.00000000E-01  8.00000000E-01  1.50000000E+00  8.00000000E-01  8.00000000E-01
  1.50000000E+00  8.00000000E-01  8.00000000E-01  1.50000000E+00  8.00000000E-01
  8.00000000E-01  1.50000000E+00  8.00000000E-01  8.00000000E-01  1.50000000E+00
  8.00000000E-01  8.00000000E-01  1.50000000E+00  8.00000000E-01  8.00000000E-01
  1.50000000E+00  8.00000000E-01  8.00000000E-01  1.50000000E+00  8.00000000E-01
  8.00000000E-01  1.50000000E+00  8.00000000E-01  8.00000000E-01  1.50000000E+00
  8.00000000E-01  8.00000000E-01  1.50000000E+00  8.00000000E-01  8.00000000E-01
  1.50000000E+00  8.00000000E-01  8.00000000E-01  1.50000000E+00  8.00000000E-01
  8.00000000E-01  1.50000000E+00  8.00000000E-01  8.00000000E-01  1.50000000E+00
  8.00000000E-01  8.00000000E-01  1.50000000E+00  8.00000000E-01  8.00000000E-01
  1.50000000E+00  8.00000000E-01  8.00000000E-01  1.50000000E+00  8.00000000E-01
  8.00000000E-01  1.50000000E+00  8.00000000E-01  8.00000000E-01  1.50000000E+00
  8.00000000E-01  8.00000000E-01  1.50000000E+00  8.00000000E-01  8.00000000E-01
  1.50000000E+00  8.00000000E-01  8.00000000E-01  1.50000000E+00  8.00000000E-01
  8.00000000E-01  1.50000000E+00  8.00000000E-01  8.00000000E-01  1.50000000E+00
  8.00000000E-01  8.00000000E-01  1.50000000E+00  8.00000000E-01  8.00000000E-01
  1.50000000E+00  8.00000000E-01  8.00000000E-01  1.50000000E+00  8.00000000E-01
  8.00000000E-01  1.50000000E+00  8.00000000E-01  8.00000000E-01  1.50000000E+00
  8.00000000E-01  8.00000000E-01  1.50000000E+00  8.00000000E-01  8.00000000E-01
  1.50000000E+00  8.00000000E-01  8.00000000E-01  1.50000000E+00  8.00000000E-01
  8.00000000E-01  1.50000000E+00  8.00000000E-01  8.00000000E-01  1.50000000E+00
  8.00000000E-01  8.00000000E-01  1.50000000E+00  8.00000000E-01  8.00000000E-01
  1.50000000E+00  8.00000000E-01  8.00000000E-01  1.50000000E+00  8.00000000E-01
  8.00000000E-01  1.50000000E+00  8.00000000E-01  8.00000000E-01  1.50000000E+00
  8.00000000E-01  8.00000000E-01  1.50000000E+00  8.00000000E-01  8.00000000E-01
  1.50000000E+00  8.00000000E-01  8.00000000E-01  1.50000000E+00  8.00000000E-01
  8.00000000E-01  1.50000000E+00  8.00000000E-01  8.00000000E-01  1.50000000E+00
  8.00000000E-01  8.00000000E-01  1.50000000E+00  8.00000000E-01  8.00000000E-01
  1.50000000E+00  8.00000000E-01  8.00000000E-01  1.50000000E+00  8.00000000E-01
  8.00000000E-01  1.50000000E+00  8.00000000E-01  8.00000000E-01  1.50000000E+00
  8.00000000E-01  8.00000000E-01  1.50000000E+00  8.00000000E-01  8.00000000E-01
  1.50000000E+00  8.00000000E-01  8.00000000E-01  1.50000000E+00  8.00000000E-01
  8.00000000E-01  1.50000000E+00  8.00000000E-01  8.00000000E-01  1.50000000E+00
  8.00000000E-01  8.00000000E-01  1.50000000E+00  8.00000000E-01  8.00000000E-01
  1.50000000E+00  8.00000000E-01  8.00000000E-01  1.50000000E+00  8.00000000E-01
  8.00000000E-01  1.50000000E+00  8.00000000E-01  8.00000000E-01  1.50000000E+00
  8.00000000E-01  8.00000000E-01  1.50000000E+00  8.00000000E-01  8.00000000E-01
  1.50000000E+00  8.00000000E-01  8.00000000E-01  1.50000000E+00  8.00000000E-01
  8.00000000E-01  1.50000000E+00  8.00000000E-01  8.00000000E-01  1.50000000E+00
  8.00000000E-01  8.00000000E-01  1.50000000E+00  8.00000000E-01  8.00000000E-01
  1.50000000E+00  8.00000000E-01  8.00000000E-01  1.50000000E+00  8.00000000E-01
  8.00000000E-01  1.50000000E+00  8.00000000E-01  8.00000000E-01  1.50000000E+00
  8.00000000E-01  8.00000000E-01  1.50000000E+00  8.00000000E-01  8.00000000E-01
  1.50000000E+00  8.00000000E-01  8.00000000E-01  1.50000000E+00  8.00000000E-01
  8.00000000E-01  1.50000000E+00  8.00000000E-01  8.00000000E-01  1.50000000E+00
  8.00000000E-01  8.00000000E-01  1.50000000E+00  8.00000000E-01  8.00000000E-01
  1.50000000E+00  8.00000000E-01  8.00000000E-01  1.50000000E+00  8.00000000E-01
  8.00000000E-01  1.50000000E+00  8.00000000E-01  8.00000000E-01  1.50000000E+00
  8.00000000E-01  8.00000000E-01  1.50000000E+00  8.00000000E-01  8.00000000E-01
  1.50000000E+00  8.00000000E-01  8.00000000E-01  1.50000000E+00  8.00000000E-01
  8.00000000E-01  1.50000000E+00  8.00000000E-01  8.00000000E-01  1.50000000E+00
  8.00000000E-01  8.00000000E-01  1.50000000E+00  8.00000000E-01  8.00000000E-01
  1.50000000E+00  8.00000000E-01  8.00000000E-01  1.50000000E+00  8.00000000E-01
  8.00000000E-01  1.50000000E+00  8.00000000E-01  8.00000000E-01  1.50000000E+00
  8.00000000E-01  8.00000000E-01  1.50000000E+00  8.00000000E-01  8.00000000E-01
  1.50000000E+00  8.00000000E-01  8.00000000E-01  1.50000000E+00  8.00000000E-01
  8.00000000E-01  1.50000000E+00  8.00000000E-01  8.00000000E-01  1.50000000E+00
  8.00000000E-01  8.00000000E-01  1.50000000E+00  8.00000000E-01  8.00000000E-01
  1.50000000E+00  8.00000000E-01  8.00000000E-01  1.50000000E+00  8.00000000E-01
  8.00000000E-01  1.50000000E+00  8.00000000E-01  8.00000000E-01  1.50000000E+00
  8.00000000E-01  8.00000000E-01  1.50000000E+00  8.00000000E-01  8.00000000E-01
  1.50000000E+00  8.00000000E-01  8.00000000E-01  1.50000000E+00  8.00000000E-01
  8.00000000E-01  1.50000000E+00  8.00000000E-01  8.00000000E-01  1.50000000E+00
  8.00000000E-01  8.00000000E-01  1.50000000E+00  8.00000000E-01  8.00000000E-01
  1.50000000E+00  8.00000000E-01  8.00000000E-01  1.50000000E+00  8.00000000E-01
  8.00000000E-01  1.50000000E+00  8.00000000E-01  8.00000000E-01  1.50000000E+00
  8.00000000E-01  8.00000000E-01  1.50000000E+00  8.00000000E-01  8.00000000E-01
  1.50000000E+00  8.00000000E-01  8.00000000E-01  1.50000000E+00  8.00000000E-01
  8.00000000E-01  1.50000000E+00  8.00000000E-01  8.00000000E-01  1.50000000E+00
  8.00000000E-01  8.00000000E-01  1.50000000E+00  8.00000000E-01  8.00000000E-01
  1.50000000E+00  8.00000000E-01  8.00000000E-01  1.50000000E+00  8.00000000E-01
  8.00000000E-01  1.50000000E+00  8.00000000E-01  8.00000000E-01  1.50000000E+00
  8.00000000E-01  8.00000000E-01  1.50000000E+00  8.00000000E-01  8.00000000E-01
  1.50000000E+00  8.00000000E-01  8.00000000E-01  1.50000000E+00  8.00000000E-01
  8.00000000E-01  1.50000000E+00  8.00000000E-01  8.00000000E-01  1.50000000E+00
  8.00000000E-01  8.00000000E-01  1.50000000E+00  8.00000000E-01  8.00000000E-01
  1.50000000E+00  8.00000000E-01  8.00000000E-01  1.50000000E+00  8.00000000E-01
  8.00000000E-01  1.50000000E+00  8.00000000E-01  8.00000000E-01  1.50000000E+00
  8.00000000E-01  8.00000000E-01  1.50000000E+00  8.00000000E-01  8.00000000E-01
  1.50000000E+00  8.00000000E-01  8.00000000E-01  1.50000000E+00  8.00000000E-01
  8.00000000E-01  1.50000000E+00  8.00000000E-01  8.00000000E-01  1.50000000E+00
  8.00000000E-01  8.00000000E-01  1.50000000E+00  8.00000000E-01  8.00000000E-01
  1.50000000E+00  8.00000000E-01  8.00000000E-01  1.50000000E+00  8.00000000E-01
  8.00000000E-01  1.50000000E+00  8.00000000E-01  8.00000000E-01  1.50000000E+00
  8.00000000E-01  8.00000000E-01  1.50000000E+00  8.00000000E-01  8.00000000E-01
  1.50000000E+00  8.00000000E-01  8.00000000E-01  1.50000000E+00  8.00000000E-01
  8.00000000E-01  1.50000000E+00  8.00000000E-01  8.00000000E-01  1.50000000E+00
  8.00000000E-01  8.00000000E-01  1.50000000E+00  8.00000000E-01  8.00000000E-01
  1.50000000E+00  8.00000000E-01  8.00000000E-01  1.50000000E+00  8.00000000E-01
  8.00000000E-01  1.50000000E+00  8.00000000E-01  8.00000000E-01  1.50000000E+00
  8.00000000E-01  8.00000000E-01  1.50000000E+00  8.00000000E-01  8.00000000E-01
  1.50000000E+00  8.00000000E-01  8.00000000E-01  1.50000000E+00  8.00000000E-01
  8.00000000E-01  1.50000000E+00  8.00000000E-01  8.00000000E-01  1.50000000E+00
  8.00000000E-01  8.00000000E-01  1.50000000E+00  8.00000000E-01  8.00000000E-01
  1.50000000E+00  8.00000000E-01  8.00000000E-01  1.50000000E+00  8.00000000E-01
  8.00000000E-01  1.50000000E+00  8.00000000E-01  8.00000000E-01  1.50000000E+00
  8.00000000E-01  8.00000000E-01  1.50000000E+00  8.00000000E-01  8.00000000E-01
  1.50000000E+00  8.00000000E-01  8.00000000E-01  1.50000000E+00  8.00000000E-01
  8.00000000E-01  1.50000000E+00  8.00000000E-01  8.00000000E-01  1.50000000E+00
  8.00000000E-01  8.00000000E-01  1.50000000E+00  8.00000000E-01  8.00000000E-01
  1.50000000E+00  8.00000000E-01  8.00000000E-01  1.50000000E+00  8.00000000E-01
  8.00000000E-01  1.50000000E+00  8.00000000E-01  8.00000000E-01  1.50000000E+00
  8.00000000E-01  8.00000000E-01  1.50000000E+00  8.00000000E-01  8.00000000E-01
  1.50000000E+00  8.00000000E-01  8.00000000E-01  1.50000000E+00  8.00000000E-01
  8.00000000E-01  1.50000000E+00  8.00000000E-01  8.00000000E-01  1.50000000E+00
  8.00000000E-01  8.00000000E-01  1.50000000E+00  8.00000000E-01  8.00000000E-01
  1.50000000E+00  8.00000000E-01  8.00000000E-01  1.50000000E+00  8.00000000E-01
  8.00000000E-01  1.50000000E+00  8.00000000E-01  8.00000000E-01  1.50000000E+00
  8.00000000E-01  8.00000000E-01  1.50000000E+00  8.00000000E-01  8.00000000E-01
  1.50000000E+00  8.00000000E-01  8.00000000E-01  1.50000000E+00  8.00000000E-01
  8.00000000E-01  1.50000000E+00  8.00000000E-01  8.00000000E-01  1.50000000E+00
  8.00000000E-01  8.00000000E-01  1.50000000E+00  8.00000000E-01  8.00000000E-01
  1.50000000E+00  8.00000000E-01  8.00000000E-01  1.50000000E+00  8.00000000E-01
  8.00000000E-01  1.50000000E+00  8.00000000E-01  8.00000000E-01  1.50000000E+00
  8.00000000E-01  8.00000000E-01  1.50000000E+00  8.00000000E-01  8.00000000E-01
  1.50000000E+00  8.00000000E-01  8.00000000E-01  1.50000000E+00  8.00000000E-01
  8.00000000E-01  1.50000000E+00  8.00000000E-01  8.00000000E-01  1.50000000E+00
  8.00000000E-01  8.00000000E-01  1.50000000E+00  8.00000000E-01  8.00000000E-01
  1.50000000E+00  8.00000000E-01  8.00000000E-01  1.50000000E+00  8.00000000E-01
  8.00000000E-01  1.50000000E+00  8.00000000E-01  8.00000000E-01  1.50000000E+00
  8.00000000E-01  8.00000000E-01  1.50000000E+00  8.00000000E-01  8.00000000E-01
  1.50000000E+00  8.00000000E-01  8.00000000E-01  1.50000000E+00  8.00000000E-01
  8.00000000E-01  1.50000000E+00  8.00000000E-01  8.00000000E-01  1.50000000E+00
  8.00000000E-01  8.00000000E-01  1.50000000E+00  8.00000000E-01  8.00000000E-01
  1.50000000E+00  8.00000000E-01  8.00000000E-01  1.50000000E+00  8.00000000E-01
  8.00000000E-01  1.50000000E+00  8.00000000E-01  8.00000000E-01  1.50000000E+00
  8.00000000E-01  8.00000000E-01  1.50000000E+00  8.00000000E-01  8.00000000E-01
  1.50000000E+00  8.00000000E-01  8.00000000E-01  1.50000000E+00  8.00000000E-01
  8.00000000E-01  1.50000000E+00  8.00000000E-01  8.00000000E-01  1.50000000E+00
  8.00000000E-01  8.00000000E-01  1.50000000E+00  8.00000000E-01  8.00000000E-01
  1.50000000E+00  8.00000000E-01  8.00000000E-01  1.50000000E+00  8.00000000E-01
  8.00000000E-01  1.50000000E+00  8.00000000E-01  8.00000000E-01  1.50000000E+00
  8.00000000E-01  8.00000000E-01  1.50000000E+00  8.00000000E-01  8.00000000E-01
  1.50000000E+00  8.00000000E-01  8.00000000E-01  1.50000000E+00  8.00000000E-01
  8.00000000E-01  1.50000000E+00  8.00000000E-01  8.00000000E-01  1.50000000E+00
  8.00000000E-01  8.00000000E-01  1.50000000E+00  8.00000000E-01  8.00000000E-01
  1.50000000E+00  8.00000000E-01  8.00000000E-01  1.50000000E+00  8.00000000E-01
  8.00000000E-01  1.50000000E+00  8.00000000E-01  8.00000000E-01  1.50000000E+00
  8.00000000E-01  8.00000000E-01  1.50000000E+00  8.00000000E-01  8.00000000E-01
  1.50000000E+00  8.00000000E-01  8.00000000E-01  1.50000000E+00  8.00000000E-01
  8.00000000E-01  1.50000000E+00  8.00000000E-01  8.00000000E-01  1.50000000E+00
  8.00000000E-01  8.00000000E-01  1.50000000E+00  8.00000000E-01  8.00000000E-01
  1.50000000E+00  8.00000000E-01  8.00000000E-01  1.50000000E+00  8.00000000E-01
  8.00000000E-01  1.50000000E+00  8.00000000E-01  8.00000000E-01  1.50000000E+00
  8.00000000E-01  8.00000000E-01  1.50000000E+00  8.00000000E-01  8.00000000E-01
  1.50000000E+00  8.00000000E-01  8.00000000E-01  1.50000000E+00  8.00000000E-01
  8.00000000E-01  1.50000000E+00  8.00000000E-01  8.00000000E-01  1.50000000E+00
  8.00000000E-01  8.00000000E-01  1.50000000E+00  8.00000000E-01  8.00000000E-01
  1.50000000E+00  8.00000000E-01  8.00000000E-01  1.50000000E+00  8.00000000E-01
  8.00000000E-01  1.50000000E+00  8.00000000E-01  8.00000000E-01  1.50000000E+00
  8.00000000E-01  8.00000000E-01  1.50000000E+00  8.00000000E-01  8.00000000E-01
  1.50000000E+00  8.00000000E-01  8.00000000E-01  1.50000000E+00  8.00000000E-01
  8.00000000E-01  1.50000000E+00  8.00000000E-01  8.00000000E-01  1.50000000E+00
  8.00000000E-01  8.00000000E-01  1.50000000E+00  8.00000000E-01  8.00000000E-01
  1.50000000E+00  8.00000000E-01  8.00000000E-01  1.50000000E+00  8.00000000E-01
  8.00000000E-01  1.50000000E+00  8.00000000E-01  8.00000000E-01  1.50000000E+00
  8.00000000E-01  8.00000000E-01  1.50000000E+00  8.00000000E-01  8.00000000E-01
  1.50000000E+00  8.00000000E-01  8.00000000E-01  1.50000000E+00  8.00000000E-01
  8.00000000E-01  1.50000000E+00  8.00000000E-01  8.00000000E-01  1.50000000E+00
  8.00000000E-01  8.00000000E-01  1.50000000E+00  8.00000000E-01  8.00000000E-01
  1.50000000E+00  8.00000000E-01  8.00000000E-01  1.50000000E+00  8.00000000E-01
  8.00000000E-01  1.50000000E+00  8.00000000E-01  8.00000000E-01  1.50000000E+00
  8.00000000E-01  8.00000000E-01  1.50000000E+00  8.00000000E-01  8.00000000E-01
  1.50000000E+00  8.00000000E-01  8.00000000E-01  1.50000000E+00  8.00000000E-01
  8.00000000E-01  1.50000000E+00  8.00000000E-01  8.00000000E-01  1.50000000E+00
  8.00000000E-01  8.00000000E-01  1.50000000E+00  8.00000000E-01  8.00000000E-01
  1.50000000E+00  8.00000000E-01  8.00000000E-01  1.50000000E+00  8.00000000E-01
  8.00000000E-01  1.50000000E+00  8.00000000E-01  8.00000000E-01  1.50000000E+00
  8.00000000E-01  8.00000000E-01  1.50000000E+00  8.00000000E-01  8.00000000E-01
  1.50000000E+00  8.00000000E-01  8.00000000E-01  1.50000000E+00  8.00000000E-01
  8.00000000E-01  1.50000000E+00  8.00000000E-01  8.00000000E-01  1.50000000E+00
  8.00000000E-01  8.00000000E-01  1.50000000E+00  8.00000000E-01  8.00000000E-01
  1.50000000E+00  8.00000000E-01  8.00000000E-01  1.50000000E+00  8.00000000E-01
  8.00000000E-01  1.50000000E+00  8.00000000E-01  8.00000000E-01  1.50000000E+00
  8.00000000E-01  8.00000000E-01  1.50000000E+00  8.00000000E-01  8.00000000E-01
  1.50000000E+00  8.00000000E-01  8.00000000E-01  1.50000000E+00  8.00000000E-01
  8.00000000E-01  1.50000000E+00  8.00000000E-01  8.00000000E-01  1.50000000E+00
  8.00000000E-01  8.00000000E-01  1.50000000E+00  8.00000000E-01  8.00000000E-01
  1.50000000E+00  8.00000000E-01  8.00000000E-01  1.50000000E+00  8.00000000E-01
  8.00000000E-01  1.50000000E+00  8.00000000E-01  8.00000000E-01  1.50000000E+00
  8.00000000E-01  8.00000000E-01  1.50000000E+00  8.00000000E-01  8.00000000E-01
  1.50000000E+00  8.00000000E-01  8.00000000E-01  1.50000000E+00  8.00000000E-01
  8.00000000E-01  1.50000000E+00  8.00000000E-01  8.00000000E-01  1.50000000E+00
  8.00000000E-01  8.00000000E-01  1.50000000E+00  8.00000000E-01  8.00000000E-01
  1.50000000E+00  8.00000000E-01  8.00000000E-01  1.50000000E+00  8.00000000E-01
  8.00000000E-01  1.50000000E+00  8.00000000E-01  8.00000000E-01  1.50000000E+00
  8.00000000E-01  8.00000000E-01  1.50000000E+00  8.00000000E-01  8.00000000E-01
  1.50000000E+00  8.00000000E-01  8.00000000E-01  1.50000000E+00  8.00000000E-01
  8.00000000E-01  1.50000000E+00  8.00000000E-01  8.00000000E-01  1.50000000E+00
  8.00000000E-01  8.00000000E-01  1.50000000E+00  8.00000000E-01  8.00000000E-01
  1.50000000E+00  8.00000000E-01  8.00000000E-01  1.50000000E+00  8.00000000E-01
  8.00000000E-01  1.50000000E+00  8.00000000E-01  8.00000000E-01  1.50000000E+00
  8.00000000E-01  8.00000000E-01  1.50000000E+00  8.00000000E-01  8.00000000E-01
  1.50000000E+00  8.00000000E-01  8.00000000E-01  1.50000000E+00  8.00000000E-01
  8.00000000E-01  1.50000000E+00  8.00000000E-01  8.00000000E-01  1.50000000E+00
  8.00000000E-01  8.00000000E-01  1.50000000E+00  8.00000000E-01  8.00000000E-01
  1.50000000E+00  8.00000000E-01  8.00000000E-01  1.50000000E+00  8.00000000E-01
  8.00000000E-01  1.50000000E+00  8.00000000E-01  8.00000000E-01  1.50000000E+00
  8.00000000E-01  8.00000000E-01  1.50000000E+00  8.00000000E-01  8.00000000E-01
  1.50000000E+00  8.00000000E-01  8.00000000E-01  1.50000000E+00  8.00000000E-01
  8.00000000E-01  1.50000000E+00  8.00000000E-01  8.00000000E-01  1.50000000E+00
  8.00000000E-01  8.00000000E-01  1.50000000E+00  8.00000000E-01  8.00000000E-01
  1.50000000E+00  8.00000000E-01  8.00000000E-01  1.50000000E+00  8.00000000E-01
  8.00000000E-01  1.50000000E+00  8.00000000E-01  8.00000000E-01  1.50000000E+00
  8.00000000E-01  8.00000000E-01  1.50000000E+00  8.00000000E-01  8.00000000E-01
  1.50000000E+00  8.00000000E-01  8.00000000E-01  1.50000000E+00  8.00000000E-01
  8.00000000E-01  1.50000000E+00  8.00000000E-01  8.00000000E-01  1.50000000E+00
  8.00000000E-01  8.00000000E-01  1.50000000E+00  8.00000000E-01  8.00000000E-01
  1.50000000E+00  8.00000000E-01  8.00000000E-01  1.50000000E+00  8.00000000E-01
  8.00000000E-01  1.50000000E+00  8.00000000E-01  8.00000000E-01  1.50000000E+00
  8.00000000E-01  8.00000000E-01  1.50000000E+00  8.00000000E-01  8.00000000E-01
  1.50000000E+00  8.00000000E-01  8.00000000E-01  1.50000000E+00  8.00000000E-01
  8.00000000E-01  1.50000000E+00  8.00000000E-01  8.00000000E-01  1.50000000E+00
  8.00000000E-01  8.00000000E-01  1.50000000E+00  8.00000000E-01  8.00000000E-01
  1.50000000E+00  8.00000000E-01  8.00000000E-01  1.50000000E+00  8.00000000E-01
  8.00000000E-01  1.50000000E+00  8.00000000E-01  8.00000000E-01  1.50000000E+00
  8.00000000E-01  8.00000000E-01  1.50000000E+00  8.00000000E-01  8.00000000E-01
  1.50000000E+00  8.00000000E-01  8.00000000E-01  1.50000000E+00  8.00000000E-01
  8.00000000E-01  1.50000000E+00  8.00000000E-01  8.00000000E-01  1.50000000E+00
  8.00000000E-01  8.00000000E-01  1.50000000E+00  8.00000000E-01  8.00000000E-01
  1.50000000E+00  8.00000000E-01  8.00000000E-01  1.50000000E+00  8.00000000E-01
  8.00000000E-01  1.50000000E+00  8.00000000E-01  8.00000000E-01  1.50000000E+00
  8.00000000E-01  8.00000000E-01  1.50000000E+00  8.00000000E-01  8.00000000E-01
  1.50000000E+00  8.00000000E-01  8.00000000E-01  1.50000000E+00  8.00000000E-01
  8.00000000E-01  1.50000000E+00  8.00000000E-01  8.00000000E-01  1.50000000E+00
  8.00000000E-01  8.00000000E-01  1.50000000E+00  8.00000000E-01  8.00000000E-01
  1.50000000E+00  8.00000000E-01  8.00000000E-01  1.50000000E+00  8.00000000E-01
  8.00000000E-01  1.50000000E+00  8.00000000E-01  8.00000000E-01  1.50000000E+00
  8.00000000E-01  8.00000000E-01  1.50000000E+00  8.00000000E-01  8.00000000E-01
  1.50000000E+00  8.00000000E-01  8.00000000E-01  1.50000000E+00  8.00000000E-01
  8.00000000E-01  1.50000000E+00  8.00000000E-01  8.00000000E-01  1.50000000E+00
  8.00000000E-01  8.00000000E-01  1.50000000E+00  8.00000000E-01  8.00000000E-01
  1.50000000E+00  8.00000000E-01  8.00000000E-01  1.50000000E+00  8.00000000E-01
  8.00000000E-01  1.50000000E+00  8.00000000E-01  8.00000000E-01  1.50000000E+00
  8.00000000E-01  8.00000000E-01  1.50000000E+00  8.00000000E-01  8.00000000E-01
  1.50000000E+00  8.00000000E-01  8.00000000E-01  1.50000000E+00  8.00000000E-01
  8.00000000E-01  1.50000000E+00  8.00000000E-01  8.00000000E-01  1.50000000E+00
  8.00000000E-01  8.00000000E-01  1.50000000E+00  8.00000000E-01  8.00000000E-01
  1.50000000E+00  8.00000000E-01  8.00000000E-01  1.50000000E+00  8.00000000E-01
  8.00000000E-01  1.50000000E+00  8.00000000E-01  8.00000000E-01  1.50000000E+00
  8.00000000E-01  8.00000000E-01  1.50000000E+00  8.00000000E-01  8.00000000E-01
  1.50000000E+00  8.00000000E-01  8.00000000E-01  1.50000000E+00  8.00000000E-01
  8.00000000E-01  1.50000000E+00  8.00000000E-01  8.00000000E-01  1.50000000E+00
  8.00000000E-01  8.00000000E-01  1.50000000E+00  8.00000000E-01  8.00000000E-01
  1.50000000E+00  8.00000000E-01  8.00000000E-01  1.50000000E+00  8.00000000E-01
  8.00000000E-01  1.50000000E+00  8.00000000E-01  8.00000000E-01  1.50000000E+00
  8.00000000E-01  8.00000000E-01  1.50000000E+00  8.00000000E-01  8.00000000E-01
  1.50000000E+00  8.00000000E-01  8.00000000E-01  1.50000000E+00  8.00000000E-01
  8.00000000E-01  1.50000000E+00  8.00000000E-01  8.00000000E-01  1.50000000E+00
  8.00000000E-01  8.00000000E-01  1.50000000E+00  8.00000000E-01  8.00000000E-01
  1.50000000E+00  8.00000000E-01  8.00000000E-01  1.50000000E+00  8.00000000E-01
  8.00000000E-01  1.50000000E+00  8.00000000E-01  8.00000000E-01  1.50000000E+00
  8.00000000E-01  8.00000000E-01  1.50000000E+00  8.00000000E-01  8.00000000E-01
  1.50000000E+00  8.00000000E-01  8.00000000E-01  1.50000000E+00  8.00000000E-01
  8.00000000E-01  1.50000000E+00  8.00000000E-01  8.00000000E-01  1.50000000E+00
  8.00000000E-01  8.00000000E-01  1.50000000E+00  8.00000000E-01  8.00000000E-01
  1.50000000E+00  8.00000000E-01  8.00000000E-01  1.50000000E+00  8.00000000E-01
  8.00000000E-01  1.50000000E+00  8.00000000E-01  8.00000000E-01  1.50000000E+00
  8.00000000E-01  8.00000000E-01  1.50000000E+00  8.00000000E-01  8.00000000E-01
  1.50000000E+00  8.00000000E-01  8.00000000E-01  1.50000000E+00  8.00000000E-01
  8.00000000E-01  1.50000000E+00  8.00000000E-01  8.00000000E-01  1.50000000E+00
  8.00000000E-01  8.00000000E-01  1.50000000E+00  8.00000000E-01  8.00000000E-01
  1.50000000E+00  8.00000000E-01  8.00000000E-01  1.50000000E+00  8.00000000E-01
  8.00000000E-01  1.50000000E+00  8.00000000E-01  8.00000000E-01  1.50000000E+00
  8.00000000E-01  8.00000000E-01  1.50000000E+00  8.00000000E-01  8.00000000E-01
  1.50000000E+00  8.00000000E-01  8.00000000E-01  1.50000000E+00  8.00000000E-01
  8.00000000E-01  1.50000000E+00  8.00000000E-01  8.00000000E-01  1.50000000E+00
  8.00000000E-01  8.00000000E-01  1.50000000E+00  8.00000000E-01  8.00000000E-01
  1.50000000E+00  8.00000000E-01  8.00000000E-01  1.50000000E+00  8.00000000E-01
  8.00000000E-01  1.50000000E+00  8.00000000E-01  8.00000000E-01  1.50000000E+00
  8.00000000E-01  8.00000000E-01  1.50000000E+00  8.00000000E-01  8.00000000E-01
  1.50000000E+00  8.00000000E-01  8.00000000E-01  1.50000000E+00  8.00000000E-01
  8.00000000E-01  1.50000000E+00  8.00000000E-01  8.00000000E-01  1.50000000E+00
  8.00000000E-01  8.00000000E-01  1.50000000E+00  8.00000000E-01  8.00000000E-01
  1.50000000E+00  8.00000000E-01  8.00000000E-01  1.50000000E+00  8.00000000E-01
  8.00000000E-01  1.50000000E+00  8.00000000E-01  8.00000000E-01  1.50000000E+00
  8.00000000E-01  8.00000000E-01  1.50000000E+00  8.00000000E-01  8.00000000E-01
  1.50000000E+00  8.00000000E-01  8.00000000E-01  1.50000000E+00  8.00000000E-01
  8.00000000E-01  1.50000000E+00  8.00000000E-01  8.00000000E-01  1.50000000E+00
  8.00000000E-01  8.00000000E-01  1.50000000E+00  8.00000000E-01  8.00000000E-01
  1.50000000E+00  8.00000000E-01  8.00000000E-01  1.50000000E+00  8.00000000E-01
  8.00000000E-01  1.50000000E+00  8.00000000E-01  8.00000000E-01  1.50000000E+00
  8.00000000E-01  8.00000000E-01  1.50000000E+00  8.00000000E-01  8.00000000E-01
  1.50000000E+00  8.00000000E-01  8.00000000E-01  1.50000000E+00  8.00000000E-01
  8.00000000E-01  1.50000000E+00  8.00000000E-01  8.00000000E-01  1.50000000E+00
  8.00000000E-01  8.00000000E-01  1.50000000E+00  8.00000000E-01  8.00000000E-01
  1.50000000E+00  8.00000000E-01  8.00000000E-01  1.50000000E+00  8.00000000E-01
  8.00000000E-01  1.50000000E+00  8.00000000E-01  8.00000000E-01  1.50000000E+00
  8.00000000E-01  8.00000000E-01  1.50000000E+00  8.00000000E-01  8.00000000E-01
  1.50000000E+00  8.00000000E-01  8.00000000E-01  1.50000000E+00  8.00000000E-01
  8.00000000E-01  1.50000000E+00  8.00000000E-01  8.00000000E-01  1.50000000E+00
  8.00000000E-01  8.00000000E-01  1.50000000E+00  8.00000000E-01  8.00000000E-01
  1.50000000E+00  8.00000000E-01  8.00000000E-01  1.50000000E+00  8.00000000E-01
  8.00000000E-01  1.50000000E+00  8.00000000E-01  8.00000000E-01  1.50000000E+00
  8.00000000E-01  8.00000000E-01  1.50000000E+00  8.00000000E-01  8.00000000E-01
  1.50000000E+00  8.00000000E-01  8.00000000E-01  1.50000000E+00  8.00000000E-01
  8.00000000E-01  1.50000000E+00  8.00000000E-01  8.00000000E-01  1.50000000E+00
  8.00000000E-01  8.00000000E-01  1.50000000E+00  8.00000000E-01  8.00000000E-01
  1.50000000E+00  8.00000000E-01  8.00000000E-01  1.50000000E+00  8.00000000E-01
  8.00000000E-01  1.50000000E+00  8.00000000E-01  8.00000000E-01  1.50000000E+00
  8.00000000E-01  8.00000000E-01  1.50000000E+00  8.00000000E-01  8.00000000E-01
  1.50000000E+00  8.00000000E-01  8.00000000E-01  1.50000000E+00  8.00000000E-01
  8.00000000E-01  1.50000000E+00  8.00000000E-01  8.00000000E-01  1.50000000E+00
  8.00000000E-01  8.00000000E-01  1.50000000E+00  8.00000000E-01  8.00000000E-01
  1.50000000E+00  8.00000000E-01  8.00000000E-01  1.50000000E+00  8.00000000E-01
  8.00000000E-01  1.50000000E+00  8.00000000E-01  8.00000000E-01  1.50000000E+00
  8.00000000E-01  8.00000000E-01  1.50000000E+00  8.00000000E-01  8.00000000E-01
  1.50000000E+00  8.00000000E-01  8.00000000E-01  1.50000000E+00  8.00000000E-01
  8.00000000E-01  1.50000000E+00  8.00000000E-01  8.00000000E-01  1.50000000E+00
  8.00000000E-01  8.00000000E-01  1.50000000E+00  8.00000000E-01  8.00000000E-01
  1.50000000E+00  8.00000000E-01  8.00000000E-01  1.50000000E+00  8.00000000E-01
  8.00000000E-01  1.50000000E+00  8.00000000E-01  8.00000000E-01  1.50000000E+00
  8.00000000E-01  8.00000000E-01  1.50000000E+00  8.00000000E-01  8.00000000E-01
  1.50000000E+00  8.00000000E-01  8.00000000E-01  1.50000000E+00  8.00000000E-01
  8.00000000E-01  1.50000000E+00  8.00000000E-01  8.00000000E-01  1.50000000E+00
  8.00000000E-01  8.00000000E-01  1.50000000E+00  8.00000000E-01  8.00000000E-01
  1.50000000E+00  8.00000000E-01  8.00000000E-01  1.50000000E+00  8.00000000E-01
  8.00000000E-01  1.50000000E+00  8.00000000E-01  8.00000000E-01  1.50000000E+00
  8.00000000E-01  8.00000000E-01  1.50000000E+00  8.00000000E-01  8.00000000E-01
  1.50000000E+00  8.00000000E-01  8.00000000E-01  1.50000000E+00  8.00000000E-01
  8.00000000E-01  1.50000000E+00  8.00000000E-01  8.00000000E-01  1.50000000E+00
  8.00000000E-01  8.00000000E-01  1.50000000E+00  8.00000000E-01  8.00000000E-01
  1.50000000E+00  8.00000000E-01  8.00000000E-01  1.50000000E+00  8.00000000E-01
  8.00000000E-01  1.50000000E+00  8.00000000E-01  8.00000000E-01  1.50000000E+00
  8.00000000E-01  8.00000000E-01  1.50000000E+00  8.00000000E-01  8.00000000E-01
  1.50000000E+00  8.00000000E-01  8.00000000E-01  1.50000000E+00  8.00000000E-01
  8.00000000E-01  1.50000000E+00  8.00000000E-01  8.00000000E-01  1.50000000E+00
  8.00000000E-01  8.00000000E-01  1.50000000E+00  8.00000000E-01  8.00000000E-01
  1.50000000E+00  8.00000000E-01  8.00000000E-01  1.50000000E+00  8.00000000E-01
  8.00000000E-01  1.50000000E+00  8.00000000E-01  8.00000000E-01  1.50000000E+00
  8.00000000E-01  8.00000000E-01  1.50000000E+00  8.00000000E-01  8.00000000E-01
  1.50000000E+00  8.00000000E-01  8.00000000E-01  1.50000000E+00  8.00000000E-01
  8.00000000E-01  1.50000000E+00  8.00000000E-01  8.00000000E-01  1.50000000E+00
  8.00000000E-01  8.00000000E-01  1.50000000E+00  8.00000000E-01  8.00000000E-01
  1.50000000E+00  8.00000000E-01  8.00000000E-01  1.50000000E+00  8.00000000E-01
  8.00000000E-01  1.50000000E+00  8.00000000E-01  8.00000000E-01  1.50000000E+00
  8.00000000E-01  8.00000000E-01  1.50000000E+00  8.00000000E-01  8.00000000E-01
  1.50000000E+00  8.00000000E-01  8.00000000E-01  1.50000000E+00  8.00000000E-01
  8.00000000E-01  1.50000000E+00  8.00000000E-01  8.00000000E-01  1.50000000E+00
  8.00000000E-01  8.00000000E-01  1.50000000E+00  8.00000000E-01  8.00000000E-01
  1.50000000E+00  8.00000000E-01  8.00000000E-01  1.50000000E+00  8.00000000E-01
  8.00000000E-01  1.50000000E+00  8.00000000E-01  8.00000000E-01  1.50000000E+00
  8.00000000E-01  8.00000000E-01  1.50000000E+00  8.00000000E-01  8.00000000E-01
  1.50000000E+00  8.00000000E-01  8.00000000E-01  1.50000000E+00  8.00000000E-01
  8.00000000E-01  1.50000000E+00  8.00000000E-01  8.00000000E-01  1.50000000E+00
  8.00000000E-01  8.00000000E-01  1.50000000E+00  8.00000000E-01  8.00000000E-01
  1.50000000E+00  8.00000000E-01  8.00000000E-01  1.50000000E+00  8.00000000E-01
  8.00000000E-01  1.50000000E+00  8.00000000E-01  8.00000000E-01  1.50000000E+00
  8.00000000E-01  8.00000000E-01  1.50000000E+00  8.00000000E-01  8.00000000E-01
  1.50000000E+00  8.00000000E-01  8.00000000E-01  1.50000000E+00  8.00000000E-01
  8.00000000E-01  1.50000000E+00  8.00000000E-01  8.00000000E-01  1.50000000E+00
  8.00000000E-01  8.00000000E-01  1.50000000E+00  8.00000000E-01  8.00000000E-01
  1.50000000E+00  8.00000000E-01  8.00000000E-01  1.50000000E+00  8.00000000E-01
  8.00000000E-01  1.50000000E+00  8.00000000E-01  8.00000000E-01  1.50000000E+00
  8.00000000E-01  8.00000000E-01  1.50000000E+00  8.00000000E-01  8.00000000E-01
  1.50000000E+00  8.00000000E-01  8.00000000E-01  1.50000000E+00  8.00000000E-01
  8.00000000E-01  1.50000000E+00  8.00000000E-01  8.00000000E-01  1.50000000E+00
  8.00000000E-01  8.00000000E-01  1.50000000E+00  8.00000000E-01  8.00000000E-01
  1.50000000E+00  8.00000000E-01  8.00000000E-01  1.50000000E+00  8.00000000E-01
  8.00000000E-01  1.50000000E+00  8.00000000E-01  8.00000000E-01  1.50000000E+00
  8.00000000E-01  8.00000000E-01  1.50000000E+00  8.00000000E-01  8.00000000E-01
  1.50000000E+00  8.00000000E-01  8.00000000E-01  1.50000000E+00  8.00000000E-01
  8.00000000E-01  1.50000000E+00  8.00000000E-01  8.00000000E-01  1.50000000E+00
  8.00000000E-01  8.00000000E-01  1.50000000E+00  8.00000000E-01  8.00000000E-01
  1.50000000E+00  8.00000000E-01  8.00000000E-01  1.50000000E+00  8.00000000E-01
  8.00000000E-01  1.50000000E+00  8.00000000E-01  8.00000000E-01  1.50000000E+00
  8.00000000E-01  8.00000000E-01  1.50000000E+00  8.00000000E-01  8.00000000E-01
  1.50000000E+00  8.00000000E-01  8.00000000E-01  1.50000000E+00  8.00000000E-01
  8.00000000E-01  1.50000000E+00  8.00000000E-01  8.00000000E-01  1.50000000E+00
  8.00000000E-01  8.00000000E-01  1.50000000E+00  8.00000000E-01  8.00000000E-01
  1.50000000E+00  8.00000000E-01  8.00000000E-01  1.50000000E+00  8.00000000E-01
  8.00000000E-01  1.50000000E+00  8.00000000E-01  8.00000000E-01  1.50000000E+00
  8.00000000E-01  8.00000000E-01  1.50000000E+00  8.00000000E-01  8.00000000E-01
  1.50000000E+00  8.00000000E-01  8.00000000E-01  1.50000000E+00  8.00000000E-01
  8.00000000E-01  1.50000000E+00  8.00000000E-01  8.00000000E-01  1.50000000E+00
  8.00000000E-01  8.00000000E-01  1.50000000E+00  8.00000000E-01  8.00000000E-01
  1.50000000E+00  8.00000000E-01  8.00000000E-01  1.50000000E+00  8.00000000E-01
  8.00000000E-01  1.50000000E+00  8.00000000E-01  8.00000000E-01  1.50000000E+00
  8.00000000E-01  8.00000000E-01  1.50000000E+00  8.00000000E-01  8.00000000E-01
  1.50000000E+00  8.00000000E-01  8.00000000E-01  1.50000000E+00  8.00000000E-01
  8.00000000E-01  1.50000000E+00  8.00000000E-01  8.00000000E-01  1.50000000E+00
  8.00000000E-01  8.00000000E-01  1.50000000E+00  8.00000000E-01  8.00000000E-01
  1.50000000E+00  8.00000000E-01  8.00000000E-01  1.50000000E+00  8.00000000E-01
  8.00000000E-01  1.50000000E+00  8.00000000E-01  8.00000000E-01  1.50000000E+00
  8.00000000E-01  8.00000000E-01  1.50000000E+00  8.00000000E-01  8.00000000E-01
  1.50000000E+00  8.00000000E-01  8.00000000E-01  1.50000000E+00  8.00000000E-01
  8.00000000E-01  1.50000000E+00  8.00000000E-01  8.00000000E-01  1.50000000E+00
  8.00000000E-01  8.00000000E-01  1.50000000E+00  8.00000000E-01  8.00000000E-01
  1.50000000E+00  8.00000000E-01  8.00000000E-01  1.50000000E+00  8.00000000E-01
  8.00000000E-01  1.50000000E+00  8.00000000E-01  8.00000000E-01  1.50000000E+00
  8.00000000E-01  8.00000000E-01  1.50000000E+00  8.00000000E-01  8.00000000E-01
  1.50000000E+00  8.00000000E-01  8.00000000E-01  1.50000000E+00  8.00000000E-01
  8.00000000E-01  1.50000000E+00  8.00000000E-01  8.00000000E-01  1.50000000E+00
  8.00000000E-01  8.00000000E-01  1.50000000E+00  8.00000000E-01  8.00000000E-01
  1.50000000E+00  8.00000000E-01  8.00000000E-01  1.50000000E+00  8.00000000E-01
  8.00000000E-01  1.50000000E+00  8.00000000E-01  8.00000000E-01  1.50000000E+00
  8.00000000E-01  8.00000000E-01  1.50000000E+00  8.00000000E-01  8.00000000E-01
  1.50000000E+00  8.00000000E-01  8.00000000E-01  1.50000000E+00  8.00000000E-01
  8.00000000E-01  1.50000000E+00  8.00000000E-01  8.00000000E-01  1.50000000E+00
  8.00000000E-01  8.00000000E-01  1.50000000E+00  8.00000000E-01  8.00000000E-01
  1.50000000E+00  8.00000000E-01  8.00000000E-01  1.50000000E+00  8.00000000E-01
  8.00000000E-01  1.50000000E+00  8.00000000E-01  8.00000000E-01  1.50000000E+00
  8.00000000E-01  8.00000000E-01  1.50000000E+00  8.00000000E-01  8.00000000E-01
  1.50000000E+00  8.00000000E-01  8.00000000E-01  1.50000000E+00  8.00000000E-01
  8.00000000E-01  1.50000000E+00  8.00000000E-01  8.00000000E-01  1.50000000E+00
  8.00000000E-01  8.00000000E-01  1.50000000E+00  8.00000000E-01  8.00000000E-01
  1.50000000E+00  8.00000000E-01  8.00000000E-01  1.50000000E+00  8.00000000E-01
  8.00000000E-01  1.50000000E+00  8.00000000E-01  8.00000000E-01  1.50000000E+00
  8.00000000E-01  8.00000000E-01  1.50000000E+00  8.00000000E-01  8.00000000E-01
  1.50000000E+00  8.00000000E-01  8.00000000E-01  1.50000000E+00  8.00000000E-01
  8.00000000E-01  1.50000000E+00  8.00000000E-01  8.00000000E-01  1.50000000E+00
  8.00000000E-01  8.00000000E-01  1.50000000E+00  8.00000000E-01  8.00000000E-01
  1.50000000E+00  8.00000000E-01  8.00000000E-01  1.50000000E+00  8.00000000E-01
  8.00000000E-01  1.50000000E+00  8.00000000E-01  8.00000000E-01  1.50000000E+00
  8.00000000E-01  8.00000000E-01  1.50000000E+00  8.00000000E-01  8.00000000E-01
  1.50000000E+00  8.00000000E-01  8.00000000E-01  1.50000000E+00  8.00000000E-01
  8.00000000E-01  1.50000000E+00  8.00000000E-01  8.00000000E-01  1.50000000E+00
  8.00000000E-01  8.00000000E-01  1.50000000E+00  8.00000000E-01  8.00000000E-01
  1.50000000E+00  8.00000000E-01  8.00000000E-01  1.50000000E+00  8.00000000E-01
  8.00000000E-01  1.50000000E+00  8.00000000E-01  8.00000000E-01  1.50000000E+00
  8.00000000E-01  8.00000000E-01  1.50000000E+00  8.00000000E-01  8.00000000E-01
  1.50000000E+00  8.00000000E-01  8.00000000E-01  1.50000000E+00  8.00000000E-01
  8.00000000E-01  1.50000000E+00  8.00000000E-01  8.00000000E-01  1.50000000E+00
  8.00000000E-01  8.00000000E-01  1.50000000E+00  8.00000000E-01  8.00000000E-01
  1.50000000E+00  8.00000000E-01  8.00000000E-01  1.50000000E+00  8.00000000E-01
  8.00000000E-01  1.50000000E+00  8.00000000E-01  8.00000000E-01  1.50000000E+00
  8.00000000E-01  8.00000000E-01  1.50000000E+00  8.00000000E-01  8.00000000E-01
  1.50000000E+00  8.00000000E-01  8.00000000E-01  1.50000000E+00  8.00000000E-01
  8.00000000E-01  1.50000000E+00  8.00000000E-01  8.00000000E-01  1.50000000E+00
  8.00000000E-01  8.00000000E-01  1.50000000E+00  8.00000000E-01  8.00000000E-01
  1.50000000E+00  8.00000000E-01  8.00000000E-01  1.50000000E+00  8.00000000E-01
  8.00000000E-01  1.50000000E+00  8.00000000E-01  8.00000000E-01  1.50000000E+00
  8.00000000E-01  8.00000000E-01  1.50000000E+00  8.00000000E-01  8.00000000E-01
  1.50000000E+00  8.00000000E-01  8.00000000E-01  1.50000000E+00  8.00000000E-01
  8.00000000E-01  1.50000000E+00  8.00000000E-01  8.00000000E-01  1.50000000E+00
  8.00000000E-01  8.00000000E-01  1.50000000E+00  8.00000000E-01  8.00000000E-01
  1.50000000E+00  8.00000000E-01  8.00000000E-01  1.50000000E+00  8.00000000E-01
  8.00000000E-01  1.50000000E+00  8.00000000E-01  8.00000000E-01  1.50000000E+00
  8.00000000E-01  8.00000000E-01  1.50000000E+00  8.00000000E-01  8.00000000E-01
  1.50000000E+00  8.00000000E-01  8.00000000E-01  1.50000000E+00  8.00000000E-01
  8.00000000E-01  1.50000000E+00  8.00000000E-01  8.00000000E-01  1.50000000E+00
  8.00000000E-01  8.00000000E-01  1.50000000E+00  8.00000000E-01  8.00000000E-01
  1.50000000E+00  8.00000000E-01  8.00000000E-01  1.50000000E+00  8.00000000E-01
  8.00000000E-01  1.50000000E+00  8.00000000E-01  8.00000000E-01  1.50000000E+00
  8.00000000E-01  8.00000000E-01  1.50000000E+00  8.00000000E-01  8.00000000E-01
  1.50000000E+00  8.00000000E-01  8.00000000E-01  1.50000000E+00  8.00000000E-01
  8.00000000E-01  1.50000000E+00  8.00000000E-01  8.00000000E-01  1.50000000E+00
  8.00000000E-01  8.00000000E-01  1.50000000E+00  8.00000000E-01  8.00000000E-01
  1.50000000E+00  8.00000000E-01  8.00000000E-01  1.50000000E+00  8.00000000E-01
  8.00000000E-01  1.50000000E+00  8.00000000E-01  8.00000000E-01  1.50000000E+00
  8.00000000E-01  8.00000000E-01  1.50000000E+00  8.00000000E-01  8.00000000E-01
  1.50000000E+00  8.00000000E-01  8.00000000E-01  1.50000000E+00  8.00000000E-01
  8.00000000E-01  1.50000000E+00  8.00000000E-01  8.00000000E-01  1.50000000E+00
  8.00000000E-01  8.00000000E-01  1.50000000E+00  8.00000000E-01  8.00000000E-01
  1.50000000E+00  8.00000000E-01  8.00000000E-01  1.50000000E+00  8.00000000E-01
  8.00000000E-01  1.50000000E+00  8.00000000E-01  8.00000000E-01  1.50000000E+00
  8.00000000E-01  8.00000000E-01  1.50000000E+00  8.00000000E-01  8.00000000E-01
  1.50000000E+00  8.00000000E-01  8.00000000E-01  1.50000000E+00  8.00000000E-01
  8.00000000E-01  1.50000000E+00  8.00000000E-01  8.00000000E-01  1.50000000E+00
  8.00000000E-01  8.00000000E-01  1.50000000E+00  8.00000000E-01  8.00000000E-01
  1.50000000E+00  8.00000000E-01  8.00000000E-01  1.50000000E+00  8.00000000E-01
  8.00000000E-01  1.50000000E+00  8.00000000E-01  8.00000000E-01  1.50000000E+00
  8.00000000E-01  8.00000000E-01  1.50000000E+00  8.00000000E-01  8.00000000E-01
  1.50000000E+00  8.00000000E-01  8.00000000E-01  1.50000000E+00  8.00000000E-01
  8.00000000E-01  1.50000000E+00  8.00000000E-01  8.00000000E-01  1.50000000E+00
  8.00000000E-01  8.00000000E-01  1.50000000E+00  8.00000000E-01  8.00000000E-01
  1.50000000E+00  8.00000000E-01  8.00000000E-01  1.50000000E+00  8.00000000E-01
  8.00000000E-01  1.50000000E+00  8.00000000E-01  8.00000000E-01  1.50000000E+00
  8.00000000E-01  8.00000000E-01  1.50000000E+00  8.00000000E-01  8.00000000E-01
  1.50000000E+00  8.00000000E-01  8.00000000E-01  1.50000000E+00  8.00000000E-01
  8.00000000E-01  1.50000000E+00  8.00000000E-01  8.00000000E-01  1.50000000E+00
  8.00000000E-01  8.00000000E-01  1.50000000E+00  8.00000000E-01  8.00000000E-01
  1.50000000E+00  8.00000000E-01  8.00000000E-01  1.50000000E+00  8.00000000E-01
  8.00000000E-01  1.50000000E+00  8.00000000E-01  8.00000000E-01  1.50000000E+00
  8.00000000E-01  8.00000000E-01  1.50000000E+00  8.00000000E-01  8.00000000E-01
  1.50000000E+00  8.00000000E-01  8.00000000E-01  1.50000000E+00  8.00000000E-01
  8.00000000E-01  1.50000000E+00  8.00000000E-01  8.00000000E-01  1.50000000E+00
  8.00000000E-01  8.00000000E-01  1.50000000E+00  8.00000000E-01  8.00000000E-01
  1.50000000E+00  8.00000000E-01  8.00000000E-01  1.50000000E+00  8.00000000E-01
  8.00000000E-01  1.50000000E+00  8.00000000E-01  8.00000000E-01  1.50000000E+00
  8.00000000E-01  8.00000000E-01  1.50000000E+00  8.00000000E-01  8.00000000E-01
  1.50000000E+00  8.00000000E-01  8.00000000E-01  1.50000000E+00  8.00000000E-01
  8.00000000E-01  1.50000000E+00  8.00000000E-01  8.00000000E-01  1.50000000E+00
  8.00000000E-01  8.00000000E-01  1.50000000E+00  8.00000000E-01  8.00000000E-01
  1.50000000E+00  8.00000000E-01  8.00000000E-01  1.50000000E+00  8.00000000E-01
  8.00000000E-01  1.50000000E+00  8.00000000E-01  8.00000000E-01  1.50000000E+00
  8.00000000E-01  8.00000000E-01  1.50000000E+00  8.00000000E-01  8.00000000E-01
  1.50000000E+00  8.00000000E-01  8.00000000E-01  1.50000000E+00  8.00000000E-01
  8.00000000E-01  1.50000000E+00  8.00000000E-01  8.00000000E-01  1.50000000E+00
  8.00000000E-01  8.00000000E-01  1.50000000E+00  8.00000000E-01  8.00000000E-01
  1.50000000E+00  8.00000000E-01  8.00000000E-01  1.50000000E+00  8.00000000E-01
  8.00000000E-01  1.50000000E+00  8.00000000E-01  8.00000000E-01  1.50000000E+00
  8.00000000E-01  8.00000000E-01  1.50000000E+00  8.00000000E-01  8.00000000E-01
  1.50000000E+00  8.00000000E-01  8.00000000E-01  1.50000000E+00  8.00000000E-01
  8.00000000E-01  1.50000000E+00  8.00000000E-01  8.00000000E-01  1.50000000E+00
  8.00000000E-01  8.00000000E-01  1.50000000E+00  8.00000000E-01  8.00000000E-01
  1.50000000E+00  8.00000000E-01  8.00000000E-01  1.50000000E+00  8.00000000E-01
  8.00000000E-01  1.50000000E+00  8.00000000E-01  8.00000000E-01  1.50000000E+00
  8.00000000E-01  8.00000000E-01  1.50000000E+00  8.00000000E-01  8.00000000E-01
  1.50000000E+00  8.00000000E-01  8.00000000E-01  1.50000000E+00  8.00000000E-01
  8.00000000E-01  1.50000000E+00  8.00000000E-01  8.00000000E-01  1.50000000E+00
  8.00000000E-01  8.00000000E-01  1.50000000E+00  8.00000000E-01  8.00000000E-01
  1.50000000E+00  8.00000000E-01  8.00000000E-01  1.50000000E+00  8.00000000E-01
  8.00000000E-01  1.50000000E+00  8.00000000E-01  8.00000000E-01  1.50000000E+00
  8.00000000E-01  8.00000000E-01  1.50000000E+00  8.00000000E-01  8.00000000E-01
  1.50000000E+00  8.00000000E-01  8.00000000E-01  1.50000000E+00  8.00000000E-01
  8.00000000E-01  1.50000000E+00  8.00000000E-01  8.00000000E-01  1.50000000E+00
  8.00000000E-01  8.00000000E-01  1.50000000E+00  8.00000000E-01  8.00000000E-01
  1.50000000E+00  8.00000000E-01  8.00000000E-01  1.50000000E+00  8.00000000E-01
  8.00000000E-01  1.50000000E+00  8.00000000E-01  8.00000000E-01  1.50000000E+00
  8.00000000E-01  8.00000000E-01  1.50000000E+00  8.00000000E-01  8.00000000E-01
  1.50000000E+00  8.00000000E-01  8.00000000E-01  1.50000000E+00  8.00000000E-01
  8.00000000E-01  1.50000000E+00  8.00000000E-01  8.00000000E-01  1.50000000E+00
  8.00000000E-01  8.00000000E-01  1.50000000E+00  8.00000000E-01  8.00000000E-01
  1.50000000E+00  8.00000000E-01  8.00000000E-01  1.50000000E+00  8.00000000E-01
  8.00000000E-01  1.50000000E+00  8.00000000E-01  8.00000000E-01  1.50000000E+00
  8.00000000E-01  8.00000000E-01  1.50000000E+00  8.00000000E-01  8.00000000E-01
  1.50000000E+00  8.00000000E-01  8.00000000E-01  1.50000000E+00  8.00000000E-01
  8.00000000E-01  1.50000000E+00  8.00000000E-01  8.00000000E-01  1.50000000E+00
  8.00000000E-01  8.00000000E-01  1.50000000E+00  8.00000000E-01  8.00000000E-01
  1.50000000E+00  8.00000000E-01  8.00000000E-01  1.50000000E+00  8.00000000E-01
  8.00000000E-01  1.50000000E+00  8.00000000E-01  8.00000000E-01  1.50000000E+00
  8.00000000E-01  8.00000000E-01  1.50000000E+00  8.00000000E-01  8.00000000E-01
  1.50000000E+00  8.00000000E-01  8.00000000E-01  1.50000000E+00  8.00000000E-01
  8.00000000E-01  1.50000000E+00  8.00000000E-01  8.00000000E-01  1.50000000E+00
  8.00000000E-01  8.00000000E-01  1.50000000E+00  8.00000000E-01  8.00000000E-01
  1.50000000E+00  8.00000000E-01  8.00000000E-01  1.50000000E+00  8.00000000E-01
  8.00000000E-01  1.50000000E+00  8.00000000E-01  8.00000000E-01  1.50000000E+00
  8.00000000E-01  8.00000000E-01  1.50000000E+00  8.00000000E-01  8.00000000E-01
  1.50000000E+00  8.00000000E-01  8.00000000E-01  1.50000000E+00  8.00000000E-01
  8.00000000E-01  1.50000000E+00  8.00000000E-01  8.00000000E-01  1.50000000E+00
  8.00000000E-01  8.00000000E-01  1.50000000E+00  8.00000000E-01  8.00000000E-01
  1.50000000E+00  8.00000000E-01  8.00000000E-01  1.50000000E+00  8.00000000E-01
  8.00000000E-01  1.50000000E+00  8.00000000E-01  8.00000000E-01  1.50000000E+00
  8.00000000E-01  8.00000000E-01  1.50000000E+00  8.00000000E-01  8.00000000E-01
  1.50000000E+00  8.00000000E-01  8.00000000E-01  1.50000000E+00  8.00000000E-01
  8.00000000E-01  1.50000000E+00  8.00000000E-01  8.00000000E-01  1.50000000E+00
  8.00000000E-01  8.00000000E-01  1.50000000E+00  8.00000000E-01  8.00000000E-01
  1.50000000E+00  8.00000000E-01  8.00000000E-01  1.50000000E+00  8.00000000E-01
  8.00000000E-01  1.50000000E+00  8.00000000E-01  8.00000000E-01  1.50000000E+00
  8.00000000E-01  8.00000000E-01  1.50000000E+00  8.00000000E-01  8.00000000E-01
  1.50000000E+00  8.00000000E-01  8.00000000E-01  1.50000000E+00  8.00000000E-01
  8.00000000E-01  1.50000000E+00  8.00000000E-01  8.00000000E-01  1.50000000E+00
  8.00000000E-01  8.00000000E-01  1.50000000E+00  8.00000000E-01  8.00000000E-01
  1.50000000E+00  8.00000000E-01  8.00000000E-01  1.50000000E+00  8.00000000E-01
  8.00000000E-01  1.50000000E+00  8.00000000E-01  8.00000000E-01  1.50000000E+00
  8.00000000E-01  8.00000000E-01  1.50000000E+00  8.00000000E-01  8.00000000E-01
  1.50000000E+00  8.00000000E-01  8.00000000E-01  1.50000000E+00  8.00000000E-01
  8.00000000E-01  1.50000000E+00  8.00000000E-01  8.00000000E-01  1.50000000E+00
  8.00000000E-01  8.00000000E-01  1.50000000E+00  8.00000000E-01  8.00000000E-01
  1.50000000E+00  8.00000000E-01  8.00000000E-01  1.50000000E+00  8.00000000E-01
  8.00000000E-01  1.50000000E+00  8.00000000E-01  8.00000000E-01  1.50000000E+00
  8.00000000E-01  8.00000000E-01  1.50000000E+00  8.00000000E-01  8.00000000E-01
  1.50000000E+00  8.00000000E-01  8.00000000E-01  1.50000000E+00  8.00000000E-01
  8.00000000E-01  1.50000000E+00  8.00000000E-01  8.00000000E-01  1.50000000E+00
  8.00000000E-01  8.00000000E-01  1.50000000E+00  8.00000000E-01  8.00000000E-01
  1.50000000E+00  8.00000000E-01  8.00000000E-01  1.50000000E+00  8.00000000E-01
  8.00000000E-01  1.50000000E+00  8.00000000E-01  8.00000000E-01  1.50000000E+00
  8.00000000E-01  8.00000000E-01  1.50000000E+00  8.00000000E-01  8.00000000E-01
  1.50000000E+00  8.00000000E-01  8.00000000E-01  1.50000000E+00  8.00000000E-01
  8.00000000E-01  1.50000000E+00  8.00000000E-01  8.00000000E-01  1.50000000E+00
  8.00000000E-01  8.00000000E-01  1.50000000E+00  8.00000000E-01  8.00000000E-01
  1.50000000E+00  8.00000000E-01  8.00000000E-01  1.50000000E+00  8.00000000E-01
  8.00000000E-01  1.50000000E+00  8.00000000E-01  8.00000000E-01  1.50000000E+00
  8.00000000E-01  8.00000000E-01  1.50000000E+00  8.00000000E-01  8.00000000E-01
  1.50000000E+00  8.00000000E-01  8.00000000E-01  1.50000000E+00  8.00000000E-01
  8.00000000E-01  1.50000000E+00  8.00000000E-01  8.00000000E-01  1.50000000E+00
  8.00000000E-01  8.00000000E-01  1.50000000E+00  8.00000000E-01  8.00000000E-01
  1.50000000E+00  8.00000000E-01  8.00000000E-01  1.50000000E+00  8.00000000E-01
  8.00000000E-01  1.50000000E+00  8.00000000E-01  8.00000000E-01  1.50000000E+00
  8.00000000E-01  8.00000000E-01  1.50000000E+00  8.00000000E-01  8.00000000E-01
  1.50000000E+00  8.00000000E-01  8.00000000E-01  1.50000000E+00  8.00000000E-01
  8.00000000E-01  1.50000000E+00  8.00000000E-01  8.00000000E-01  1.50000000E+00
  8.00000000E-01  8.00000000E-01  1.50000000E+00  8.00000000E-01  8.00000000E-01
  1.50000000E+00  8.00000000E-01  8.00000000E-01  1.50000000E+00  8.00000000E-01
  8.00000000E-01  1.50000000E+00  8.00000000E-01  8.00000000E-01  1.50000000E+00
  8.00000000E-01  8.00000000E-01  1.50000000E+00  8.00000000E-01  8.00000000E-01
  1.50000000E+00  8.00000000E-01  8.00000000E-01  1.50000000E+00  8.00000000E-01
  8.00000000E-01  1.50000000E+00  8.00000000E-01  8.00000000E-01  1.50000000E+00
  8.00000000E-01  8.00000000E-01  1.50000000E+00  8.00000000E-01  8.00000000E-01
  1.50000000E+00  8.00000000E-01  8.00000000E-01  1.50000000E+00  8.00000000E-01
  8.00000000E-01  1.50000000E+00  8.00000000E-01  8.00000000E-01  1.50000000E+00
  8.00000000E-01  8.00000000E-01  1.50000000E+00  8.00000000E-01  8.00000000E-01
  1.50000000E+00  8.00000000E-01  8.00000000E-01  1.50000000E+00  8.00000000E-01
  8.00000000E-01  1.50000000E+00  8.00000000E-01  8.00000000E-01  1.50000000E+00
  8.00000000E-01  8.00000000E-01  1.50000000E+00  8.00000000E-01  8.00000000E-01
  1.50000000E+00  8.00000000E-01  8.00000000E-01  1.50000000E+00  8.00000000E-01
  8.00000000E-01  1.50000000E+00  8.00000000E-01  8.00000000E-01  1.50000000E+00
  8.00000000E-01  8.00000000E-01  1.50000000E+00  8.00000000E-01  8.00000000E-01
  1.50000000E+00  8.00000000E-01  8.00000000E-01  1.50000000E+00  8.00000000E-01
  8.00000000E-01  1.50000000E+00  8.00000000E-01  8.00000000E-01  1.50000000E+00
  8.00000000E-01  8.00000000E-01  1.50000000E+00  8.00000000E-01  8.00000000E-01
  1.50000000E+00  8.00000000E-01  8.00000000E-01  1.50000000E+00  8.00000000E-01
  8.00000000E-01  1.50000000E+00  8.00000000E-01  8.00000000E-01  1.50000000E+00
  8.00000000E-01  8.00000000E-01  1.50000000E+00  8.00000000E-01  8.00000000E-01
  1.50000000E+00  8.00000000E-01  8.00000000E-01  1.50000000E+00  8.00000000E-01
  8.00000000E-01  1.50000000E+00  8.00000000E-01  8.00000000E-01  1.50000000E+00
  8.00000000E-01  8.00000000E-01  1.50000000E+00  8.00000000E-01  8.00000000E-01
  1.50000000E+00  8.00000000E-01  8.00000000E-01  1.50000000E+00  8.00000000E-01
  8.00000000E-01  1.50000000E+00  8.00000000E-01  8.00000000E-01  1.50000000E+00
  8.00000000E-01  8.00000000E-01  1.50000000E+00  8.00000000E-01  8.00000000E-01
  1.50000000E+00  8.00000000E-01  8.00000000E-01  1.50000000E+00  8.00000000E-01
  8.00000000E-01  1.50000000E+00  8.00000000E-01  8.00000000E-01  1.50000000E+00
  8.00000000E-01  8.00000000E-01  1.50000000E+00  8.00000000E-01  8.00000000E-01
  1.50000000E+00  8.00000000E-01  8.00000000E-01  1.50000000E+00  8.00000000E-01
  8.00000000E-01  1.50000000E+00  8.00000000E-01  8.00000000E-01  1.50000000E+00
  8.00000000E-01  8.00000000E-01  1.50000000E+00  8.00000000E-01  8.00000000E-01
  1.50000000E+00  8.00000000E-01  8.00000000E-01  1.50000000E+00  8.00000000E-01
  8.00000000E-01  1.50000000E+00  8.00000000E-01  8.00000000E-01  1.50000000E+00
  8.00000000E-01  8.00000000E-01  1.50000000E+00  8.00000000E-01  8.00000000E-01
  1.50000000E+00  8.00000000E-01  8.00000000E-01  1.50000000E+00  8.00000000E-01
  8.00000000E-01  1.50000000E+00  8.00000000E-01  8.00000000E-01  1.50000000E+00
  8.00000000E-01  8.00000000E-01  1.50000000E+00  8.00000000E-01  8.00000000E-01
  1.50000000E+00  8.00000000E-01  8.00000000E-01  1.50000000E+00  8.00000000E-01
  8.00000000E-01  1.50000000E+00  8.00000000E-01  8.00000000E-01  1.50000000E+00
  8.00000000E-01  8.00000000E-01  1.50000000E+00  8.00000000E-01  8.00000000E-01
  1.50000000E+00  8.00000000E-01  8.00000000E-01  1.50000000E+00  8.00000000E-01
  8.00000000E-01  1.50000000E+00  8.00000000E-01  8.00000000E-01  1.50000000E+00
  8.00000000E-01  8.00000000E-01  1.50000000E+00  8.00000000E-01  8.00000000E-01
  1.50000000E+00  8.00000000E-01  8.00000000E-01  1.50000000E+00  8.00000000E-01
  8.00000000E-01  1.50000000E+00  8.00000000E-01  8.00000000E-01  1.50000000E+00
  8.00000000E-01  8.00000000E-01  1.50000000E+00  8.00000000E-01  8.00000000E-01
  1.50000000E+00  8.00000000E-01  8.00000000E-01  1.50000000E+00  8.00000000E-01
  8.00000000E-01  1.50000000E+00  8.00000000E-01  8.00000000E-01  1.50000000E+00
  8.00000000E-01  8.00000000E-01  1.50000000E+00  8.00000000E-01  8.00000000E-01
  1.50000000E+00  8.00000000E-01  8.00000000E-01  1.50000000E+00  8.00000000E-01
  8.00000000E-01  1.50000000E+00  8.00000000E-01  8.00000000E-01  1.50000000E+00
  8.00000000E-01  8.00000000E-01  1.50000000E+00  8.00000000E-01  8.00000000E-01
  1.50000000E+00  8.00000000E-01  8.00000000E-01  1.50000000E+00  8.00000000E-01
  8.00000000E-01  1.50000000E+00  8.00000000E-01  8.00000000E-01  1.50000000E+00
  8.00000000E-01  8.00000000E-01  1.50000000E+00  8.00000000E-01  8.00000000E-01
  1.50000000E+00  8.00000000E-01  8.00000000E-01  1.50000000E+00  8.00000000E-01
  8.00000000E-01  1.50000000E+00  8.00000000E-01  8.00000000E-01  1.50000000E+00
  8.00000000E-01  8.00000000E-01  1.50000000E+00  8.00000000E-01  8.00000000E-01
  1.50000000E+00  8.00000000E-01  8.00000000E-01  1.50000000E+00  8.00000000E-01
  8.00000000E-01  1.50000000E+00  8.00000000E-01  8.00000000E-01  1.50000000E+00
  8.00000000E-01  8.00000000E-01  1.50000000E+00  8.00000000E-01  8.00000000E-01
  1.50000000E+00  8.00000000E-01  8.00000000E-01  1.50000000E+00  8.00000000E-01
  8.00000000E-01  1.50000000E+00  8.00000000E-01  8.00000000E-01  1.50000000E+00
  8.00000000E-01  8.00000000E-01  1.50000000E+00  8.00000000E-01  8.00000000E-01
  1.50000000E+00  8.00000000E-01  8.00000000E-01  1.50000000E+00  8.00000000E-01
  8.00000000E-01  1.50000000E+00  8.00000000E-01  8.00000000E-01  1.50000000E+00
  8.00000000E-01  8.00000000E-01  1.50000000E+00  8.00000000E-01  8.00000000E-01
  1.50000000E+00  8.00000000E-01  8.00000000E-01  1.50000000E+00  8.00000000E-01
  8.00000000E-01  1.50000000E+00  8.00000000E-01  8.00000000E-01  1.50000000E+00
  8.00000000E-01  8.00000000E-01  1.50000000E+00  8.00000000E-01  8.00000000E-01
  1.50000000E+00  8.00000000E-01  8.00000000E-01  1.50000000E+00  8.00000000E-01
  8.00000000E-01  1.50000000E+00  8.00000000E-01  8.00000000E-01  1.50000000E+00
  8.00000000E-01  8.00000000E-01  1.50000000E+00  8.00000000E-01  8.00000000E-01
  1.50000000E+00  8.00000000E-01  8.00000000E-01  1.50000000E+00  8.00000000E-01
  8.00000000E-01  1.50000000E+00  8.00000000E-01  8.00000000E-01  1.50000000E+00
  8.00000000E-01  8.00000000E-01  1.50000000E+00  8.00000000E-01  8.00000000E-01
  1.50000000E+00  8.00000000E-01  8.00000000E-01  1.50000000E+00  8.00000000E-01
  8.00000000E-01  1.50000000E+00  8.00000000E-01  8.00000000E-01  1.50000000E+00
  8.00000000E-01  8.00000000E-01  1.50000000E+00  8.00000000E-01  8.00000000E-01
  1.50000000E+00  8.00000000E-01  8.00000000E-01  1.50000000E+00  8.00000000E-01
  8.00000000E-01  1.50000000E+00  8.00000000E-01  8.00000000E-01  1.50000000E+00
  8.00000000E-01  8.00000000E-01  1.50000000E+00  8.00000000E-01  8.00000000E-01
  1.50000000E+00  8.00000000E-01  8.00000000E-01  1.50000000E+00  8.00000000E-01
  8.00000000E-01  1.50000000E+00  8.00000000E-01  8.00000000E-01  1.50000000E+00
  8.00000000E-01  8.00000000E-01  1.50000000E+00  8.00000000E-01  8.00000000E-01
  1.50000000E+00  8.00000000E-01  8.00000000E-01  1.50000000E+00  8.00000000E-01
  8.00000000E-01  1.50000000E+00  8.00000000E-01  8.00000000E-01  1.50000000E+00
  8.00000000E-01  8.00000000E-01  1.50000000E+00  8.00000000E-01  8.00000000E-01
  1.50000000E+00  8.00000000E-01  8.00000000E-01  1.50000000E+00  8.00000000E-01
  8.00000000E-01  1.50000000E+00  8.00000000E-01  8.00000000E-01  1.50000000E+00
  8.00000000E-01  8.00000000E-01  1.50000000E+00  8.00000000E-01  8.00000000E-01
  1.50000000E+00  8.00000000E-01  8.00000000E-01  1.50000000E+00  8.00000000E-01
  8.00000000E-01  1.50000000E+00  8.00000000E-01  8.00000000E-01  1.50000000E+00
  8.00000000E-01  8.00000000E-01  1.50000000E+00  8.00000000E-01  8.00000000E-01
  1.50000000E+00  8.00000000E-01  8.00000000E-01  1.50000000E+00  8.00000000E-01
  8.00000000E-01  1.50000000E+00  8.00000000E-01  8.00000000E-01  1.50000000E+00
  8.00000000E-01  8.00000000E-01  1.50000000E+00  8.00000000E-01  8.00000000E-01
  1.50000000E+00  8.00000000E-01  8.00000000E-01  1.50000000E+00  8.00000000E-01
  8.00000000E-01  1.50000000E+00  8.00000000E-01  8.00000000E-01  1.50000000E+00
  8.00000000E-01  8.00000000E-01  1.50000000E+00  8.00000000E-01  8.00000000E-01
  1.50000000E+00  8.00000000E-01  8.00000000E-01  1.50000000E+00  8.00000000E-01
  8.00000000E-01  1.50000000E+00  8.00000000E-01  8.00000000E-01  1.50000000E+00
  8.00000000E-01  8.00000000E-01  1.50000000E+00  8.00000000E-01  8.00000000E-01
  1.50000000E+00  8.00000000E-01  8.00000000E-01  1.50000000E+00  8.00000000E-01
  8.00000000E-01  1.50000000E+00  8.00000000E-01  8.00000000E-01  1.50000000E+00
  8.00000000E-01  8.00000000E-01  1.50000000E+00  8.00000000E-01  8.00000000E-01
  1.50000000E+00  8.00000000E-01  8.00000000E-01  1.50000000E+00  8.00000000E-01
  8.00000000E-01  1.50000000E+00  8.00000000E-01  8.00000000E-01  1.50000000E+00
  8.00000000E-01  8.00000000E-01  1.50000000E+00  8.00000000E-01  8.00000000E-01
  1.50000000E+00  8.00000000E-01  8.00000000E-01  1.50000000E+00  8.00000000E-01
  8.00000000E-01  1.50000000E+00  8.00000000E-01  8.00000000E-01  1.50000000E+00
  8.00000000E-01  8.00000000E-01  1.50000000E+00  8.00000000E-01  8.00000000E-01
  1.50000000E+00  8.00000000E-01  8.00000000E-01  1.50000000E+00  8.00000000E-01
  8.00000000E-01  1.50000000E+00  8.00000000E-01  8.00000000E-01  1.50000000E+00
  8.00000000E-01  8.00000000E-01  1.50000000E+00  8.00000000E-01  8.00000000E-01
  1.50000000E+00  8.00000000E-01  8.00000000E-01  1.50000000E+00  8.00000000E-01
  8.00000000E-01  1.50000000E+00  8.00000000E-01  8.00000000E-01  1.50000000E+00
  8.00000000E-01  8.00000000E-01  1.50000000E+00  8.00000000E-01  8.00000000E-01
  1.50000000E+00  8.00000000E-01  8.00000000E-01  1.50000000E+00  8.00000000E-01
  8.00000000E-01  1.50000000E+00  8.00000000E-01  8.00000000E-01  1.50000000E+00
  8.00000000E-01  8.00000000E-01  1.50000000E+00  8.00000000E-01  8.00000000E-01
  1.50000000E+00  8.00000000E-01  8.00000000E-01  1.50000000E+00  8.00000000E-01
  8.00000000E-01  1.50000000E+00  8.00000000E-01  8.00000000E-01  1.50000000E+00
  8.00000000E-01  8.00000000E-01  1.50000000E+00  8.00000000E-01  8.00000000E-01
  1.50000000E+00  8.00000000E-01  8.00000000E-01  1.50000000E+00  8.00000000E-01
  8.00000000E-01  1.50000000E+00  8.00000000E-01  8.00000000E-01  1.50000000E+00
  8.00000000E-01  8.00000000E-01  1.50000000E+00  8.00000000E-01  8.00000000E-01
  1.50000000E+00  8.00000000E-01  8.00000000E-01  1.50000000E+00  8.00000000E-01
  8.00000000E-01  1.50000000E+00  8.00000000E-01  8.00000000E-01  1.50000000E+00
  8.00000000E-01  8.00000000E-01  1.50000000E+00  8.00000000E-01  8.00000000E-01
  1.50000000E+00  8.00000000E-01  8.00000000E-01  1.50000000E+00  8.00000000E-01
  8.00000000E-01  1.50000000E+00  8.00000000E-01  8.00000000E-01  1.50000000E+00
  8.00000000E-01  8.00000000E-01  1.50000000E+00  8.00000000E-01  8.00000000E-01
  1.50000000E+00  8.00000000E-01  8.00000000E-01  1.50000000E+00  8.00000000E-01
  8.00000000E-01  1.50000000E+00  8.00000000E-01  8.00000000E-01  1.50000000E+00
  8.00000000E-01  8.00000000E-01  1.50000000E+00  8.00000000E-01  8.00000000E-01
  1.50000000E+00  8.00000000E-01  8.00000000E-01  1.50000000E+00  8.00000000E-01
  8.00000000E-01  1.50000000E+00  8.00000000E-01  8.00000000E-01  1.50000000E+00
  8.00000000E-01  8.00000000E-01  1.50000000E+00  8.00000000E-01  8.00000000E-01
  1.50000000E+00  8.00000000E-01  8.00000000E-01  1.50000000E+00  8.00000000E-01
  8.00000000E-01  1.50000000E+00  8.00000000E-01  8.00000000E-01  1.50000000E+00
  8.00000000E-01  8.00000000E-01  1.50000000E+00  8.00000000E-01  8.00000000E-01
  1.50000000E+00  8.00000000E-01  8.00000000E-01  1.50000000E+00  8.00000000E-01
  8.00000000E-01  1.50000000E+00  8.00000000E-01  8.00000000E-01  1.50000000E+00
  8.00000000E-01  8.00000000E-01  1.50000000E+00  8.00000000E-01  8.00000000E-01
  1.50000000E+00  8.00000000E-01  8.00000000E-01  1.50000000E+00  8.00000000E-01
  8.00000000E-01  1.50000000E+00  8.00000000E-01  8.00000000E-01  1.50000000E+00
  8.00000000E-01  8.00000000E-01  1.50000000E+00  8.00000000E-01  8.00000000E-01
  1.50000000E+00  8.00000000E-01  8.00000000E-01  1.50000000E+00  8.00000000E-01
  8.00000000E-01  1.50000000E+00  8.00000000E-01  8.00000000E-01  1.50000000E+00
  8.00000000E-01  8.00000000E-01  1.50000000E+00  8.00000000E-01  8.00000000E-01
  1.50000000E+00  8.00000000E-01  8.00000000E-01  1.50000000E+00  8.00000000E-01
  8.00000000E-01  1.50000000E+00  8.00000000E-01  8.00000000E-01  1.50000000E+00
  8.00000000E-01  8.00000000E-01  1.50000000E+00  8.00000000E-01  8.00000000E-01
  1.50000000E+00  8.00000000E-01  8.00000000E-01  1.50000000E+00  8.00000000E-01
  8.00000000E-01  1.50000000E+00  8.00000000E-01  8.00000000E-01  1.50000000E+00
  8.00000000E-01  8.00000000E-01  1.50000000E+00  8.00000000E-01  8.00000000E-01
  1.50000000E+00  8.00000000E-01  8.00000000E-01  1.50000000E+00  8.00000000E-01
  8.00000000E-01  1.50000000E+00  8.00000000E-01  8.00000000E-01  1.50000000E+00
  8.00000000E-01  8.00000000E-01  1.50000000E+00  8.00000000E-01  8.00000000E-01
  1.50000000E+00  8.00000000E-01  8.00000000E-01  1.50000000E+00  8.00000000E-01
  8.00000000E-01  1.50000000E+00  8.00000000E-01  8.00000000E-01  1.50000000E+00
  8.00000000E-01  8.00000000E-01  1.50000000E+00  8.00000000E-01  8.00000000E-01
  1.50000000E+00  8.00000000E-01  8.00000000E-01  1.50000000E+00  8.00000000E-01
  8.00000000E-01  1.50000000E+00  8.00000000E-01  8.00000000E-01  1.50000000E+00
  8.00000000E-01  8.00000000E-01  1.50000000E+00  8.00000000E-01  8.00000000E-01
  1.50000000E+00  8.00000000E-01  8.00000000E-01  1.50000000E+00  8.00000000E-01
  8.00000000E-01  1.50000000E+00  8.00000000E-01  8.00000000E-01  1.50000000E+00
  8.00000000E-01  8.00000000E-01  1.50000000E+00  8.00000000E-01  8.00000000E-01
  1.50000000E+00  8.00000000E-01  8.00000000E-01  1.50000000E+00  8.00000000E-01
  8.00000000E-01  1.50000000E+00  8.00000000E-01  8.00000000E-01  1.50000000E+00
  8.00000000E-01  8.00000000E-01  1.50000000E+00  8.00000000E-01  8.00000000E-01
  1.50000000E+00  8.00000000E-01  8.00000000E-01  1.50000000E+00  8.00000000E-01
  8.00000000E-01  1.50000000E+00  8.00000000E-01  8.00000000E-01  1.50000000E+00
  8.00000000E-01  8.00000000E-01  1.50000000E+00  8.00000000E-01  8.00000000E-01
  1.50000000E+00  8.00000000E-01  8.00000000E-01  1.50000000E+00  8.00000000E-01
  8.00000000E-01  1.50000000E+00  8.00000000E-01  8.00000000E-01  1.50000000E+00
  8.00000000E-01  8.00000000E-01  1.50000000E+00  8.00000000E-01  8.00000000E-01
  1.50000000E+00  8.00000000E-01  8.00000000E-01  1.50000000E+00  8.00000000E-01
  8.00000000E-01  1.50000000E+00  8.00000000E-01  8.00000000E-01  1.50000000E+00
  8.00000000E-01  8.00000000E-01  1.50000000E+00  8.00000000E-01  8.00000000E-01
  1.50000000E+00  8.00000000E-01  8.00000000E-01  1.50000000E+00  8.00000000E-01
  8.00000000E-01  1.50000000E+00  8.00000000E-01  8.00000000E-01  1.50000000E+00
  8.00000000E-01  8.00000000E-01  1.50000000E+00  8.00000000E-01  8.00000000E-01
  1.50000000E+00  8.00000000E-01  8.00000000E-01  1.50000000E+00  8.00000000E-01
  8.00000000E-01  1.50000000E+00  8.00000000E-01  8.00000000E-01  1.50000000E+00
  8.00000000E-01  8.00000000E-01  1.50000000E+00  8.00000000E-01  8.00000000E-01
  1.50000000E+00  8.00000000E-01  8.00000000E-01  1.50000000E+00  8.00000000E-01
  8.00000000E-01  1.50000000E+00  8.00000000E-01  8.00000000E-01  1.50000000E+00
  8.00000000E-01  8.00000000E-01  1.50000000E+00  8.00000000E-01  8.00000000E-01
  1.50000000E+00  8.00000000E-01  8.00000000E-01  1.50000000E+00  8.00000000E-01
  8.00000000E-01  1.50000000E+00  8.00000000E-01  8.00000000E-01  1.50000000E+00
  8.00000000E-01  8.00000000E-01  1.50000000E+00  8.00000000E-01  8.00000000E-01
  1.50000000E+00  8.00000000E-01  8.00000000E-01  1.50000000E+00  8.00000000E-01
  8.00000000E-01  1.50000000E+00  8.00000000E-01  8.00000000E-01  1.50000000E+00
  8.00000000E-01  8.00000000E-01  1.50000000E+00  8.00000000E-01  8.00000000E-01
  1.50000000E+00  8.00000000E-01  8.00000000E-01  1.50000000E+00  8.00000000E-01
  8.00000000E-01  1.50000000E+00  8.00000000E-01  8.00000000E-01  1.50000000E+00
  8.00000000E-01  8.00000000E-01  1.50000000E+00  8.00000000E-01  8.00000000E-01
  1.50000000E+00  8.00000000E-01  8.00000000E-01  1.50000000E+00  8.00000000E-01
  8.00000000E-01  1.50000000E+00  8.00000000E-01  8.00000000E-01  1.50000000E+00
  8.00000000E-01  8.00000000E-01  1.50000000E+00  8.00000000E-01  8.00000000E-01
  1.50000000E+00  8.00000000E-01  8.00000000E-01  1.50000000E+00  8.00000000E-01
  8.00000000E-01  1.50000000E+00  8.00000000E-01  8.00000000E-01  1.50000000E+00
  8.00000000E-01  8.00000000E-01  1.50000000E+00  8.00000000E-01  8.00000000E-01
  1.50000000E+00  8.00000000E-01  8.00000000E-01  1.50000000E+00  8.00000000E-01
  8.00000000E-01  1.50000000E+00  8.00000000E-01  8.00000000E-01  1.50000000E+00
  8.00000000E-01  8.00000000E-01  1.50000000E+00  8.00000000E-01  8.00000000E-01
  1.50000000E+00  8.00000000E-01  8.00000000E-01  1.50000000E+00  8.00000000E-01
  8.00000000E-01  1.50000000E+00  8.00000000E-01  8.00000000E-01  1.50000000E+00
  8.00000000E-01  8.00000000E-01  1.50000000E+00  8.00000000E-01  8.00000000E-01
  1.50000000E+00  8.00000000E-01  8.00000000E-01  1.50000000E+00  8.00000000E-01
  8.00000000E-01  1.50000000E+00  8.00000000E-01  8.00000000E-01  1.50000000E+00
  8.00000000E-01  8.00000000E-01  1.50000000E+00  8.00000000E-01  8.00000000E-01
  1.50000000E+00  8.00000000E-01  8.00000000E-01  1.50000000E+00  8.00000000E-01
  8.00000000E-01  1.50000000E+00  8.00000000E-01  8.00000000E-01  1.50000000E+00
  8.00000000E-01  8.00000000E-01  1.50000000E+00  8.00000000E-01  8.00000000E-01
  1.50000000E+00  8.00000000E-01  8.00000000E-01  1.50000000E+00  8.00000000E-01
  8.00000000E-01  1.50000000E+00  8.00000000E-01  8.00000000E-01  1.50000000E+00
  8.00000000E-01  8.00000000E-01  1.50000000E+00  8.00000000E-01  8.00000000E-01
  1.50000000E+00  8.00000000E-01  8.00000000E-01  1.50000000E+00  8.00000000E-01
  8.00000000E-01  1.50000000E+00  8.00000000E-01  8.00000000E-01  1.50000000E+00
  8.00000000E-01  8.00000000E-01  1.50000000E+00  8.00000000E-01  8.00000000E-01
  1.50000000E+00  8.00000000E-01  8.00000000E-01  1.50000000E+00  8.00000000E-01
  8.00000000E-01  1.50000000E+00  8.00000000E-01  8.00000000E-01  1.50000000E+00
  8.00000000E-01  8.00000000E-01  1.50000000E+00  8.00000000E-01  8.00000000E-01
  1.50000000E+00  8.00000000E-01  8.00000000E-01  1.50000000E+00  8.00000000E-01
  8.00000000E-01  1.50000000E+00  8.00000000E-01  8.00000000E-01  1.50000000E+00
  8.00000000E-01  8.00000000E-01  1.50000000E+00  8.00000000E-01  8.00000000E-01
  1.50000000E+00  8.00000000E-01  8.00000000E-01  1.50000000E+00  8.00000000E-01
  8.00000000E-01  1.50000000E+00  8.00000000E-01  8.00000000E-01  1.50000000E+00
  8.00000000E-01  8.00000000E-01  1.50000000E+00  8.00000000E-01  8.00000000E-01
  1.50000000E+00  8.00000000E-01  8.00000000E-01  1.50000000E+00  8.00000000E-01
  8.00000000E-01  1.50000000E+00  8.00000000E-01  8.00000000E-01  1.50000000E+00
  8.00000000E-01  8.00000000E-01  1.50000000E+00  8.00000000E-01  8.00000000E-01
  1.50000000E+00  8.00000000E-01  8.00000000E-01  1.50000000E+00  8.00000000E-01
  8.00000000E-01  1.50000000E+00  8.00000000E-01  8.00000000E-01  1.50000000E+00
  8.00000000E-01  8.00000000E-01  1.50000000E+00  8.00000000E-01  8.00000000E-01
  1.50000000E+00  8.00000000E-01  8.00000000E-01  1.50000000E+00  8.00000000E-01
  8.00000000E-01  1.50000000E+00  8.00000000E-01  8.00000000E-01  1.50000000E+00
  8.00000000E-01  8.00000000E-01  1.50000000E+00  8.00000000E-01  8.00000000E-01
  1.50000000E+00  8.00000000E-01  8.00000000E-01  1.50000000E+00  8.00000000E-01
  8.00000000E-01  1.50000000E+00  8.00000000E-01  8.00000000E-01  1.50000000E+00
  8.00000000E-01  8.00000000E-01  1.50000000E+00  8.00000000E-01  8.00000000E-01
  1.50000000E+00  8.00000000E-01  8.00000000E-01  1.50000000E+00  8.00000000E-01
  8.00000000E-01  1.50000000E+00  8.00000000E-01  8.00000000E-01  1.50000000E+00
  8.00000000E-01  8.00000000E-01  1.50000000E+00  8.00000000E-01  8.00000000E-01
  1.50000000E+00  8.00000000E-01  8.00000000E-01  1.50000000E+00  8.00000000E-01
  8.00000000E-01  1.50000000E+00  8.00000000E-01  8.00000000E-01  1.50000000E+00
  8.00000000E-01  8.00000000E-01  1.50000000E+00  8.00000000E-01  8.00000000E-01
  1.50000000E+00  8.00000000E-01  8.00000000E-01  1.50000000E+00  8.00000000E-01
  8.00000000E-01  1.50000000E+00  8.00000000E-01  8.00000000E-01  1.50000000E+00
  8.00000000E-01  8.00000000E-01  1.50000000E+00  8.00000000E-01  8.00000000E-01
  1.50000000E+00  8.00000000E-01  8.00000000E-01  1.50000000E+00  8.00000000E-01
  8.00000000E-01  1.50000000E+00  8.00000000E-01  8.00000000E-01  1.50000000E+00
  8.00000000E-01  8.00000000E-01  1.50000000E+00  8.00000000E-01  8.00000000E-01
  1.50000000E+00  8.00000000E-01  8.00000000E-01  1.50000000E+00  8.00000000E-01
  8.00000000E-01  1.50000000E+00  8.00000000E-01  8.00000000E-01  1.50000000E+00
  8.00000000E-01  8.00000000E-01  1.50000000E+00  8.00000000E-01  8.00000000E-01
  1.50000000E+00  8.00000000E-01  8.00000000E-01  1.50000000E+00  8.00000000E-01
  8.00000000E-01  1.50000000E+00  8.00000000E-01  8.00000000E-01  1.50000000E+00
  8.00000000E-01  8.00000000E-01  1.50000000E+00  8.00000000E-01  8.00000000E-01
  1.50000000E+00  8.00000000E-01  8.00000000E-01  1.50000000E+00  8.00000000E-01
  8.00000000E-01  1.50000000E+00  8.00000000E-01  8.00000000E-01  1.50000000E+00
  8.00000000E-01  8.00000000E-01  1.50000000E+00  8.00000000E-01  8.00000000E-01
  1.50000000E+00  8.00000000E-01  8.00000000E-01  1.50000000E+00  8.00000000E-01
  8.00000000E-01  1.50000000E+00  8.00000000E-01  8.00000000E-01  1.50000000E+00
  8.00000000E-01  8.00000000E-01  1.50000000E+00  8.00000000E-01  8.00000000E-01
  1.50000000E+00  8.00000000E-01  8.00000000E-01  1.50000000E+00  8.00000000E-01
  8.00000000E-01  1.50000000E+00  8.00000000E-01  8.00000000E-01  1.50000000E+00
  8.00000000E-01  8.00000000E-01  1.50000000E+00  8.00000000E-01  8.00000000E-01
  1.50000000E+00  8.00000000E-01  8.00000000E-01  1.50000000E+00  8.00000000E-01
  8.00000000E-01  1.50000000E+00  8.00000000E-01  8.00000000E-01  1.50000000E+00
  8.00000000E-01  8.00000000E-01  1.50000000E+00  8.00000000E-01  8.00000000E-01
  1.50000000E+00  8.00000000E-01  8.00000000E-01  1.50000000E+00  8.00000000E-01
  8.00000000E-01  1.50000000E+00  8.00000000E-01  8.00000000E-01  1.50000000E+00
  8.00000000E-01  8.00000000E-01  1.50000000E+00  8.00000000E-01  8.00000000E-01
  1.50000000E+00  8.00000000E-01  8.00000000E-01  1.50000000E+00  8.00000000E-01
  8.00000000E-01  1.50000000E+00  8.00000000E-01  8.00000000E-01  1.50000000E+00
  8.00000000E-01  8.00000000E-01  1.50000000E+00  8.00000000E-01  8.00000000E-01
  1.50000000E+00  8.00000000E-01  8.00000000E-01  1.50000000E+00  8.00000000E-01
  8.00000000E-01  1.50000000E+00  8.00000000E-01  8.00000000E-01  1.50000000E+00
  8.00000000E-01  8.00000000E-01  1.50000000E+00  8.00000000E-01  8.00000000E-01
  1.50000000E+00  8.00000000E-01  8.00000000E-01  1.50000000E+00  8.00000000E-01
  8.00000000E-01  1.50000000E+00  8.00000000E-01  8.00000000E-01  1.50000000E+00
  8.00000000E-01  8.00000000E-01  1.50000000E+00  8.00000000E-01  8.00000000E-01
  1.50000000E+00  8.00000000E-01  8.00000000E-01  1.50000000E+00  8.00000000E-01
  8.00000000E-01  1.50000000E+00  8.00000000E-01  8.00000000E-01  1.50000000E+00
  8.00000000E-01  8.00000000E-01  1.50000000E+00  8.00000000E-01  8.00000000E-01
  1.50000000E+00  8.00000000E-01  8.00000000E-01  1.50000000E+00  8.00000000E-01
  8.00000000E-01  1.50000000E+00  8.00000000E-01  8.00000000E-01  1.50000000E+00
  8.00000000E-01  8.00000000E-01  1.50000000E+00  8.00000000E-01  8.00000000E-01
  1.50000000E+00  8.00000000E-01  8.00000000E-01  1.50000000E+00  8.00000000E-01
  8.00000000E-01  1.50000000E+00  8.00000000E-01  8.00000000E-01  1.50000000E+00
  8.00000000E-01  8.00000000E-01  1.50000000E+00  8.00000000E-01  8.00000000E-01
  1.50000000E+00  8.00000000E-01  8.00000000E-01  1.50000000E+00  8.00000000E-01
  8.00000000E-01  1.50000000E+00  8.00000000E-01  8.00000000E-01  1.50000000E+00
  8.00000000E-01  8.00000000E-01  1.50000000E+00  8.00000000E-01  8.00000000E-01
  1.50000000E+00  8.00000000E-01  8.00000000E-01  1.50000000E+00  8.00000000E-01
  8.00000000E-01  1.50000000E+00  8.00000000E-01  8.00000000E-01  1.50000000E+00
  8.00000000E-01  8.00000000E-01  1.50000000E+00  8.00000000E-01  8.00000000E-01
  1.50000000E+00  8.00000000E-01  8.00000000E-01  1.50000000E+00  8.00000000E-01
  8.00000000E-01  1.50000000E+00  8.00000000E-01  8.00000000E-01  1.50000000E+00
  8.00000000E-01  8.00000000E-01  1.50000000E+00  8.00000000E-01  8.00000000E-01
  1.50000000E+00  8.00000000E-01  8.00000000E-01  1.50000000E+00  8.00000000E-01
  8.00000000E-01  1.50000000E+00  8.00000000E-01  8.00000000E-01  1.50000000E+00
  8.00000000E-01  8.00000000E-01  1.50000000E+00  8.00000000E-01  8.00000000E-01
  1.50000000E+00  8.00000000E-01  8.00000000E-01  1.50000000E+00  8.00000000E-01
  8.00000000E-01  1.50000000E+00  8.00000000E-01  8.00000000E-01  1.50000000E+00
  8.00000000E-01  8.00000000E-01  1.50000000E+00  8.00000000E-01  8.00000000E-01
  1.50000000E+00  8.00000000E-01  8.00000000E-01  1.50000000E+00  8.00000000E-01
  8.00000000E-01  1.50000000E+00  8.00000000E-01  8.00000000E-01  1.50000000E+00
  8.00000000E-01  8.00000000E-01  1.50000000E+00  8.00000000E-01  8.00000000E-01
  1.50000000E+00  8.00000000E-01  8.00000000E-01  1.50000000E+00  8.00000000E-01
  8.00000000E-01  1.50000000E+00  8.00000000E-01  8.00000000E-01  1.50000000E+00
  8.00000000E-01  8.00000000E-01  1.50000000E+00  8.00000000E-01  8.00000000E-01
  1.50000000E+00  8.00000000E-01  8.00000000E-01  1.50000000E+00  8.00000000E-01
  8.00000000E-01  1.50000000E+00  8.00000000E-01  8.00000000E-01  1.50000000E+00
  8.00000000E-01  8.00000000E-01  1.50000000E+00  8.00000000E-01  8.00000000E-01
  1.50000000E+00  8.00000000E-01  8.00000000E-01  1.50000000E+00  8.00000000E-01
  8.00000000E-01  1.50000000E+00  8.00000000E-01  8.00000000E-01  1.50000000E+00
  8.00000000E-01  8.00000000E-01  1.50000000E+00  8.00000000E-01  8.00000000E-01
  1.50000000E+00  8.00000000E-01  8.00000000E-01  1.50000000E+00  8.00000000E-01
  8.00000000E-01  1.50000000E+00  8.00000000E-01  8.00000000E-01  1.50000000E+00
  8.00000000E-01  8.00000000E-01  1.50000000E+00  8.00000000E-01  8.00000000E-01
  1.50000000E+00  8.00000000E-01  8.00000000E-01  1.50000000E+00  8.00000000E-01
  8.00000000E-01  1.50000000E+00  8.00000000E-01  8.00000000E-01  1.50000000E+00
  8.00000000E-01  8.00000000E-01  1.50000000E+00  8.00000000E-01  8.00000000E-01
  1.50000000E+00  8.00000000E-01  8.00000000E-01  1.50000000E+00  8.00000000E-01
  8.00000000E-01  1.50000000E+00  8.00000000E-01  8.00000000E-01  1.50000000E+00
  8.00000000E-01  8.00000000E-01  1.50000000E+00  8.00000000E-01  8.00000000E-01
  1.50000000E+00  8.00000000E-01  8.00000000E-01  1.50000000E+00  8.00000000E-01
  8.00000000E-01  1.50000000E+00  8.00000000E-01  8.00000000E-01  1.50000000E+00
  8.00000000E-01  8.00000000E-01  1.50000000E+00  8.00000000E-01  8.00000000E-01
  1.50000000E+00  8.00000000E-01  8.00000000E-01  1.50000000E+00  8.00000000E-01
  8.00000000E-01  1.50000000E+00  8.00000000E-01  8.00000000E-01  1.50000000E+00
  8.00000000E-01  8.00000000E-01  1.50000000E+00  8.00000000E-01  8.00000000E-01
  1.50000000E+00  8.00000000E-01  8.00000000E-01  1.50000000E+00  8.00000000E-01
  8.00000000E-01  1.50000000E+00  8.00000000E-01  8.00000000E-01  1.50000000E+00
  8.00000000E-01  8.00000000E-01  1.50000000E+00  8.00000000E-01  8.00000000E-01
  1.50000000E+00  8.00000000E-01  8.00000000E-01  1.50000000E+00  8.00000000E-01
  8.00000000E-01  1.50000000E+00  8.00000000E-01  8.00000000E-01  1.50000000E+00
  8.00000000E-01  8.00000000E-01  1.50000000E+00  8.00000000E-01  8.00000000E-01
  1.50000000E+00  8.00000000E-01  8.00000000E-01  1.50000000E+00  8.00000000E-01
  8.00000000E-01  1.50000000E+00  8.00000000E-01  8.00000000E-01  1.50000000E+00
  8.00000000E-01  8.00000000E-01  1.50000000E+00  8.00000000E-01  8.00000000E-01
  1.50000000E+00  8.00000000E-01  8.00000000E-01  1.50000000E+00  8.00000000E-01
  8.00000000E-01  1.50000000E+00  8.00000000E-01  8.00000000E-01  1.50000000E+00
  8.00000000E-01  8.00000000E-01  1.50000000E+00  8.00000000E-01  8.00000000E-01
  1.50000000E+00  8.00000000E-01  8.00000000E-01  1.50000000E+00  8.00000000E-01
  8.00000000E-01  1.50000000E+00  8.00000000E-01  8.00000000E-01  1.50000000E+00
  8.00000000E-01  8.00000000E-01  1.50000000E+00  8.00000000E-01  8.00000000E-01
  1.50000000E+00  8.00000000E-01  8.00000000E-01  1.50000000E+00  8.00000000E-01
  8.00000000E-01  1.50000000E+00  8.00000000E-01  8.00000000E-01  1.50000000E+00
  8.00000000E-01  8.00000000E-01  1.50000000E+00  8.00000000E-01  8.00000000E-01
  1.50000000E+00  8.00000000E-01  8.00000000E-01  1.50000000E+00  8.00000000E-01
  8.00000000E-01  1.50000000E+00  8.00000000E-01  8.00000000E-01  1.50000000E+00
  8.00000000E-01  8.00000000E-01  1.50000000E+00  8.00000000E-01  8.00000000E-01
  1.50000000E+00  8.00000000E-01  8.00000000E-01  1.50000000E+00  8.00000000E-01
  8.00000000E-01  1.50000000E+00  8.00000000E-01  8.00000000E-01  1.50000000E+00
  8.00000000E-01  8.00000000E-01  1.50000000E+00  8.00000000E-01  8.00000000E-01
  1.50000000E+00  8.00000000E-01  8.00000000E-01  1.50000000E+00  8.00000000E-01
  8.00000000E-01  1.50000000E+00  8.00000000E-01  8.00000000E-01  1.50000000E+00
  8.00000000E-01  8.00000000E-01  1.50000000E+00  8.00000000E-01  8.00000000E-01
  1.50000000E+00  8.00000000E-01  8.00000000E-01  1.50000000E+00  8.00000000E-01
  8.00000000E-01  1.50000000E+00  8.00000000E-01  8.00000000E-01  1.50000000E+00
  8.00000000E-01  8.00000000E-01  1.50000000E+00  8.00000000E-01  8.00000000E-01
  1.50000000E+00  8.00000000E-01  8.00000000E-01  1.50000000E+00  8.00000000E-01
  8.00000000E-01  1.50000000E+00  8.00000000E-01  8.00000000E-01  1.50000000E+00
  8.00000000E-01  8.00000000E-01  1.50000000E+00  8.00000000E-01  8.00000000E-01
  1.50000000E+00  8.00000000E-01  8.00000000E-01  1.50000000E+00  8.00000000E-01
  8.00000000E-01  1.50000000E+00  8.00000000E-01  8.00000000E-01  1.50000000E+00
  8.00000000E-01  8.00000000E-01  1.50000000E+00  8.00000000E-01  8.00000000E-01
  1.50000000E+00  8.00000000E-01  8.00000000E-01  1.50000000E+00  8.00000000E-01
  8.00000000E-01  1.50000000E+00  8.00000000E-01  8.00000000E-01  1.50000000E+00
  8.00000000E-01  8.00000000E-01  1.50000000E+00  8.00000000E-01  8.00000000E-01
  1.50000000E+00  8.00000000E-01  8.00000000E-01  1.50000000E+00  8.00000000E-01
  8.00000000E-01  1.50000000E+00  8.00000000E-01  8.00000000E-01  1.50000000E+00
  8.00000000E-01  8.00000000E-01  1.50000000E+00  8.00000000E-01  8.00000000E-01
  1.50000000E+00  8.00000000E-01  8.00000000E-01  1.50000000E+00  8.00000000E-01
  8.00000000E-01  1.50000000E+00  8.00000000E-01  8.00000000E-01  1.50000000E+00
  8.00000000E-01  8.00000000E-01  1.50000000E+00  8.00000000E-01  8.00000000E-01
  1.50000000E+00  8.00000000E-01  8.00000000E-01  1.50000000E+00  8.00000000E-01
  8.00000000E-01  1.50000000E+00  8.00000000E-01  8.00000000E-01  1.50000000E+00
  8.00000000E-01  8.00000000E-01  1.50000000E+00  8.00000000E-01  8.00000000E-01
  1.50000000E+00  8.00000000E-01  8.00000000E-01  1.50000000E+00  8.00000000E-01
  8.00000000E-01  1.50000000E+00  8.00000000E-01  8.00000000E-01  1.50000000E+00
  8.00000000E-01  8.00000000E-01  1.50000000E+00  8.00000000E-01  8.00000000E-01
  1.50000000E+00  8.00000000E-01  8.00000000E-01  1.50000000E+00  8.00000000E-01
  8.00000000E-01  1.50000000E+00  8.00000000E-01  8.00000000E-01  1.50000000E+00
  8.00000000E-01  8.00000000E-01  1.50000000E+00  8.00000000E-01  8.00000000E-01
  1.50000000E+00  8.00000000E-01  8.00000000E-01  1.50000000E+00  8.00000000E-01
  8.00000000E-01  1.50000000E+00  8.00000000E-01  8.00000000E-01  1.50000000E+00
  8.00000000E-01  8.00000000E-01  1.50000000E+00  8.00000000E-01  8.00000000E-01
  1.50000000E+00  8.00000000E-01  8.00000000E-01  1.50000000E+00  8.00000000E-01
  8.00000000E-01  1.50000000E+00  8.00000000E-01  8.00000000E-01  1.50000000E+00
  8.00000000E-01  8.00000000E-01  1.50000000E+00  8.00000000E-01  8.00000000E-01
  1.50000000E+00  8.00000000E-01  8.00000000E-01  1.50000000E+00  8.00000000E-01
  8.00000000E-01  1.50000000E+00  8.00000000E-01  8.00000000E-01  1.50000000E+00
  8.00000000E-01  8.00000000E-01  1.50000000E+00  8.00000000E-01  8.00000000E-01
  1.50000000E+00  8.00000000E-01  8.00000000E-01  1.50000000E+00  8.00000000E-01
  8.00000000E-01  1.50000000E+00  8.00000000E-01  8.00000000E-01  1.50000000E+00
  8.00000000E-01  8.00000000E-01  1.50000000E+00  8.00000000E-01  8.00000000E-01
  1.50000000E+00  8.00000000E-01  8.00000000E-01  1.50000000E+00  8.00000000E-01
  8.00000000E-01  1.50000000E+00  8.00000000E-01  8.00000000E-01  1.50000000E+00
  8.00000000E-01  8.00000000E-01  1.50000000E+00  8.00000000E-01  8.00000000E-01
  1.50000000E+00  8.00000000E-01  8.00000000E-01  1.50000000E+00  8.00000000E-01
  8.00000000E-01  1.50000000E+00  8.00000000E-01  8.00000000E-01  1.50000000E+00
  8.00000000E-01  8.00000000E-01  1.50000000E+00  8.00000000E-01  8.00000000E-01
  1.50000000E+00  8.00000000E-01  8.00000000E-01  1.50000000E+00  8.00000000E-01
  8.00000000E-01  1.50000000E+00  8.00000000E-01  8.00000000E-01  1.50000000E+00
  8.00000000E-01  8.00000000E-01  1.50000000E+00  8.00000000E-01  8.00000000E-01
  1.50000000E+00  8.00000000E-01  8.00000000E-01  1.50000000E+00  8.00000000E-01
  8.00000000E-01  1.50000000E+00  8.00000000E-01  8.00000000E-01  1.50000000E+00
  8.00000000E-01  8.00000000E-01  1.50000000E+00  8.00000000E-01  8.00000000E-01
  1.50000000E+00  8.00000000E-01  8.00000000E-01  1.50000000E+00  8.00000000E-01
  8.00000000E-01  1.50000000E+00  8.00000000E-01  8.00000000E-01  1.50000000E+00
  8.00000000E-01  8.00000000E-01  1.50000000E+00  8.00000000E-01  8.00000000E-01
  1.50000000E+00  8.00000000E-01  8.00000000E-01  1.50000000E+00  8.00000000E-01
  8.00000000E-01  1.50000000E+00  8.00000000E-01  8.00000000E-01  1.50000000E+00
  8.00000000E-01  8.00000000E-01  1.50000000E+00  8.00000000E-01  8.00000000E-01
  1.50000000E+00  8.00000000E-01  8.00000000E-01  1.50000000E+00  8.00000000E-01
  8.00000000E-01  1.50000000E+00  8.00000000E-01  8.00000000E-01  1.50000000E+00
  8.00000000E-01  8.00000000E-01  1.50000000E+00  8.00000000E-01  8.00000000E-01
  1.50000000E+00  8.00000000E-01  8.00000000E-01  1.50000000E+00  8.00000000E-01
  8.00000000E-01  1.50000000E+00  8.00000000E-01  8.00000000E-01  1.50000000E+00
  8.00000000E-01  8.00000000E-01  1.50000000E+00  8.00000000E-01  8.00000000E-01
  1.50000000E+00  8.00000000E-01  8.00000000E-01  1.50000000E+00  8.00000000E-01
  8.00000000E-01  1.50000000E+00  8.00000000E-01  8.00000000E-01  1.50000000E+00
  8.00000000E-01  8.00000000E-01  1.50000000E+00  8.00000000E-01  8.00000000E-01
  1.50000000E+00  8.00000000E-01  8.00000000E-01  1.50000000E+00  8.00000000E-01
  8.00000000E-01  1.50000000E+00  8.00000000E-01  8.00000000E-01  1.50000000E+00
  8.00000000E-01  8.00000000E-01  1.50000000E+00  8.00000000E-01  8.00000000E-01
  1.50000000E+00  8.00000000E-01  8.00000000E-01  1.50000000E+00  8.00000000E-01
  8.00000000E-01  1.50000000E+00  8.00000000E-01  8.00000000E-01  1.50000000E+00
  8.00000000E-01  8.00000000E-01  1.50000000E+00  8.00000000E-01  8.00000000E-01
  1.50000000E+00  8.00000000E-01  8.00000000E-01  1.50000000E+00  8.00000000E-01
  8.00000000E-01  1.50000000E+00  8.00000000E-01  8.00000000E-01  1.50000000E+00
  8.00000000E-01  8.00000000E-01  1.50000000E+00  8.00000000E-01  8.00000000E-01
  1.50000000E+00  8.00000000E-01  8.00000000E-01  1.50000000E+00  8.00000000E-01
  8.00000000E-01  1.50000000E+00  8.00000000E-01  8.00000000E-01  1.50000000E+00
  8.00000000E-01  8.00000000E-01  1.50000000E+00  8.00000000E-01  8.00000000E-01
  1.50000000E+00  8.00000000E-01  8.00000000E-01  1.50000000E+00  8.00000000E-01
  8.00000000E-01  1.50000000E+00  8.00000000E-01  8.00000000E-01  1.50000000E+00
  8.00000000E-01  8.00000000E-01  1.50000000E+00  8.00000000E-01  8.00000000E-01
  1.50000000E+00  8.00000000E-01  8.00000000E-01  1.50000000E+00  8.00000000E-01
  8.00000000E-01  1.50000000E+00  8.00000000E-01  8.00000000E-01  1.50000000E+00
  8.00000000E-01  8.00000000E-01  1.50000000E+00  8.00000000E-01  8.00000000E-01
  1.50000000E+00  8.00000000E-01  8.00000000E-01  1.50000000E+00  8.00000000E-01
  8.00000000E-01  1.50000000E+00  8.00000000E-01  8.00000000E-01  1.50000000E+00
  8.00000000E-01  8.00000000E-01  1.50000000E+00  8.00000000E-01  8.00000000E-01
  1.50000000E+00  8.00000000E-01  8.00000000E-01  1.50000000E+00  8.00000000E-01
  8.00000000E-01  1.50000000E+00  8.00000000E-01  8.00000000E-01  1.50000000E+00
  8.00000000E-01  8.00000000E-01  1.50000000E+00  8.00000000E-01  8.00000000E-01
  1.50000000E+00  8.00000000E-01  8.00000000E-01  1.50000000E+00  8.00000000E-01
  8.00000000E-01  1.50000000E+00  8.00000000E-01  8.00000000E-01  1.50000000E+00
  8.00000000E-01  8.00000000E-01  1.50000000E+00  8.00000000E-01  8.00000000E-01
  1.50000000E+00  8.00000000E-01  8.00000000E-01  1.50000000E+00  8.00000000E-01
  8.00000000E-01  1.50000000E+00  8.00000000E-01  8.00000000E-01  1.50000000E+00
  8.00000000E-01  8.00000000E-01  1.50000000E+00  8.00000000E-01  8.00000000E-01
  1.50000000E+00  8.00000000E-01  8.00000000E-01  1.50000000E+00  8.00000000E-01
  8.00000000E-01  1.50000000E+00  8.00000000E-01  8.00000000E-01  1.50000000E+00
  8.00000000E-01  8.00000000E-01  1.50000000E+00  8.00000000E-01  8.00000000E-01
  1.50000000E+00  8.00000000E-01  8.00000000E-01  1.50000000E+00  8.00000000E-01
  8.00000000E-01  1.50000000E+00  8.00000000E-01  8.00000000E-01  1.50000000E+00
  8.00000000E-01  8.00000000E-01  1.50000000E+00  8.00000000E-01  8.00000000E-01
  1.50000000E+00  8.00000000E-01  8.00000000E-01  1.50000000E+00  8.00000000E-01
  8.00000000E-01  1.50000000E+00  8.00000000E-01  8.00000000E-01  1.50000000E+00
  8.00000000E-01  8.00000000E-01  1.50000000E+00  8.00000000E-01  8.00000000E-01
  1.50000000E+00  8.00000000E-01  8.00000000E-01  1.50000000E+00  8.00000000E-01
  8.00000000E-01  1.50000000E+00  8.00000000E-01  8.00000000E-01  1.50000000E+00
  8.00000000E-01  8.00000000E-01  1.50000000E+00  8.00000000E-01  8.00000000E-01
  1.50000000E+00  8.00000000E-01  8.00000000E-01  1.50000000E+00  8.00000000E-01
  8.00000000E-01  1.50000000E+00  8.00000000E-01  8.00000000E-01  1.50000000E+00
  8.00000000E-01  8.00000000E-01  1.50000000E+00  8.00000000E-01  8.00000000E-01
  1.50000000E+00  8.00000000E-01  8.00000000E-01  1.50000000E+00  8.00000000E-01
  8.00000000E-01  1.50000000E+00  8.00000000E-01  8.00000000E-01  1.50000000E+00
  8.00000000E-01  8.00000000E-01  1.50000000E+00  8.00000000E-01  8.00000000E-01
  1.50000000E+00  8.00000000E-01  8.00000000E-01  1.50000000E+00  8.00000000E-01
  8.00000000E-01  1.50000000E+00  8.00000000E-01  8.00000000E-01  1.50000000E+00
  8.00000000E-01  8.00000000E-01  1.50000000E+00  8.00000000E-01  8.00000000E-01
  1.50000000E+00  8.00000000E-01  8.00000000E-01  1.50000000E+00  8.00000000E-01
  8.00000000E-01  1.50000000E+00  8.00000000E-01  8.00000000E-01  1.50000000E+00
  8.00000000E-01  8.00000000E-01  1.50000000E+00  8.00000000E-01  8.00000000E-01
  1.50000000E+00  8.00000000E-01  8.00000000E-01  1.50000000E+00  8.00000000E-01
  8.00000000E-01  1.50000000E+00  8.00000000E-01  8.00000000E-01  1.50000000E+00
  8.00000000E-01  8.00000000E-01  1.50000000E+00  8.00000000E-01  8.00000000E-01
  1.50000000E+00  8.00000000E-01  8.00000000E-01  1.50000000E+00  8.00000000E-01
  8.00000000E-01  1.50000000E+00  8.00000000E-01  8.00000000E-01  1.50000000E+00
  8.00000000E-01  8.00000000E-01  1.50000000E+00  8.00000000E-01  8.00000000E-01
  1.50000000E+00  8.00000000E-01  8.00000000E-01  1.50000000E+00  8.00000000E-01
  8.00000000E-01  1.50000000E+00  8.00000000E-01  8.00000000E-01  1.50000000E+00
  8.00000000E-01  8.00000000E-01  1.50000000E+00  8.00000000E-01  8.00000000E-01
  1.50000000E+00  8.00000000E-01  8.00000000E-01  1.50000000E+00  8.00000000E-01
  8.00000000E-01  1.50000000E+00  8.00000000E-01  8.00000000E-01  1.50000000E+00
  8.00000000E-01  8.00000000E-01  1.50000000E+00  8.00000000E-01  8.00000000E-01
  1.50000000E+00  8.00000000E-01  8.00000000E-01  1.50000000E+00  8.00000000E-01
  8.00000000E-01  1.50000000E+00  8.00000000E-01  8.00000000E-01  1.50000000E+00
  8.00000000E-01  8.00000000E-01  1.50000000E+00  8.00000000E-01  8.00000000E-01
  1.50000000E+00  8.00000000E-01  8.00000000E-01  1.50000000E+00  8.00000000E-01
  8.00000000E-01  1.50000000E+00  8.00000000E-01  8.00000000E-01  1.50000000E+00
  8.00000000E-01  8.00000000E-01  1.50000000E+00  8.00000000E-01  8.00000000E-01
  1.50000000E+00  8.00000000E-01  8.00000000E-01  1.50000000E+00  8.00000000E-01
  8.00000000E-01  1.50000000E+00  8.00000000E-01  8.00000000E-01  1.50000000E+00
  8.00000000E-01  8.00000000E-01  1.50000000E+00  8.00000000E-01  8.00000000E-01
  1.50000000E+00  8.00000000E-01  8.00000000E-01  1.50000000E+00  8.00000000E-01
  8.00000000E-01  1.50000000E+00  8.00000000E-01  8.00000000E-01  1.50000000E+00
  8.00000000E-01  8.00000000E-01  1.50000000E+00  8.00000000E-01  8.00000000E-01
  1.50000000E+00  8.00000000E-01  8.00000000E-01  1.50000000E+00  8.00000000E-01
  8.00000000E-01  1.50000000E+00  8.00000000E-01  8.00000000E-01  1.50000000E+00
  8.00000000E-01  8.00000000E-01  1.50000000E+00  8.00000000E-01  8.00000000E-01
  1.50000000E+00  8.00000000E-01  8.00000000E-01  1.50000000E+00  8.00000000E-01
  8.00000000E-01  1.50000000E+00  8.00000000E-01  8.00000000E-01  1.50000000E+00
  8.00000000E-01  8.00000000E-01  1.50000000E+00  8.00000000E-01  8.00000000E-01
  1.50000000E+00  8.00000000E-01  8.00000000E-01  1.50000000E+00  8.00000000E-01
  8.00000000E-01  1.50000000E+00  8.00000000E-01  8.00000000E-01  1.50000000E+00
  8.00000000E-01  8.00000000E-01  1.50000000E+00  8.00000000E-01  8.00000000E-01
  1.50000000E+00  8.00000000E-01  8.00000000E-01  1.50000000E+00  8.00000000E-01
  8.00000000E-01  1.50000000E+00  8.00000000E-01  8.00000000E-01  1.50000000E+00
  8.00000000E-01  8.00000000E-01  1.50000000E+00  8.00000000E-01  8.00000000E-01
  1.50000000E+00  8.00000000E-01  8.00000000E-01  1.50000000E+00  8.00000000E-01
  8.00000000E-01  1.50000000E+00  8.00000000E-01  8.00000000E-01  1.50000000E+00
  8.00000000E-01  8.00000000E-01  1.50000000E+00  8.00000000E-01  8.00000000E-01
  1.50000000E+00  8.00000000E-01  8.00000000E-01  1.50000000E+00  8.00000000E-01
  8.00000000E-01  1.50000000E+00  8.00000000E-01  8.00000000E-01  1.50000000E+00
  8.00000000E-01  8.00000000E-01  1.50000000E+00  8.00000000E-01  8.00000000E-01
  1.50000000E+00  8.00000000E-01  8.00000000E-01  1.50000000E+00  8.00000000E-01
  8.00000000E-01  1.50000000E+00  8.00000000E-01  8.00000000E-01  1.50000000E+00
  8.00000000E-01  8.00000000E-01  1.50000000E+00  8.00000000E-01  8.00000000E-01
  1.50000000E+00  8.00000000E-01  8.00000000E-01  1.50000000E+00  8.00000000E-01
  8.00000000E-01  1.50000000E+00  8.00000000E-01  8.00000000E-01  1.50000000E+00
  8.00000000E-01  8.00000000E-01  1.50000000E+00  8.00000000E-01  8.00000000E-01
  1.50000000E+00  8.00000000E-01  8.00000000E-01  1.50000000E+00  8.00000000E-01
  8.00000000E-01  1.50000000E+00  8.00000000E-01  8.00000000E-01  1.50000000E+00
  8.00000000E-01  8.00000000E-01  1.50000000E+00  8.00000000E-01  8.00000000E-01
  1.50000000E+00  8.00000000E-01  8.00000000E-01  1.50000000E+00  8.00000000E-01
  8.00000000E-01  1.50000000E+00  8.00000000E-01  8.00000000E-01  1.50000000E+00
  8.00000000E-01  8.00000000E-01  1.50000000E+00  8.00000000E-01  8.00000000E-01
  1.50000000E+00  8.00000000E-01  8.00000000E-01  1.50000000E+00  8.00000000E-01
  8.00000000E-01  1.50000000E+00  8.00000000E-01  8.00000000E-01  1.50000000E+00
  8.00000000E-01  8.00000000E-01  1.50000000E+00  8.00000000E-01  8.00000000E-01
  1.50000000E+00  8.00000000E-01  8.00000000E-01  1.50000000E+00  8.00000000E-01
  8.00000000E-01  1.50000000E+00  8.00000000E-01  8.00000000E-01  1.50000000E+00
  8.00000000E-01  8.00000000E-01  1.50000000E+00  8.00000000E-01  8.00000000E-01
  1.50000000E+00  8.00000000E-01  8.00000000E-01  1.50000000E+00  8.00000000E-01
  8.00000000E-01  1.50000000E+00  8.00000000E-01  8.00000000E-01  1.50000000E+00
  8.00000000E-01  8.00000000E-01  1.50000000E+00  8.00000000E-01  8.00000000E-01
  1.50000000E+00  8.00000000E-01  8.00000000E-01  1.50000000E+00  8.00000000E-01
  8.00000000E-01  1.50000000E+00  8.00000000E-01  8.00000000E-01  1.50000000E+00
  8.00000000E-01  8.00000000E-01  1.50000000E+00  8.00000000E-01  8.00000000E-01
  1.50000000E+00  8.00000000E-01  8.00000000E-01  1.50000000E+00  8.00000000E-01
  8.00000000E-01  1.50000000E+00  8.00000000E-01  8.00000000E-01  1.50000000E+00
  8.00000000E-01  8.00000000E-01  1.50000000E+00  8.00000000E-01  8.00000000E-01
  1.50000000E+00  8.00000000E-01  8.00000000E-01  1.50000000E+00  8.00000000E-01
  8.00000000E-01  1.50000000E+00  8.00000000E-01  8.00000000E-01  1.50000000E+00
  8.00000000E-01  8.00000000E-01  1.50000000E+00  8.00000000E-01  8.00000000E-01
  1.50000000E+00  8.00000000E-01  8.00000000E-01  1.50000000E+00  8.00000000E-01
  8.00000000E-01  1.50000000E+00  8.00000000E-01  8.00000000E-01  1.50000000E+00
  8.00000000E-01  8.00000000E-01  1.50000000E+00  8.00000000E-01  8.00000000E-01
  1.50000000E+00  8.00000000E-01  8.00000000E-01  1.50000000E+00  8.00000000E-01
  8.00000000E-01  1.50000000E+00  8.00000000E-01  8.00000000E-01  1.50000000E+00
  8.00000000E-01  8.00000000E-01  1.50000000E+00  8.00000000E-01  8.00000000E-01
  1.50000000E+00  8.00000000E-01  8.00000000E-01  1.50000000E+00  8.00000000E-01
  8.00000000E-01  1.50000000E+00  8.00000000E-01  8.00000000E-01  1.50000000E+00
  8.00000000E-01  8.00000000E-01  1.50000000E+00  8.00000000E-01  8.00000000E-01
  1.50000000E+00  8.00000000E-01  8.00000000E-01  1.50000000E+00  8.00000000E-01
  8.00000000E-01  1.50000000E+00  8.00000000E-01  8.00000000E-01  1.50000000E+00
  8.00000000E-01  8.00000000E-01  1.50000000E+00  8.00000000E-01  8.00000000E-01
  1.50000000E+00  8.00000000E-01  8.00000000E-01  1.50000000E+00  8.00000000E-01
  8.00000000E-01  1.50000000E+00  8.00000000E-01  8.00000000E-01  1.50000000E+00
  8.00000000E-01  8.00000000E-01  1.50000000E+00  8.00000000E-01  8.00000000E-01
  1.50000000E+00  8.00000000E-01  8.00000000E-01  1.50000000E+00  8.00000000E-01
  8.00000000E-01  1.50000000E+00  8.00000000E-01  8.00000000E-01  1.50000000E+00
  8.00000000E-01  8.00000000E-01  1.50000000E+00  8.00000000E-01  8.00000000E-01
  1.50000000E+00  8.00000000E-01  8.00000000E-01  1.50000000E+00  8.00000000E-01
  8.00000000E-01  1.50000000E+00  8.00000000E-01  8.00000000E-01  1.50000000E+00
  8.00000000E-01  8.00000000E-01  1.50000000E+00  8.00000000E-01  8.00000000E-01
  1.50000000E+00  8.00000000E-01  8.00000000E-01  1.50000000E+00  8.00000000E-01
  8.00000000E-01  1.50000000E+00  8.00000000E-01  8.00000000E-01  1.50000000E+00
  8.00000000E-01  8.00000000E-01  1.50000000E+00  8.00000000E-01  8.00000000E-01
  1.50000000E+00  8.00000000E-01  8.00000000E-01  1.50000000E+00  8.00000000E-01
  8.00000000E-01  1.50000000E+00  8.00000000E-01  8.00000000E-01  1.50000000E+00
  8.00000000E-01  8.00000000E-01  1.50000000E+00  8.00000000E-01  8.00000000E-01
  1.50000000E+00  8.00000000E-01  8.00000000E-01  1.50000000E+00  8.00000000E-01
  8.00000000E-01  1.50000000E+00  8.00000000E-01  8.00000000E-01  1.50000000E+00
  8.00000000E-01  8.00000000E-01  1.50000000E+00  8.00000000E-01  8.00000000E-01
  1.50000000E+00  8.00000000E-01  8.00000000E-01  1.50000000E+00  8.00000000E-01
  8.00000000E-01  1.50000000E+00  8.00000000E-01  8.00000000E-01  1.50000000E+00
  8.00000000E-01  8.00000000E-01  1.50000000E+00  8.00000000E-01  8.00000000E-01
  1.50000000E+00  8.00000000E-01  8.00000000E-01  1.50000000E+00  8.00000000E-01
  8.00000000E-01  1.50000000E+00  8.00000000E-01  8.00000000E-01  1.50000000E+00
  8.00000000E-01  8.00000000E-01  1.50000000E+00  8.00000000E-01  8.00000000E-01
  1.50000000E+00  8.00000000E-01  8.00000000E-01  1.50000000E+00  8.00000000E-01
  8.00000000E-01  1.50000000E+00  8.00000000E-01  8.00000000E-01  1.50000000E+00
  8.00000000E-01  8.00000000E-01  1.50000000E+00  8.00000000E-01  8.00000000E-01
  1.50000000E+00  8.00000000E-01  8.00000000E-01  1.50000000E+00  8.00000000E-01
  8.00000000E-01  1.50000000E+00  8.00000000E-01  8.00000000E-01  1.50000000E+00
  8.00000000E-01  8.00000000E-01  1.50000000E+00  8.00000000E-01  8.00000000E-01
  1.50000000E+00  8.00000000E-01  8.00000000E-01  1.50000000E+00  8.00000000E-01
  8.00000000E-01  1.50000000E+00  8.00000000E-01  8.00000000E-01  1.50000000E+00
  8.00000000E-01  8.00000000E-01  1.50000000E+00  8.00000000E-01  8.00000000E-01
  1.50000000E+00  8.00000000E-01  8.00000000E-01  1.50000000E+00  8.00000000E-01
  8.00000000E-01  1.50000000E+00  8.00000000E-01  8.00000000E-01  1.50000000E+00
  8.00000000E-01  8.00000000E-01  1.50000000E+00  8.00000000E-01  8.00000000E-01
  1.50000000E+00  8.00000000E-01  8.00000000E-01  1.50000000E+00  8.00000000E-01
  8.00000000E-01  1.50000000E+00  8.00000000E-01  8.00000000E-01  1.50000000E+00
  8.00000000E-01  8.00000000E-01  1.50000000E+00  8.00000000E-01  8.00000000E-01
  1.50000000E+00  8.00000000E-01  8.00000000E-01  1.50000000E+00  8.00000000E-01
  8.00000000E-01  1.50000000E+00  8.00000000E-01  8.00000000E-01  1.50000000E+00
  8.00000000E-01  8.00000000E-01  1.50000000E+00  8.00000000E-01  8.00000000E-01
  1.50000000E+00  8.00000000E-01  8.00000000E-01  1.50000000E+00  8.00000000E-01
  8.00000000E-01  1.50000000E+00  8.00000000E-01  8.00000000E-01  1.50000000E+00
  8.00000000E-01  8.00000000E-01  1.50000000E+00  8.00000000E-01  8.00000000E-01
  1.50000000E+00  8.00000000E-01  8.00000000E-01  1.50000000E+00  8.00000000E-01
  8.00000000E-01  1.50000000E+00  8.00000000E-01  8.00000000E-01  1.50000000E+00
  8.00000000E-01  8.00000000E-01  1.50000000E+00  8.00000000E-01  8.00000000E-01
  1.50000000E+00  8.00000000E-01  8.00000000E-01  1.50000000E+00  8.00000000E-01
  8.00000000E-01  1.50000000E+00  8.00000000E-01  8.00000000E-01  1.50000000E+00
  8.00000000E-01  8.00000000E-01  1.50000000E+00  8.00000000E-01  8.00000000E-01
  1.50000000E+00  8.00000000E-01  8.00000000E-01  1.50000000E+00  8.00000000E-01
  8.00000000E-01  1.50000000E+00  8.00000000E-01  8.00000000E-01  1.50000000E+00
  8.00000000E-01  8.00000000E-01  1.50000000E+00  8.00000000E-01  8.00000000E-01
  1.50000000E+00  8.00000000E-01  8.00000000E-01  1.50000000E+00  8.00000000E-01
  8.00000000E-01  1.50000000E+00  8.00000000E-01  8.00000000E-01  1.50000000E+00
  8.00000000E-01  8.00000000E-01  1.50000000E+00  8.00000000E-01  8.00000000E-01
  1.50000000E+00  8.00000000E-01  8.00000000E-01  1.50000000E+00  8.00000000E-01
  8.00000000E-01  1.50000000E+00  8.00000000E-01  8.00000000E-01  1.50000000E+00
  8.00000000E-01  8.00000000E-01  1.50000000E+00  8.00000000E-01  8.00000000E-01
  1.50000000E+00  8.00000000E-01  8.00000000E-01  1.50000000E+00  8.00000000E-01
  8.00000000E-01  1.50000000E+00  8.00000000E-01  8.00000000E-01  1.50000000E+00
  8.00000000E-01  8.00000000E-01  1.50000000E+00  8.00000000E-01  8.00000000E-01
  1.50000000E+00  8.00000000E-01  8.00000000E-01  1.50000000E+00  8.00000000E-01
  8.00000000E-01  1.50000000E+00  8.00000000E-01  8.00000000E-01  1.50000000E+00
  8.00000000E-01  8.00000000E-01  1.50000000E+00  8.00000000E-01  8.00000000E-01
  1.50000000E+00  8.00000000E-01  8.00000000E-01  1.50000000E+00  8.00000000E-01
  8.00000000E-01  1.50000000E+00  8.00000000E-01  8.00000000E-01  1.50000000E+00
  8.00000000E-01  8.00000000E-01  1.50000000E+00  8.00000000E-01  8.00000000E-01
  1.50000000E+00  8.00000000E-01  8.00000000E-01  1.50000000E+00  8.00000000E-01
  8.00000000E-01  1.50000000E+00  8.00000000E-01  8.00000000E-01  1.50000000E+00
  8.00000000E-01  8.00000000E-01  1.50000000E+00  8.00000000E-01  8.00000000E-01
  1.50000000E+00  8.00000000E-01  8.00000000E-01  1.50000000E+00  8.00000000E-01
  8.00000000E-01  1.50000000E+00  8.00000000E-01  8.00000000E-01  1.50000000E+00
  8.00000000E-01  8.00000000E-01  1.50000000E+00  8.00000000E-01  8.00000000E-01
  1.50000000E+00  8.00000000E-01  8.00000000E-01  1.50000000E+00  8.00000000E-01
  8.00000000E-01  1.50000000E+00  8.00000000E-01  8.00000000E-01  1.50000000E+00
  8.00000000E-01  8.00000000E-01  1.50000000E+00  8.00000000E-01  8.00000000E-01
  1.50000000E+00  8.00000000E-01  8.00000000E-01  1.50000000E+00  8.00000000E-01
  8.00000000E-01  1.50000000E+00  8.00000000E-01  8.00000000E-01  1.50000000E+00
  8.00000000E-01  8.00000000E-01  1.50000000E+00  8.00000000E-01  8.00000000E-01
  1.50000000E+00  8.00000000E-01  8.00000000E-01  1.50000000E+00  8.00000000E-01
  8.00000000E-01  1.50000000E+00  8.00000000E-01  8.00000000E-01  1.50000000E+00
  8.00000000E-01  8.00000000E-01  1.50000000E+00  8.00000000E-01  8.00000000E-01
  1.50000000E+00  8.00000000E-01  8.00000000E-01  1.50000000E+00  8.00000000E-01
  8.00000000E-01  1.50000000E+00  8.00000000E-01  8.00000000E-01  1.50000000E+00
  8.00000000E-01  8.00000000E-01  1.50000000E+00  8.00000000E-01  8.00000000E-01
  1.50000000E+00  8.00000000E-01  8.00000000E-01  1.50000000E+00  8.00000000E-01
  8.00000000E-01  1.50000000E+00  8.00000000E-01  8.00000000E-01  1.50000000E+00
  8.00000000E-01  8.00000000E-01  1.50000000E+00  8.00000000E-01  8.00000000E-01
  1.50000000E+00  8.00000000E-01  8.00000000E-01  1.50000000E+00  8.00000000E-01
  8.00000000E-01  1.50000000E+00  8.00000000E-01  8.00000000E-01  1.50000000E+00
  8.00000000E-01  8.00000000E-01  1.50000000E+00  8.00000000E-01  8.00000000E-01
  1.50000000E+00  8.00000000E-01  8.00000000E-01  1.50000000E+00  8.00000000E-01
  8.00000000E-01  1.50000000E+00  8.00000000E-01  8.00000000E-01  1.50000000E+00
  8.00000000E-01  8.00000000E-01  1.50000000E+00  8.00000000E-01  8.00000000E-01
  1.50000000E+00  8.00000000E-01  8.00000000E-01  1.50000000E+00  8.00000000E-01
  8.00000000E-01  1.50000000E+00  8.00000000E-01  8.00000000E-01  1.50000000E+00
  8.00000000E-01  8.00000000E-01  1.50000000E+00  8.00000000E-01  8.00000000E-01
  1.50000000E+00  8.00000000E-01  8.00000000E-01  1.50000000E+00  8.00000000E-01
  8.00000000E-01  1.50000000E+00  8.00000000E-01  8.00000000E-01  1.50000000E+00
  8.00000000E-01  8.00000000E-01  1.50000000E+00  8.00000000E-01  8.00000000E-01
  1.50000000E+00  8.00000000E-01  8.00000000E-01  1.50000000E+00  8.00000000E-01
  8.00000000E-01  1.50000000E+00  8.00000000E-01  8.00000000E-01  1.50000000E+00
  8.00000000E-01  8.00000000E-01  1.50000000E+00  8.00000000E-01  8.00000000E-01
  1.50000000E+00  8.00000000E-01  8.00000000E-01  1.50000000E+00  8.00000000E-01
  8.00000000E-01  1.50000000E+00  8.00000000E-01  8.00000000E-01  1.50000000E+00
  8.00000000E-01  8.00000000E-01  1.50000000E+00  8.00000000E-01  8.00000000E-01
  1.50000000E+00  8.00000000E-01  8.00000000E-01  1.50000000E+00  8.00000000E-01
  8.00000000E-01  1.50000000E+00  8.00000000E-01  8.00000000E-01  1.50000000E+00
  8.00000000E-01  8.00000000E-01  1.50000000E+00  8.00000000E-01  8.00000000E-01
  1.50000000E+00  8.00000000E-01  8.00000000E-01  1.50000000E+00  8.00000000E-01
  8.00000000E-01  1.50000000E+00  8.00000000E-01  8.00000000E-01  1.50000000E+00
  8.00000000E-01  8.00000000E-01  1.50000000E+00  8.00000000E-01  8.00000000E-01
  1.50000000E+00  8.00000000E-01  8.00000000E-01  1.50000000E+00  8.00000000E-01
  8.00000000E-01  1.50000000E+00  8.00000000E-01  8.00000000E-01  1.50000000E+00
  8.00000000E-01  8.00000000E-01  1.50000000E+00  8.00000000E-01  8.00000000E-01
  1.50000000E+00  8.00000000E-01  8.00000000E-01  1.50000000E+00  8.00000000E-01
  8.00000000E-01  1.50000000E+00  8.00000000E-01  8.00000000E-01  1.50000000E+00
  8.00000000E-01  8.00000000E-01  1.50000000E+00  8.00000000E-01  8.00000000E-01
  1.50000000E+00  8.00000000E-01  8.00000000E-01  1.50000000E+00  8.00000000E-01
  8.00000000E-01  1.50000000E+00  8.00000000E-01  8.00000000E-01  1.50000000E+00
  8.00000000E-01  8.00000000E-01  1.50000000E+00  8.00000000E-01  8.00000000E-01
  1.50000000E+00  8.00000000E-01  8.00000000E-01  1.50000000E+00  8.00000000E-01
  8.00000000E-01  1.50000000E+00  8.00000000E-01  8.00000000E-01  1.50000000E+00
  8.00000000E-01  8.00000000E-01  1.50000000E+00  8.00000000E-01  8.00000000E-01
  1.50000000E+00  8.00000000E-01  8.00000000E-01  1.50000000E+00  8.00000000E-01
  8.00000000E-01  1.50000000E+00  8.00000000E-01  8.00000000E-01  1.50000000E+00
  8.00000000E-01  8.00000000E-01  1.50000000E+00  8.00000000E-01  8.00000000E-01
  1.50000000E+00  8.00000000E-01  8.00000000E-01  1.50000000E+00  8.00000000E-01
  8.00000000E-01  1.50000000E+00  8.00000000E-01  8.00000000E-01  1.50000000E+00
  8.00000000E-01  8.00000000E-01  1.50000000E+00  8.00000000E-01  8.00000000E-01
  1.50000000E+00  8.00000000E-01  8.00000000E-01  1.50000000E+00  8.00000000E-01
  8.00000000E-01  1.50000000E+00  8.00000000E-01  8.00000000E-01  1.50000000E+00
  8.00000000E-01  8.00000000E-01  1.50000000E+00  8.00000000E-01  8.00000000E-01
  1.50000000E+00  8.00000000E-01  8.00000000E-01  1.50000000E+00  8.00000000E-01
  8.00000000E-01  1.50000000E+00  8.00000000E-01  8.00000000E-01  1.50000000E+00
  8.00000000E-01  8.00000000E-01  1.50000000E+00  8.00000000E-01  8.00000000E-01
  1.50000000E+00  8.00000000E-01  8.00000000E-01  1.50000000E+00  8.00000000E-01
  8.00000000E-01  1.50000000E+00  8.00000000E-01  8.00000000E-01  1.50000000E+00
  8.00000000E-01  8.00000000E-01  1.50000000E+00  8.00000000E-01  8.00000000E-01
  1.50000000E+00  8.00000000E-01  8.00000000E-01  1.50000000E+00  8.00000000E-01
  8.00000000E-01  1.50000000E+00  8.00000000E-01  8.00000000E-01  1.50000000E+00
  8.00000000E-01  8.00000000E-01  1.50000000E+00  8.00000000E-01  8.00000000E-01
  1.50000000E+00  8.00000000E-01  8.00000000E-01  1.50000000E+00  8.00000000E-01
  8.00000000E-01  1.50000000E+00  8.00000000E-01  8.00000000E-01  1.50000000E+00
  8.00000000E-01  8.00000000E-01  1.50000000E+00  8.00000000E-01  8.00000000E-01
  1.50000000E+00  8.00000000E-01  8.00000000E-01  1.50000000E+00  8.00000000E-01
  8.00000000E-01  1.50000000E+00  8.00000000E-01  8.00000000E-01  1.50000000E+00
  8.00000000E-01  8.00000000E-01  1.50000000E+00  8.00000000E-01  8.00000000E-01
  1.50000000E+00  8.00000000E-01  8.00000000E-01  1.50000000E+00  8.00000000E-01
  8.00000000E-01  1.50000000E+00  8.00000000E-01  8.00000000E-01  1.50000000E+00
  8.00000000E-01  8.00000000E-01  1.50000000E+00  8.00000000E-01  8.00000000E-01
  1.50000000E+00  8.00000000E-01  8.00000000E-01  1.50000000E+00  8.00000000E-01
  8.00000000E-01  1.50000000E+00  8.00000000E-01  8.00000000E-01  1.50000000E+00
  8.00000000E-01  8.00000000E-01  1.50000000E+00  8.00000000E-01  8.00000000E-01
  1.50000000E+00  8.00000000E-01  8.00000000E-01  1.50000000E+00  8.00000000E-01
  8.00000000E-01  1.50000000E+00  8.00000000E-01  8.00000000E-01  1.50000000E+00
  8.00000000E-01  8.00000000E-01  1.50000000E+00  8.00000000E-01  8.00000000E-01
  1.50000000E+00  8.00000000E-01  8.00000000E-01  1.50000000E+00  8.00000000E-01
  8.00000000E-01  1.50000000E+00  8.00000000E-01  8.00000000E-01  1.50000000E+00
  8.00000000E-01  8.00000000E-01  1.50000000E+00  8.00000000E-01  8.00000000E-01
  1.50000000E+00  8.00000000E-01  8.00000000E-01  1.50000000E+00  8.00000000E-01
  8.00000000E-01  1.50000000E+00  8.00000000E-01  8.00000000E-01  1.50000000E+00
  8.00000000E-01  8.00000000E-01  1.50000000E+00  8.00000000E-01  8.00000000E-01
  1.50000000E+00  8.00000000E-01  8.00000000E-01  1.50000000E+00  8.00000000E-01
  8.00000000E-01  1.50000000E+00  8.00000000E-01  8.00000000E-01  1.50000000E+00
  8.00000000E-01  8.00000000E-01  1.50000000E+00  8.00000000E-01  8.00000000E-01
  1.50000000E+00  8.00000000E-01  8.00000000E-01  1.50000000E+00  8.00000000E-01
  8.00000000E-01  1.50000000E+00  8.00000000E-01  8.00000000E-01  1.50000000E+00
  8.00000000E-01  8.00000000E-01  1.50000000E+00  8.00000000E-01  8.00000000E-01
  1.50000000E+00  8.00000000E-01  8.00000000E-01  1.50000000E+00  8.00000000E-01
  8.00000000E-01  1.50000000E+00  8.00000000E-01  8.00000000E-01  1.50000000E+00
  8.00000000E-01  8.00000000E-01  1.50000000E+00  8.00000000E-01  8.00000000E-01
  1.50000000E+00  8.00000000E-01  8.00000000E-01  1.50000000E+00  8.00000000E-01
  8.00000000E-01  1.50000000E+00  8.00000000E-01  8.00000000E-01  1.50000000E+00
  8.00000000E-01  8.00000000E-01  1.50000000E+00  8.00000000E-01  8.00000000E-01
  1.50000000E+00  8.00000000E-01  8.00000000E-01  1.50000000E+00  8.00000000E-01
  8.00000000E-01  1.50000000E+00  8.00000000E-01  8.00000000E-01  1.50000000E+00
  8.00000000E-01  8.00000000E-01  1.50000000E+00  8.00000000E-01  8.00000000E-01
  1.50000000E+00  8.00000000E-01  8.00000000E-01  1.50000000E+00  8.00000000E-01
  8.00000000E-01  1.50000000E+00  8.00000000E-01  8.00000000E-01  1.50000000E+00
  8.00000000E-01  8.00000000E-01  1.50000000E+00  8.00000000E-01  8.00000000E-01
  1.50000000E+00  8.00000000E-01  8.00000000E-01  1.50000000E+00  8.00000000E-01
  8.00000000E-01  1.50000000E+00  8.00000000E-01  8.00000000E-01  1.50000000E+00
  8.00000000E-01  8.00000000E-01  1.50000000E+00  8.00000000E-01  8.00000000E-01
  1.50000000E+00  8.00000000E-01  8.00000000E-01  1.50000000E+00  8.00000000E-01
  8.00000000E-01  1.50000000E+00  8.00000000E-01  8.00000000E-01  1.50000000E+00
  8.00000000E-01  8.00000000E-01  1.50000000E+00  8.00000000E-01  8.00000000E-01
  1.50000000E+00  8.00000000E-01  8.00000000E-01  1.50000000E+00  8.00000000E-01
  8.00000000E-01  1.50000000E+00  8.00000000E-01  8.00000000E-01  1.50000000E+00
  8.00000000E-01  8.00000000E-01  1.50000000E+00  8.00000000E-01  8.00000000E-01
  1.50000000E+00  8.00000000E-01  8.00000000E-01  1.50000000E+00  8.00000000E-01
  8.00000000E-01  1.50000000E+00  8.00000000E-01  8.00000000E-01  1.50000000E+00
  8.00000000E-01  8.00000000E-01  1.50000000E+00  8.00000000E-01  8.00000000E-01
  1.50000000E+00  8.00000000E-01  8.00000000E-01  1.50000000E+00  8.00000000E-01
  8.00000000E-01  1.50000000E+00  8.00000000E-01  8.00000000E-01  1.50000000E+00
  8.00000000E-01  8.00000000E-01  1.50000000E+00  8.00000000E-01  8.00000000E-01
  1.50000000E+00  8.00000000E-01  8.00000000E-01  1.50000000E+00  8.00000000E-01
  8.00000000E-01  1.50000000E+00  8.00000000E-01  8.00000000E-01  1.50000000E+00
  8.00000000E-01  8.00000000E-01  1.50000000E+00  8.00000000E-01  8.00000000E-01
  1.50000000E+00  8.00000000E-01  8.00000000E-01  1.50000000E+00  8.00000000E-01
  8.00000000E-01  1.50000000E+00  8.00000000E-01  8.00000000E-01  1.50000000E+00
  8.00000000E-01  8.00000000E-01  1.50000000E+00  8.00000000E-01  8.00000000E-01
  1.50000000E+00  8.00000000E-01  8.00000000E-01  1.50000000E+00  8.00000000E-01
  8.00000000E-01  1.50000000E+00  8.00000000E-01  8.00000000E-01  1.50000000E+00
  8.00000000E-01  8.00000000E-01  1.50000000E+00  8.00000000E-01  8.00000000E-01
  1.50000000E+00  8.00000000E-01  8.00000000E-01  1.50000000E+00  8.00000000E-01
  8.00000000E-01  1.50000000E+00  8.00000000E-01  8.00000000E-01  1.50000000E+00
  8.00000000E-01  8.00000000E-01  1.50000000E+00  8.00000000E-01  8.00000000E-01
  1.50000000E+00  8.00000000E-01  8.00000000E-01  1.50000000E+00  8.00000000E-01
  8.00000000E-01  1.50000000E+00  8.00000000E-01  8.00000000E-01  1.50000000E+00
  8.00000000E-01  8.00000000E-01  1.50000000E+00  8.00000000E-01  8.00000000E-01
  1.50000000E+00  8.00000000E-01  8.00000000E-01  1.50000000E+00  8.00000000E-01
  8.00000000E-01  1.50000000E+00  8.00000000E-01  8.00000000E-01  1.50000000E+00
  8.00000000E-01  8.00000000E-01  1.50000000E+00  8.00000000E-01  8.00000000E-01
  1.50000000E+00  8.00000000E-01  8.00000000E-01  1.50000000E+00  8.00000000E-01
  8.00000000E-01  1.50000000E+00  8.00000000E-01  8.00000000E-01  1.50000000E+00
  8.00000000E-01  8.00000000E-01  1.50000000E+00  8.00000000E-01  8.00000000E-01
  1.50000000E+00  8.00000000E-01  8.00000000E-01  1.50000000E+00  8.00000000E-01
  8.00000000E-01  1.50000000E+00  8.00000000E-01  8.00000000E-01  1.50000000E+00
  8.00000000E-01  8.00000000E-01  1.50000000E+00  8.00000000E-01  8.00000000E-01
  1.50000000E+00  8.00000000E-01  8.00000000E-01  1.50000000E+00  8.00000000E-01
  8.00000000E-01  1.50000000E+00  8.00000000E-01  8.00000000E-01  1.50000000E+00
  8.00000000E-01  8.00000000E-01  1.50000000E+00  8.00000000E-01  8.00000000E-01
  1.50000000E+00  8.00000000E-01  8.00000000E-01  1.50000000E+00  8.00000000E-01
  8.00000000E-01  1.50000000E+00  8.00000000E-01  8.00000000E-01  1.50000000E+00
  8.00000000E-01  8.00000000E-01  1.50000000E+00  8.00000000E-01  8.00000000E-01
  1.50000000E+00  8.00000000E-01  8.00000000E-01  1.50000000E+00  8.00000000E-01
  8.00000000E-01  1.50000000E+00  8.00000000E-01  8.00000000E-01  1.50000000E+00
  8.00000000E-01  8.00000000E-01  1.50000000E+00  8.00000000E-01  8.00000000E-01
  1.50000000E+00  8.00000000E-01  8.00000000E-01  1.50000000E+00  8.00000000E-01
  8.00000000E-01  1.50000000E+00  8.00000000E-01  8.00000000E-01  1.50000000E+00
  8.00000000E-01  8.00000000E-01  1.50000000E+00  8.00000000E-01  8.00000000E-01
  1.50000000E+00  8.00000000E-01  8.00000000E-01  1.50000000E+00  8.00000000E-01
  8.00000000E-01  1.50000000E+00  8.00000000E-01  8.00000000E-01  1.50000000E+00
  8.00000000E-01  8.00000000E-01  1.50000000E+00  8.00000000E-01  8.00000000E-01
  1.50000000E+00  8.00000000E-01  8.00000000E-01  1.50000000E+00  8.00000000E-01
  8.00000000E-01  1.50000000E+00  8.00000000E-01  8.00000000E-01  1.50000000E+00
  8.00000000E-01  8.00000000E-01  1.50000000E+00  8.00000000E-01  8.00000000E-01
  1.50000000E+00  8.00000000E-01  8.00000000E-01  1.50000000E+00  8.00000000E-01
  8.00000000E-01  1.50000000E+00  8.00000000E-01  8.00000000E-01  1.50000000E+00
  8.00000000E-01  8.00000000E-01  1.50000000E+00  8.00000000E-01  8.00000000E-01
  1.50000000E+00  8.00000000E-01  8.00000000E-01  1.50000000E+00  8.00000000E-01
  8.00000000E-01  1.50000000E+00  8.00000000E-01  8.00000000E-01  1.50000000E+00
  8.00000000E-01  8.00000000E-01  1.50000000E+00  8.00000000E-01  8.00000000E-01
  1.50000000E+00  8.00000000E-01  8.00000000E-01  1.50000000E+00  8.00000000E-01
  8.00000000E-01  1.50000000E+00  8.00000000E-01  8.00000000E-01  1.50000000E+00
  8.00000000E-01  8.00000000E-01  1.50000000E+00  8.00000000E-01  8.00000000E-01
  1.50000000E+00  8.00000000E-01  8.00000000E-01  1.50000000E+00  8.00000000E-01
  8.00000000E-01  1.50000000E+00  8.00000000E-01  8.00000000E-01  1.50000000E+00
  8.00000000E-01  8.00000000E-01  1.50000000E+00  8.00000000E-01  8.00000000E-01
  1.50000000E+00  8.00000000E-01  8.00000000E-01  1.50000000E+00  8.00000000E-01
  8.00000000E-01  1.50000000E+00  8.00000000E-01  8.00000000E-01  1.50000000E+00
  8.00000000E-01  8.00000000E-01  1.50000000E+00  8.00000000E-01  8.00000000E-01
  1.50000000E+00  8.00000000E-01  8.00000000E-01  1.50000000E+00  8.00000000E-01
  8.00000000E-01  1.50000000E+00  8.00000000E-01  8.00000000E-01  1.50000000E+00
  8.00000000E-01  8.00000000E-01  1.50000000E+00  8.00000000E-01  8.00000000E-01
  1.50000000E+00  8.00000000E-01  8.00000000E-01  1.50000000E+00  8.00000000E-01
  8.00000000E-01  1.50000000E+00  8.00000000E-01  8.00000000E-01  1.50000000E+00
  8.00000000E-01  8.00000000E-01  1.50000000E+00  8.00000000E-01  8.00000000E-01
  1.50000000E+00  8.00000000E-01  8.00000000E-01  1.50000000E+00  8.00000000E-01
  8.00000000E-01  1.50000000E+00  8.00000000E-01  8.00000000E-01  1.50000000E+00
  8.00000000E-01  8.00000000E-01  1.50000000E+00  8.00000000E-01  8.00000000E-01
  1.50000000E+00  8.00000000E-01  8.00000000E-01  1.50000000E+00  8.00000000E-01
  8.00000000E-01  1.50000000E+00  8.00000000E-01  8.00000000E-01  1.50000000E+00
  8.00000000E-01  8.00000000E-01  1.50000000E+00  8.00000000E-01  8.00000000E-01
  1.50000000E+00  8.00000000E-01  8.00000000E-01  1.50000000E+00  8.00000000E-01
  8.00000000E-01  1.50000000E+00  8.00000000E-01  8.00000000E-01  1.50000000E+00
  8.00000000E-01  8.00000000E-01  1.50000000E+00  8.00000000E-01  8.00000000E-01
  1.50000000E+00  8.00000000E-01  8.00000000E-01  1.50000000E+00  8.00000000E-01
  8.00000000E-01  1.50000000E+00  8.00000000E-01  8.00000000E-01  1.50000000E+00
  8.00000000E-01  8.00000000E-01  1.50000000E+00  8.00000000E-01  8.00000000E-01
  1.50000000E+00  8.00000000E-01  8.00000000E-01  1.50000000E+00  8.00000000E-01
  8.00000000E-01  1.50000000E+00  8.00000000E-01  8.00000000E-01  1.50000000E+00
  8.00000000E-01  8.00000000E-01  1.50000000E+00  8.00000000E-01  8.00000000E-01
  1.50000000E+00  8.00000000E-01  8.00000000E-01  1.50000000E+00  8.00000000E-01
  8.00000000E-01  1.50000000E+00  8.00000000E-01  8.00000000E-01  1.50000000E+00
  8.00000000E-01  8.00000000E-01  1.50000000E+00  8.00000000E-01  8.00000000E-01
  1.50000000E+00  8.00000000E-01  8.00000000E-01  1.50000000E+00  8.00000000E-01
  8.00000000E-01  1.50000000E+00  8.00000000E-01  8.00000000E-01  1.50000000E+00
  8.00000000E-01  8.00000000E-01  1.50000000E+00  8.00000000E-01  8.00000000E-01
  1.50000000E+00  8.00000000E-01  8.00000000E-01  1.50000000E+00  8.00000000E-01
  8.00000000E-01  1.50000000E+00  8.00000000E-01  8.00000000E-01  1.50000000E+00
  8.00000000E-01  8.00000000E-01  1.50000000E+00  8.00000000E-01  8.00000000E-01
  1.50000000E+00  8.00000000E-01  8.00000000E-01  1.50000000E+00  8.00000000E-01
  8.00000000E-01  1.50000000E+00  8.00000000E-01  8.00000000E-01  1.50000000E+00
  8.00000000E-01  8.00000000E-01  1.50000000E+00  8.00000000E-01  8.00000000E-01
  1.50000000E+00  8.00000000E-01  8.00000000E-01  1.50000000E+00  8.00000000E-01
  8.00000000E-01  1.50000000E+00  8.00000000E-01  8.00000000E-01  1.50000000E+00
  8.00000000E-01  8.00000000E-01  1.50000000E+00  8.00000000E-01  8.00000000E-01
  1.50000000E+00  8.00000000E-01  8.00000000E-01  1.50000000E+00  8.00000000E-01
  8.00000000E-01  1.50000000E+00  8.00000000E-01  8.00000000E-01  1.50000000E+00
  8.00000000E-01  8.00000000E-01  1.50000000E+00  8.00000000E-01  8.00000000E-01
  1.50000000E+00  8.00000000E-01  8.00000000E-01  1.50000000E+00  8.00000000E-01
  8.00000000E-01  1.50000000E+00  8.00000000E-01  8.00000000E-01  1.50000000E+00
  8.00000000E-01  8.00000000E-01  1.50000000E+00  8.00000000E-01  8.00000000E-01
  1.50000000E+00  8.00000000E-01  8.00000000E-01  1.50000000E+00  8.00000000E-01
  8.00000000E-01  1.50000000E+00  8.00000000E-01  8.00000000E-01  1.50000000E+00
  8.00000000E-01  8.00000000E-01  1.50000000E+00  8.00000000E-01  8.00000000E-01
  1.50000000E+00  8.00000000E-01  8.00000000E-01  1.50000000E+00  8.00000000E-01
  8.00000000E-01  1.50000000E+00  8.00000000E-01  8.00000000E-01  1.50000000E+00
  8.00000000E-01  8.00000000E-01  1.50000000E+00  8.00000000E-01  8.00000000E-01
  1.50000000E+00  8.00000000E-01  8.00000000E-01  1.50000000E+00  8.00000000E-01
  8.00000000E-01  1.50000000E+00  8.00000000E-01  8.00000000E-01  1.50000000E+00
  8.00000000E-01  8.00000000E-01  1.50000000E+00  8.00000000E-01  8.00000000E-01
  1.50000000E+00  8.00000000E-01  8.00000000E-01  1.50000000E+00  8.00000000E-01
  8.00000000E-01  1.50000000E+00  8.00000000E-01  8.00000000E-01  1.50000000E+00
  8.00000000E-01  8.00000000E-01  1.50000000E+00  8.00000000E-01  8.00000000E-01
  1.50000000E+00  8.00000000E-01  8.00000000E-01  1.50000000E+00  8.00000000E-01
  8.00000000E-01  1.50000000E+00  8.00000000E-01  8.00000000E-01  1.50000000E+00
  8.00000000E-01  8.00000000E-01  1.50000000E+00  8.00000000E-01  8.00000000E-01
  1.50000000E+00  8.00000000E-01  8.00000000E-01  1.50000000E+00  8.00000000E-01
  8.00000000E-01  1.50000000E+00  8.00000000E-01  8.00000000E-01  1.50000000E+00
  8.00000000E-01  8.00000000E-01  1.50000000E+00  8.00000000E-01  8.00000000E-01
  1.50000000E+00  8.00000000E-01  8.00000000E-01  1.50000000E+00  8.00000000E-01
  8.00000000E-01  1.50000000E+00  8.00000000E-01  8.00000000E-01  1.50000000E+00
  8.00000000E-01  8.00000000E-01  1.50000000E+00  8.00000000E-01  8.00000000E-01
  1.50000000E+00  8.00000000E-01  8.00000000E-01  1.50000000E+00  8.00000000E-01
  8.00000000E-01  1.50000000E+00  8.00000000E-01  8.00000000E-01  1.50000000E+00
  8.00000000E-01  8.00000000E-01  1.50000000E+00  8.00000000E-01  8.00000000E-01
  1.50000000E+00  8.00000000E-01  8.00000000E-01  1.50000000E+00  8.00000000E-01
  8.00000000E-01  1.50000000E+00  8.00000000E-01  8.00000000E-01  1.50000000E+00
  8.00000000E-01  8.00000000E-01  1.50000000E+00  8.00000000E-01  8.00000000E-01
  1.50000000E+00  8.00000000E-01  8.00000000E-01  1.50000000E+00  8.00000000E-01
  8.00000000E-01  1.50000000E+00  8.00000000E-01  8.00000000E-01  1.50000000E+00
  8.00000000E-01  8.00000000E-01  1.50000000E+00  8.00000000E-01  8.00000000E-01
  1.50000000E+00  8.00000000E-01  8.00000000E-01  1.50000000E+00  8.00000000E-01
  8.00000000E-01  1.50000000E+00  8.00000000E-01  8.00000000E-01  1.50000000E+00
  8.00000000E-01  8.00000000E-01  1.50000000E+00  8.00000000E-01  8.00000000E-01
  1.50000000E+00  8.00000000E-01  8.00000000E-01  1.50000000E+00  8.00000000E-01
  8.00000000E-01  1.50000000E+00  8.00000000E-01  8.00000000E-01  1.50000000E+00
  8.00000000E-01  8.00000000E-01  1.50000000E+00  8.00000000E-01  8.00000000E-01
  1.50000000E+00  8.00000000E-01  8.00000000E-01  1.50000000E+00  8.00000000E-01
  8.00000000E-01  1.50000000E+00  8.00000000E-01  8.00000000E-01  1.50000000E+00
  8.00000000E-01  8.00000000E-01  1.50000000E+00  8.00000000E-01  8.00000000E-01
  1.50000000E+00  8.00000000E-01  8.00000000E-01  1.50000000E+00  8.00000000E-01
  8.00000000E-01  1.50000000E+00  8.00000000E-01  8.00000000E-01  1.50000000E+00
  8.00000000E-01  8.00000000E-01  1.50000000E+00  8.00000000E-01  8.00000000E-01
  1.50000000E+00  8.00000000E-01  8.00000000E-01  1.50000000E+00  8.00000000E-01
  8.00000000E-01  1.50000000E+00  8.00000000E-01  8.00000000E-01  1.50000000E+00
  8.00000000E-01  8.00000000E-01  1.50000000E+00  8.00000000E-01  8.00000000E-01
  1.50000000E+00  8.00000000E-01  8.00000000E-01  1.50000000E+00  8.00000000E-01
  8.00000000E-01  1.50000000E+00  8.00000000E-01  8.00000000E-01  1.50000000E+00
  8.00000000E-01  8.00000000E-01  1.50000000E+00  8.00000000E-01  8.00000000E-01
  1.50000000E+00  8.00000000E-01  8.00000000E-01  1.50000000E+00  8.00000000E-01
  8.00000000E-01  1.50000000E+00  8.00000000E-01  8.00000000E-01  1.50000000E+00
  8.00000000E-01  8.00000000E-01  1.50000000E+00  8.00000000E-01  8.00000000E-01
  1.50000000E+00  8.00000000E-01  8.00000000E-01  1.50000000E+00  8.00000000E-01
  8.00000000E-01  1.50000000E+00  8.00000000E-01  8.00000000E-01  1.50000000E+00
  8.00000000E-01  8.00000000E-01  1.50000000E+00  8.00000000E-01  8.00000000E-01
  1.50000000E+00  8.00000000E-01  8.00000000E-01  1.50000000E+00  8.00000000E-01
  8.00000000E-01  1.50000000E+00  8.00000000E-01  8.00000000E-01  1.50000000E+00
  8.00000000E-01  8.00000000E-01  1.50000000E+00  8.00000000E-01  8.00000000E-01
  1.50000000E+00  8.00000000E-01  8.00000000E-01  1.50000000E+00  8.00000000E-01
  8.00000000E-01  1.50000000E+00  8.00000000E-01  8.00000000E-01  1.50000000E+00
  8.00000000E-01  8.00000000E-01  1.50000000E+00  8.00000000E-01  8.00000000E-01
  1.50000000E+00  8.00000000E-01  8.00000000E-01  1.50000000E+00  8.00000000E-01
  8.00000000E-01  1.50000000E+00  8.00000000E-01  8.00000000E-01  1.50000000E+00
  8.00000000E-01  8.00000000E-01  1.50000000E+00  8.00000000E-01  8.00000000E-01
  1.50000000E+00  8.00000000E-01  8.00000000E-01  1.50000000E+00  8.00000000E-01
  8.00000000E-01  1.50000000E+00  8.00000000E-01  8.00000000E-01  1.50000000E+00
  8.00000000E-01  8.00000000E-01  1.50000000E+00  8.00000000E-01  8.00000000E-01
  1.50000000E+00  8.00000000E-01  8.00000000E-01  1.50000000E+00  8.00000000E-01
  8.00000000E-01  1.50000000E+00  8.00000000E-01  8.00000000E-01  1.50000000E+00
  8.00000000E-01  8.00000000E-01  1.50000000E+00  8.00000000E-01  8.00000000E-01
  1.50000000E+00  8.00000000E-01  8.00000000E-01  1.50000000E+00  8.00000000E-01
  8.00000000E-01  1.50000000E+00  8.00000000E-01  8.00000000E-01  1.50000000E+00
  8.00000000E-01  8.00000000E-01  1.50000000E+00  8.00000000E-01  8.00000000E-01
  1.50000000E+00  8.00000000E-01  8.00000000E-01  1.50000000E+00  8.00000000E-01
  8.00000000E-01  1.50000000E+00  8.00000000E-01  8.00000000E-01  1.50000000E+00
  8.00000000E-01  8.00000000E-01  1.50000000E+00  8.00000000E-01  8.00000000E-01
  1.50000000E+00  8.00000000E-01  8.00000000E-01  1.50000000E+00  8.00000000E-01
  8.00000000E-01  1.50000000E+00  8.00000000E-01  8.00000000E-01  1.50000000E+00
  8.00000000E-01  8.00000000E-01  1.50000000E+00  8.00000000E-01  8.00000000E-01
  1.50000000E+00  8.00000000E-01  8.00000000E-01  1.50000000E+00  8.00000000E-01
  8.00000000E-01  1.50000000E+00  8.00000000E-01  8.00000000E-01  1.50000000E+00
  8.00000000E-01  8.00000000E-01  1.50000000E+00  8.00000000E-01  8.00000000E-01
  1.50000000E+00  8.00000000E-01  8.00000000E-01  1.50000000E+00  8.00000000E-01
  8.00000000E-01  1.50000000E+00  8.00000000E-01  8.00000000E-01  1.50000000E+00
  8.00000000E-01  8.00000000E-01  1.50000000E+00  8.00000000E-01  8.00000000E-01
  1.50000000E+00  8.00000000E-01  8.00000000E-01  1.50000000E+00  8.00000000E-01
  8.00000000E-01  1.50000000E+00  8.00000000E-01  8.00000000E-01  1.50000000E+00
  8.00000000E-01  8.00000000E-01  1.50000000E+00  8.00000000E-01  8.00000000E-01
  1.50000000E+00  8.00000000E-01  8.00000000E-01  1.50000000E+00  8.00000000E-01
  8.00000000E-01  1.50000000E+00  8.00000000E-01  8.00000000E-01  1.50000000E+00
  8.00000000E-01  8.00000000E-01  1.50000000E+00  8.00000000E-01  8.00000000E-01
  1.50000000E+00  8.00000000E-01  8.00000000E-01  1.50000000E+00  8.00000000E-01
  8.00000000E-01  1.50000000E+00  8.00000000E-01  8.00000000E-01  1.50000000E+00
  8.00000000E-01  8.00000000E-01  1.50000000E+00  8.00000000E-01  8.00000000E-01
  1.50000000E+00  8.00000000E-01  8.00000000E-01  1.50000000E+00  8.00000000E-01
  8.00000000E-01  1.50000000E+00  8.00000000E-01  8.00000000E-01  1.50000000E+00
  8.00000000E-01  8.00000000E-01  1.50000000E+00  8.00000000E-01  8.00000000E-01
  1.50000000E+00  8.00000000E-01  8.00000000E-01  1.50000000E+00  8.00000000E-01
  8.00000000E-01  1.50000000E+00  8.00000000E-01  8.00000000E-01  1.50000000E+00
  8.00000000E-01  8.00000000E-01  1.50000000E+00  8.00000000E-01  8.00000000E-01
  1.50000000E+00  8.00000000E-01  8.00000000E-01  1.50000000E+00  8.00000000E-01
  8.00000000E-01  1.50000000E+00  8.00000000E-01  8.00000000E-01  1.50000000E+00
  8.00000000E-01  8.00000000E-01  1.50000000E+00  8.00000000E-01  8.00000000E-01
  1.50000000E+00  8.00000000E-01  8.00000000E-01  1.50000000E+00  8.00000000E-01
  8.00000000E-01  1.50000000E+00  8.00000000E-01  8.00000000E-01  1.50000000E+00
  8.00000000E-01  8.00000000E-01  1.50000000E+00  8.00000000E-01  8.00000000E-01
  1.50000000E+00  8.00000000E-01  8.00000000E-01  1.50000000E+00  8.00000000E-01
  8.00000000E-01  1.50000000E+00  8.00000000E-01  8.00000000E-01  1.50000000E+00
  8.00000000E-01  8.00000000E-01  1.50000000E+00  8.00000000E-01  8.00000000E-01
  1.50000000E+00  8.00000000E-01  8.00000000E-01  1.50000000E+00  8.00000000E-01
  8.00000000E-01  1.50000000E+00  8.00000000E-01  8.00000000E-01  1.50000000E+00
  8.00000000E-01  8.00000000E-01  1.50000000E+00  8.00000000E-01  8.00000000E-01
  1.50000000E+00  8.00000000E-01  8.00000000E-01  1.50000000E+00  8.00000000E-01
  8.00000000E-01  1.50000000E+00  8.00000000E-01  8.00000000E-01  1.50000000E+00
  8.00000000E-01  8.00000000E-01  1.50000000E+00  8.00000000E-01  8.00000000E-01
  1.50000000E+00  8.00000000E-01  8.00000000E-01  1.50000000E+00  8.00000000E-01
  8.00000000E-01  1.50000000E+00  8.00000000E-01  8.00000000E-01  1.50000000E+00
  8.00000000E-01  8.00000000E-01  1.50000000E+00  8.00000000E-01  8.00000000E-01
  1.50000000E+00  8.00000000E-01  8.00000000E-01  1.50000000E+00  8.00000000E-01
  8.00000000E-01  1.50000000E+00  8.00000000E-01  8.00000000E-01  1.50000000E+00
  8.00000000E-01  8.00000000E-01  1.50000000E+00  8.00000000E-01  8.00000000E-01
  1.50000000E+00  8.00000000E-01  8.00000000E-01  1.50000000E+00  8.00000000E-01
  8.00000000E-01  1.50000000E+00  8.00000000E-01  8.00000000E-01  1.50000000E+00
  8.00000000E-01  8.00000000E-01  1.50000000E+00  8.00000000E-01  8.00000000E-01
  1.50000000E+00  8.00000000E-01  8.00000000E-01  1.50000000E+00  8.00000000E-01
  8.00000000E-01  1.50000000E+00  8.00000000E-01  8.00000000E-01  1.50000000E+00
  8.00000000E-01  8.00000000E-01  1.50000000E+00  8.00000000E-01  8.00000000E-01
  1.50000000E+00  8.00000000E-01  8.00000000E-01  1.50000000E+00  8.00000000E-01
  8.00000000E-01  1.50000000E+00  8.00000000E-01  8.00000000E-01  1.50000000E+00
  8.00000000E-01  8.00000000E-01  1.50000000E+00  8.00000000E-01  8.00000000E-01
  1.50000000E+00  8.00000000E-01  8.00000000E-01  1.50000000E+00  8.00000000E-01
  8.00000000E-01  1.50000000E+00  8.00000000E-01  8.00000000E-01  1.50000000E+00
  8.00000000E-01  8.00000000E-01  1.50000000E+00  8.00000000E-01  8.00000000E-01
  1.50000000E+00  8.00000000E-01  8.00000000E-01  1.50000000E+00  8.00000000E-01
  8.00000000E-01  1.50000000E+00  8.00000000E-01  8.00000000E-01  1.50000000E+00
  8.00000000E-01  8.00000000E-01  1.50000000E+00  8.00000000E-01  8.00000000E-01
  1.50000000E+00  8.00000000E-01  8.00000000E-01  1.50000000E+00  8.00000000E-01
  8.00000000E-01  1.50000000E+00  8.00000000E-01  8.00000000E-01  1.50000000E+00
  8.00000000E-01  8.00000000E-01  1.50000000E+00  8.00000000E-01  8.00000000E-01
  1.50000000E+00  8.00000000E-01  8.00000000E-01  1.50000000E+00  8.00000000E-01
  8.00000000E-01  1.50000000E+00  8.00000000E-01  8.00000000E-01  1.50000000E+00
  8.00000000E-01  8.00000000E-01  1.50000000E+00  8.00000000E-01  8.00000000E-01
  1.50000000E+00  8.00000000E-01  8.00000000E-01  1.50000000E+00  8.00000000E-01
  8.00000000E-01  1.50000000E+00  8.00000000E-01  8.00000000E-01  1.50000000E+00
  8.00000000E-01  8.00000000E-01  1.50000000E+00  8.00000000E-01  8.00000000E-01
  1.50000000E+00  8.00000000E-01  8.00000000E-01  1.50000000E+00  8.00000000E-01
  8.00000000E-01  1.50000000E+00  8.00000000E-01  8.00000000E-01  1.50000000E+00
  8.00000000E-01  8.00000000E-01  1.50000000E+00  8.00000000E-01  8.00000000E-01
  1.50000000E+00  8.00000000E-01  8.00000000E-01  1.50000000E+00  8.00000000E-01
  8.00000000E-01  1.50000000E+00  8.00000000E-01  8.00000000E-01  1.50000000E+00
  8.00000000E-01  8.00000000E-01  1.50000000E+00  8.00000000E-01  8.00000000E-01
  1.50000000E+00  8.00000000E-01  8.00000000E-01  1.50000000E+00  8.00000000E-01
  8.00000000E-01  1.50000000E+00  8.00000000E-01  8.00000000E-01  1.50000000E+00
  8.00000000E-01  8.00000000E-01  1.50000000E+00  8.00000000E-01  8.00000000E-01
  1.50000000E+00  8.00000000E-01  8.00000000E-01  1.50000000E+00  8.00000000E-01
  8.00000000E-01  1.50000000E+00  8.00000000E-01  8.00000000E-01  1.50000000E+00
  8.00000000E-01  8.00000000E-01  1.50000000E+00  8.00000000E-01  8.00000000E-01
  1.50000000E+00  8.00000000E-01  8.00000000E-01  1.50000000E+00  8.00000000E-01
  8.00000000E-01  1.50000000E+00  8.00000000E-01  8.00000000E-01  1.50000000E+00
  8.00000000E-01  8.00000000E-01  1.50000000E+00  8.00000000E-01  8.00000000E-01
  1.50000000E+00  8.00000000E-01  8.00000000E-01  1.50000000E+00  8.00000000E-01
  8.00000000E-01  1.50000000E+00  8.00000000E-01  8.00000000E-01  1.50000000E+00
  8.00000000E-01  8.00000000E-01  1.50000000E+00  8.00000000E-01  8.00000000E-01
  1.50000000E+00  8.00000000E-01  8.00000000E-01  1.50000000E+00  8.00000000E-01
  8.00000000E-01  1.50000000E+00  8.00000000E-01  8.00000000E-01  1.50000000E+00
  8.00000000E-01  8.00000000E-01  1.50000000E+00  8.00000000E-01  8.00000000E-01
  1.50000000E+00  8.00000000E-01  8.00000000E-01  1.50000000E+00  8.00000000E-01
  8.00000000E-01  1.50000000E+00  8.00000000E-01  8.00000000E-01  1.50000000E+00
  8.00000000E-01  8.00000000E-01  1.50000000E+00  8.00000000E-01  8.00000000E-01
  1.50000000E+00  8.00000000E-01  8.00000000E-01  1.50000000E+00  8.00000000E-01
  8.00000000E-01  1.50000000E+00  8.00000000E-01  8.00000000E-01  1.50000000E+00
  8.00000000E-01  8.00000000E-01  1.50000000E+00  8.00000000E-01  8.00000000E-01
  1.50000000E+00  8.00000000E-01  8.00000000E-01  1.50000000E+00  8.00000000E-01
  8.00000000E-01  1.50000000E+00  8.00000000E-01  8.00000000E-01  1.50000000E+00
  8.00000000E-01  8.00000000E-01  1.50000000E+00  8.00000000E-01  8.00000000E-01
  1.50000000E+00  8.00000000E-01  8.00000000E-01  1.50000000E+00  8.00000000E-01
  8.00000000E-01  1.50000000E+00  8.00000000E-01  8.00000000E-01  1.50000000E+00
  8.00000000E-01  8.00000000E-01  1.50000000E+00  8.00000000E-01  8.00000000E-01
  1.50000000E+00  8.00000000E-01  8.00000000E-01  1.50000000E+00  8.00000000E-01
  8.00000000E-01  1.50000000E+00  8.00000000E-01  8.00000000E-01  1.50000000E+00
  8.00000000E-01  8.00000000E-01  1.50000000E+00  8.00000000E-01  8.00000000E-01
  1.50000000E+00  8.00000000E-01  8.00000000E-01  1.50000000E+00  8.00000000E-01
  8.00000000E-01  1.50000000E+00  8.00000000E-01  8.00000000E-01  1.50000000E+00
  8.00000000E-01  8.00000000E-01  1.50000000E+00  8.00000000E-01  8.00000000E-01
  1.50000000E+00  8.00000000E-01  8.00000000E-01  1.50000000E+00  8.00000000E-01
  8.00000000E-01  1.50000000E+00  8.00000000E-01  8.00000000E-01  1.50000000E+00
  8.00000000E-01  8.00000000E-01  1.50000000E+00  8.00000000E-01  8.00000000E-01
  1.50000000E+00  8.00000000E-01  8.00000000E-01  1.50000000E+00  8.00000000E-01
  8.00000000E-01  1.50000000E+00  8.00000000E-01  8.00000000E-01  1.50000000E+00
  8.00000000E-01  8.00000000E-01  1.50000000E+00  8.00000000E-01  8.00000000E-01
  1.50000000E+00  8.00000000E-01  8.00000000E-01  1.50000000E+00  8.00000000E-01
  8.00000000E-01  1.50000000E+00  8.00000000E-01  8.00000000E-01  1.50000000E+00
  8.00000000E-01  8.00000000E-01  1.50000000E+00  8.00000000E-01  8.00000000E-01
  1.50000000E+00  8.00000000E-01  8.00000000E-01  1.50000000E+00  8.00000000E-01
  8.00000000E-01  1.50000000E+00  8.00000000E-01  8.00000000E-01  1.50000000E+00
  8.00000000E-01  8.00000000E-01  1.50000000E+00  8.00000000E-01  8.00000000E-01
  1.50000000E+00  8.00000000E-01  8.00000000E-01  1.50000000E+00  8.00000000E-01
  8.00000000E-01  1.50000000E+00  8.00000000E-01  8.00000000E-01  1.50000000E+00
  8.00000000E-01  8.00000000E-01  1.50000000E+00  8.00000000E-01  8.00000000E-01
  1.50000000E+00  8.00000000E-01  8.00000000E-01  1.50000000E+00  8.00000000E-01
  8.00000000E-01  1.50000000E+00  8.00000000E-01  8.00000000E-01  1.50000000E+00
  8.00000000E-01  8.00000000E-01  1.50000000E+00  8.00000000E-01  8.00000000E-01
  1.50000000E+00  8.00000000E-01  8.00000000E-01  1.50000000E+00  8.00000000E-01
  8.00000000E-01  1.50000000E+00  8.00000000E-01  8.00000000E-01  1.50000000E+00
  8.00000000E-01  8.00000000E-01  1.50000000E+00  8.00000000E-01  8.00000000E-01
  1.50000000E+00  8.00000000E-01  8.00000000E-01  1.50000000E+00  8.00000000E-01
  8.00000000E-01  1.50000000E+00  8.00000000E-01  8.00000000E-01  1.50000000E+00
  8.00000000E-01  8.00000000E-01  1.50000000E+00  8.00000000E-01  8.00000000E-01
  1.50000000E+00  8.00000000E-01  8.00000000E-01  1.50000000E+00  8.00000000E-01
  8.00000000E-01  1.50000000E+00  8.00000000E-01  8.00000000E-01  1.50000000E+00
  8.00000000E-01  8.00000000E-01  1.50000000E+00  8.00000000E-01  8.00000000E-01
  1.50000000E+00  8.00000000E-01  8.00000000E-01  1.50000000E+00  8.00000000E-01
  8.00000000E-01  1.50000000E+00  8.00000000E-01  8.00000000E-01  1.50000000E+00
  8.00000000E-01  8.00000000E-01  1.50000000E+00  8.00000000E-01  8.00000000E-01
  1.50000000E+00  8.00000000E-01  8.00000000E-01  1.50000000E+00  8.00000000E-01
  8.00000000E-01  1.50000000E+00  8.00000000E-01  8.00000000E-01  1.50000000E+00
  8.00000000E-01  8.00000000E-01  1.50000000E+00  8.00000000E-01  8.00000000E-01
  1.50000000E+00  8.00000000E-01  8.00000000E-01  1.50000000E+00  8.00000000E-01
  8.00000000E-01  1.50000000E+00  8.00000000E-01  8.00000000E-01  1.50000000E+00
  8.00000000E-01  8.00000000E-01  1.50000000E+00  8.00000000E-01  8.00000000E-01
  1.50000000E+00  8.00000000E-01  8.00000000E-01  1.50000000E+00  8.00000000E-01
  8.00000000E-01  1.50000000E+00  8.00000000E-01  8.00000000E-01  1.50000000E+00
  8.00000000E-01  8.00000000E-01  1.50000000E+00  8.00000000E-01  8.00000000E-01
  1.50000000E+00  8.00000000E-01  8.00000000E-01  1.50000000E+00  8.00000000E-01
  8.00000000E-01  1.50000000E+00  8.00000000E-01  8.00000000E-01  1.50000000E+00
  8.00000000E-01  8.00000000E-01  1.50000000E+00  8.00000000E-01  8.00000000E-01
  1.50000000E+00  8.00000000E-01  8.00000000E-01  1.50000000E+00  8.00000000E-01
  8.00000000E-01  1.50000000E+00  8.00000000E-01  8.00000000E-01  1.50000000E+00
  8.00000000E-01  8.00000000E-01  1.50000000E+00  8.00000000E-01  8.00000000E-01
  1.50000000E+00  8.00000000E-01  8.00000000E-01  1.50000000E+00  8.00000000E-01
  8.00000000E-01  1.50000000E+00  8.00000000E-01  8.00000000E-01  1.50000000E+00
  8.00000000E-01  8.00000000E-01  1.50000000E+00  8.00000000E-01  8.00000000E-01
  1.50000000E+00  8.00000000E-01  8.00000000E-01  1.50000000E+00  8.00000000E-01
  8.00000000E-01  1.50000000E+00  8.00000000E-01  8.00000000E-01  1.50000000E+00
  8.00000000E-01  8.00000000E-01  1.50000000E+00  8.00000000E-01  8.00000000E-01
  1.50000000E+00  8.00000000E-01  8.00000000E-01  1.50000000E+00  8.00000000E-01
  8.00000000E-01  1.50000000E+00  8.00000000E-01  8.00000000E-01  1.50000000E+00
  8.00000000E-01  8.00000000E-01  1.50000000E+00  8.00000000E-01  8.00000000E-01
  1.50000000E+00  8.00000000E-01  8.00000000E-01  1.50000000E+00  8.00000000E-01
  8.00000000E-01  1.50000000E+00  8.00000000E-01  8.00000000E-01  1.50000000E+00
  8.00000000E-01  8.00000000E-01  1.50000000E+00  8.00000000E-01  8.00000000E-01
  1.50000000E+00  8.00000000E-01  8.00000000E-01  1.50000000E+00  8.00000000E-01
  8.00000000E-01  1.50000000E+00  8.00000000E-01  8.00000000E-01  1.50000000E+00
  8.00000000E-01  8.00000000E-01  1.50000000E+00  8.00000000E-01  8.00000000E-01
  1.50000000E+00  8.00000000E-01  8.00000000E-01  1.50000000E+00  8.00000000E-01
  8.00000000E-01  1.50000000E+00  8.00000000E-01  8.00000000E-01  1.50000000E+00
  8.00000000E-01  8.00000000E-01  1.50000000E+00  8.00000000E-01  8.00000000E-01
  1.50000000E+00  8.00000000E-01  8.00000000E-01  1.50000000E+00  8.00000000E-01
  8.00000000E-01  1.50000000E+00  8.00000000E-01  8.00000000E-01  1.50000000E+00
  8.00000000E-01  8.00000000E-01  1.50000000E+00  8.00000000E-01  8.00000000E-01
  1.50000000E+00  8.00000000E-01  8.00000000E-01  1.50000000E+00  8.00000000E-01
  8.00000000E-01  1.50000000E+00  8.00000000E-01  8.00000000E-01  1.50000000E+00
  8.00000000E-01  8.00000000E-01  1.50000000E+00  8.00000000E-01  8.00000000E-01
  1.50000000E+00  8.00000000E-01  8.00000000E-01  1.50000000E+00  8.00000000E-01
  8.00000000E-01  1.50000000E+00  8.00000000E-01  8.00000000E-01  1.50000000E+00
  8.00000000E-01  8.00000000E-01  1.50000000E+00  8.00000000E-01  8.00000000E-01
  1.50000000E+00  8.00000000E-01  8.00000000E-01  1.50000000E+00  8.00000000E-01
  8.00000000E-01  1.50000000E+00  8.00000000E-01  8.00000000E-01  1.50000000E+00
  8.00000000E-01  8.00000000E-01  1.50000000E+00  8.00000000E-01  8.00000000E-01
  1.50000000E+00  8.00000000E-01  8.00000000E-01  1.50000000E+00  8.00000000E-01
  8.00000000E-01  1.50000000E+00  8.00000000E-01  8.00000000E-01  1.50000000E+00
  8.00000000E-01  8.00000000E-01  1.50000000E+00  8.00000000E-01  8.00000000E-01
  1.50000000E+00  8.00000000E-01  8.00000000E-01  1.50000000E+00  8.00000000E-01
  8.00000000E-01  1.50000000E+00  8.00000000E-01  8.00000000E-01  1.50000000E+00
  8.00000000E-01  8.00000000E-01  1.50000000E+00  8.00000000E-01  8.00000000E-01
  1.50000000E+00  8.00000000E-01  8.00000000E-01  1.50000000E+00  8.00000000E-01
  8.00000000E-01  1.50000000E+00  8.00000000E-01  8.00000000E-01  1.50000000E+00
  8.00000000E-01  8.00000000E-01  1.50000000E+00  8.00000000E-01  8.00000000E-01
  1.50000000E+00  8.00000000E-01  8.00000000E-01  1.50000000E+00  8.00000000E-01
  8.00000000E-01  1.50000000E+00  8.00000000E-01  8.00000000E-01  1.50000000E+00
  8.00000000E-01  8.00000000E-01  1.50000000E+00  8.00000000E-01  8.00000000E-01
  1.50000000E+00  8.00000000E-01  8.00000000E-01  1.50000000E+00  8.00000000E-01
  8.00000000E-01  1.50000000E+00  8.00000000E-01  8.00000000E-01  1.50000000E+00
  8.00000000E-01  8.00000000E-01  1.50000000E+00  8.00000000E-01  8.00000000E-01
  1.50000000E+00  8.00000000E-01  8.00000000E-01  1.50000000E+00  8.00000000E-01
  8.00000000E-01  1.50000000E+00  8.00000000E-01  8.00000000E-01  1.50000000E+00
  8.00000000E-01  8.00000000E-01  1.50000000E+00  8.00000000E-01  8.00000000E-01
  1.50000000E+00  8.00000000E-01  8.00000000E-01  1.50000000E+00  8.00000000E-01
  8.00000000E-01  1.50000000E+00  8.00000000E-01  8.00000000E-01  1.50000000E+00
  8.00000000E-01  8.00000000E-01  1.50000000E+00  8.00000000E-01  8.00000000E-01
  1.50000000E+00  8.00000000E-01  8.00000000E-01  1.50000000E+00  8.00000000E-01
  8.00000000E-01  1.50000000E+00  8.00000000E-01  8.00000000E-01  1.50000000E+00
  8.00000000E-01  8.00000000E-01  1.50000000E+00  8.00000000E-01  8.00000000E-01
  1.50000000E+00  8.00000000E-01  8.00000000E-01  1.50000000E+00  8.00000000E-01
  8.00000000E-01  1.50000000E+00  8.00000000E-01  8.00000000E-01  1.50000000E+00
  8.00000000E-01  8.00000000E-01  1.50000000E+00  8.00000000E-01  8.00000000E-01
  1.50000000E+00  8.00000000E-01  8.00000000E-01  1.50000000E+00  8.00000000E-01
  8.00000000E-01  1.50000000E+00  8.00000000E-01  8.00000000E-01  1.50000000E+00
  8.00000000E-01  8.00000000E-01  1.50000000E+00  8.00000000E-01  8.00000000E-01
  1.50000000E+00  8.00000000E-01  8.00000000E-01  1.50000000E+00  8.00000000E-01
  8.00000000E-01  1.50000000E+00  8.00000000E-01  8.00000000E-01  1.50000000E+00
  8.00000000E-01  8.00000000E-01  1.50000000E+00  8.00000000E-01  8.00000000E-01
  1.50000000E+00  8.00000000E-01  8.00000000E-01  1.50000000E+00  8.00000000E-01
  8.00000000E-01  1.50000000E+00  8.00000000E-01  8.00000000E-01  1.50000000E+00
  8.00000000E-01  8.00000000E-01  1.50000000E+00  8.00000000E-01  8.00000000E-01
  1.50000000E+00  8.00000000E-01  8.00000000E-01  1.50000000E+00  8.00000000E-01
  8.00000000E-01  1.50000000E+00  8.00000000E-01  8.00000000E-01  1.50000000E+00
  8.00000000E-01  8.00000000E-01  1.50000000E+00  8.00000000E-01  8.00000000E-01
  1.50000000E+00  8.00000000E-01  8.00000000E-01  1.50000000E+00  8.00000000E-01
  8.00000000E-01  1.50000000E+00  8.00000000E-01  8.00000000E-01  1.50000000E+00
  8.00000000E-01  8.00000000E-01  1.50000000E+00  8.00000000E-01  8.00000000E-01
  1.50000000E+00  8.00000000E-01  8.00000000E-01  1.50000000E+00  8.00000000E-01
  8.00000000E-01  1.50000000E+00  8.00000000E-01  8.00000000E-01  1.50000000E+00
  8.00000000E-01  8.00000000E-01  1.50000000E+00  8.00000000E-01  8.00000000E-01
  1.50000000E+00  8.00000000E-01  8.00000000E-01  1.50000000E+00  8.00000000E-01
  8.00000000E-01  1.50000000E+00  8.00000000E-01  8.00000000E-01  1.50000000E+00
  8.00000000E-01  8.00000000E-01  1.50000000E+00  8.00000000E-01  8.00000000E-01
  1.50000000E+00  8.00000000E-01  8.00000000E-01  1.50000000E+00  8.00000000E-01
  8.00000000E-01  1.50000000E+00  8.00000000E-01  8.00000000E-01  1.50000000E+00
  8.00000000E-01  8.00000000E-01  1.50000000E+00  8.00000000E-01  8.00000000E-01
  1.50000000E+00  8.00000000E-01  8.00000000E-01  1.50000000E+00  8.00000000E-01
  8.00000000E-01  1.50000000E+00  8.00000000E-01  8.00000000E-01  1.50000000E+00
  8.00000000E-01  8.00000000E-01  1.50000000E+00  8.00000000E-01  8.00000000E-01
  1.50000000E+00  8.00000000E-01  8.00000000E-01  1.50000000E+00  8.00000000E-01
  8.00000000E-01  1.50000000E+00  8.00000000E-01  8.00000000E-01  1.50000000E+00
  8.00000000E-01  8.00000000E-01  1.50000000E+00  8.00000000E-01  8.00000000E-01
  1.50000000E+00  8.00000000E-01  8.00000000E-01  1.50000000E+00  8.00000000E-01
  8.00000000E-01  1.50000000E+00  8.00000000E-01  8.00000000E-01  1.50000000E+00
  8.00000000E-01  8.00000000E-01  1.50000000E+00  8.00000000E-01  8.00000000E-01
  1.50000000E+00  8.00000000E-01  8.00000000E-01  1.50000000E+00  8.00000000E-01
  8.00000000E-01  1.50000000E+00  8.00000000E-01  8.00000000E-01  1.50000000E+00
  8.00000000E-01  8.00000000E-01  1.50000000E+00  8.00000000E-01  8.00000000E-01
  1.50000000E+00  8.00000000E-01  8.00000000E-01  1.50000000E+00  8.00000000E-01
  8.00000000E-01  1.50000000E+00  8.00000000E-01  8.00000000E-01  1.50000000E+00
  8.00000000E-01  8.00000000E-01  1.50000000E+00  8.00000000E-01  8.00000000E-01
  1.50000000E+00  8.00000000E-01  8.00000000E-01  1.50000000E+00  8.00000000E-01
  8.00000000E-01  1.50000000E+00  8.00000000E-01  8.00000000E-01  1.50000000E+00
  8.00000000E-01  8.00000000E-01  1.50000000E+00  8.00000000E-01  8.00000000E-01
  1.50000000E+00  8.00000000E-01  8.00000000E-01  1.50000000E+00  8.00000000E-01
  8.00000000E-01  1.50000000E+00  8.00000000E-01  8.00000000E-01  1.50000000E+00
  8.00000000E-01  8.00000000E-01  1.50000000E+00  8.00000000E-01  8.00000000E-01
  1.50000000E+00  8.00000000E-01  8.00000000E-01  1.50000000E+00  8.00000000E-01
  8.00000000E-01  1.50000000E+00  8.00000000E-01  8.00000000E-01  1.50000000E+00
  8.00000000E-01  8.00000000E-01  1.50000000E+00  8.00000000E-01  8.00000000E-01
  1.50000000E+00  8.00000000E-01  8.00000000E-01  1.50000000E+00  8.00000000E-01
  8.00000000E-01  1.50000000E+00  8.00000000E-01  8.00000000E-01  1.50000000E+00
  8.00000000E-01  8.00000000E-01  1.50000000E+00  8.00000000E-01  8.00000000E-01
  1.50000000E+00  8.00000000E-01  8.00000000E-01  1.50000000E+00  8.00000000E-01
  8.00000000E-01  1.50000000E+00  8.00000000E-01  8.00000000E-01  1.50000000E+00
  8.00000000E-01  8.00000000E-01  1.50000000E+00  8.00000000E-01  8.00000000E-01
  1.50000000E+00  8.00000000E-01  8.00000000E-01  1.50000000E+00  8.00000000E-01
  8.00000000E-01  1.50000000E+00  8.00000000E-01  8.00000000E-01  1.50000000E+00
  8.00000000E-01  8.00000000E-01  1.50000000E+00  8.00000000E-01  8.00000000E-01
  1.50000000E+00  8.00000000E-01  8.00000000E-01  1.50000000E+00  8.00000000E-01
  8.00000000E-01  1.50000000E+00  8.00000000E-01  8.00000000E-01  1.50000000E+00
  8.00000000E-01  8.00000000E-01  1.50000000E+00  8.00000000E-01  8.00000000E-01
  1.50000000E+00  8.00000000E-01  8.00000000E-01  1.50000000E+00  8.00000000E-01
  8.00000000E-01  1.50000000E+00  8.00000000E-01  8.00000000E-01  1.50000000E+00
  8.00000000E-01  8.00000000E-01  1.50000000E+00  8.00000000E-01  8.00000000E-01
  1.50000000E+00  8.00000000E-01  8.00000000E-01  1.50000000E+00  8.00000000E-01
  8.00000000E-01  1.50000000E+00  8.00000000E-01  8.00000000E-01  1.50000000E+00
  8.00000000E-01  8.00000000E-01  1.50000000E+00  8.00000000E-01  8.00000000E-01
  1.50000000E+00  8.00000000E-01  8.00000000E-01  1.50000000E+00  8.00000000E-01
  8.00000000E-01  1.50000000E+00  8.00000000E-01  8.00000000E-01  1.50000000E+00
  8.00000000E-01  8.00000000E-01  1.50000000E+00  8.00000000E-01  8.00000000E-01
  1.50000000E+00  8.00000000E-01  8.00000000E-01  1.50000000E+00  8.00000000E-01
  8.00000000E-01  1.50000000E+00  8.00000000E-01  8.00000000E-01  1.50000000E+00
  8.00000000E-01  8.00000000E-01  1.50000000E+00  8.00000000E-01  8.00000000E-01
  1.50000000E+00  8.00000000E-01  8.00000000E-01  1.50000000E+00  8.00000000E-01
  8.00000000E-01  1.50000000E+00  8.00000000E-01  8.00000000E-01  1.50000000E+00
  8.00000000E-01  8.00000000E-01  1.50000000E+00  8.00000000E-01  8.00000000E-01
  1.50000000E+00  8.00000000E-01  8.00000000E-01  1.50000000E+00  8.00000000E-01
  8.00000000E-01  1.50000000E+00  8.00000000E-01  8.00000000E-01  1.50000000E+00
  8.00000000E-01  8.00000000E-01  1.50000000E+00  8.00000000E-01  8.00000000E-01
  1.50000000E+00  8.00000000E-01  8.00000000E-01  1.50000000E+00  8.00000000E-01
  8.00000000E-01  1.50000000E+00  8.00000000E-01  8.00000000E-01  1.50000000E+00
  8.00000000E-01  8.00000000E-01  1.50000000E+00  8.00000000E-01  8.00000000E-01
  1.50000000E+00  8.00000000E-01  8.00000000E-01  1.50000000E+00  8.00000000E-01
  8.00000000E-01  1.50000000E+00  8.00000000E-01  8.00000000E-01  1.50000000E+00
  8.00000000E-01  8.00000000E-01  1.50000000E+00  8.00000000E-01  8.00000000E-01
  1.50000000E+00  8.00000000E-01  8.00000000E-01  1.50000000E+00  8.00000000E-01
  8.00000000E-01  1.50000000E+00  8.00000000E-01  8.00000000E-01  1.50000000E+00
  8.00000000E-01  8.00000000E-01  1.50000000E+00  8.00000000E-01  8.00000000E-01
  1.50000000E+00  8.00000000E-01  8.00000000E-01  1.50000000E+00  8.00000000E-01
  8.00000000E-01  1.50000000E+00  8.00000000E-01  8.00000000E-01  1.50000000E+00
  8.00000000E-01  8.00000000E-01  1.50000000E+00  8.00000000E-01  8.00000000E-01
  1.50000000E+00  8.00000000E-01  8.00000000E-01  1.50000000E+00  8.00000000E-01
  8.00000000E-01  1.50000000E+00  8.00000000E-01  8.00000000E-01  1.50000000E+00
  8.00000000E-01  8.00000000E-01  1.50000000E+00  8.00000000E-01  8.00000000E-01
  1.50000000E+00  8.00000000E-01  8.00000000E-01  1.50000000E+00  8.00000000E-01
  8.00000000E-01  1.50000000E+00  8.00000000E-01  8.00000000E-01  1.50000000E+00
  8.00000000E-01  8.00000000E-01  1.50000000E+00  8.00000000E-01  8.00000000E-01
  1.50000000E+00  8.00000000E-01  8.00000000E-01  1.50000000E+00  8.00000000E-01
  8.00000000E-01  1.50000000E+00  8.00000000E-01  8.00000000E-01  1.50000000E+00
  8.00000000E-01  8.00000000E-01  1.50000000E+00  8.00000000E-01  8.00000000E-01
  1.50000000E+00  8.00000000E-01  8.00000000E-01  1.50000000E+00  8.00000000E-01
  8.00000000E-01  1.50000000E+00  8.00000000E-01  8.00000000E-01  1.50000000E+00
  8.00000000E-01  8.00000000E-01  1.50000000E+00  8.00000000E-01  8.00000000E-01
  1.50000000E+00  8.00000000E-01  8.00000000E-01  1.50000000E+00  8.00000000E-01
  8.00000000E-01  1.50000000E+00  8.00000000E-01  8.00000000E-01  1.50000000E+00
  8.00000000E-01  8.00000000E-01  1.50000000E+00  8.00000000E-01  8.00000000E-01
  1.50000000E+00  8.00000000E-01  8.00000000E-01  1.50000000E+00  8.00000000E-01
  8.00000000E-01  1.50000000E+00  8.00000000E-01  8.00000000E-01  1.50000000E+00
  8.00000000E-01  8.00000000E-01  1.50000000E+00  8.00000000E-01  8.00000000E-01
  1.50000000E+00  8.00000000E-01  8.00000000E-01  1.50000000E+00  8.00000000E-01
  8.00000000E-01  1.50000000E+00  8.00000000E-01  8.00000000E-01  1.50000000E+00
  8.00000000E-01  8.00000000E-01  1.50000000E+00  8.00000000E-01  8.00000000E-01
  1.50000000E+00  8.00000000E-01  8.00000000E-01  1.50000000E+00  8.00000000E-01
  8.00000000E-01  1.50000000E+00  8.00000000E-01  8.00000000E-01  1.50000000E+00
  8.00000000E-01  8.00000000E-01  1.50000000E+00  8.00000000E-01  8.00000000E-01
  1.50000000E+00  8.00000000E-01  8.00000000E-01  1.50000000E+00  8.00000000E-01
  8.00000000E-01  1.50000000E+00  8.00000000E-01  8.00000000E-01  1.50000000E+00
  8.00000000E-01  8.00000000E-01  1.50000000E+00  8.00000000E-01  8.00000000E-01
  1.50000000E+00  8.00000000E-01  8.00000000E-01  1.50000000E+00  8.00000000E-01
  8.00000000E-01  1.50000000E+00  8.00000000E-01  8.00000000E-01  1.50000000E+00
  8.00000000E-01  8.00000000E-01  1.50000000E+00  8.00000000E-01  8.00000000E-01
  1.50000000E+00  8.00000000E-01  8.00000000E-01  1.50000000E+00  8.00000000E-01
  8.00000000E-01  1.50000000E+00  8.00000000E-01  8.00000000E-01  1.50000000E+00
  8.00000000E-01  8.00000000E-01  1.50000000E+00  8.00000000E-01  8.00000000E-01
  1.50000000E+00  8.00000000E-01  8.00000000E-01  1.50000000E+00  8.00000000E-01
  8.00000000E-01  1.50000000E+00  8.00000000E-01  8.00000000E-01  1.50000000E+00
  8.00000000E-01  8.00000000E-01  1.50000000E+00  8.00000000E-01  8.00000000E-01
  1.50000000E+00  8.00000000E-01  8.00000000E-01  1.50000000E+00  8.00000000E-01
  8.00000000E-01  1.50000000E+00  8.00000000E-01  8.00000000E-01  1.50000000E+00
  8.00000000E-01  8.00000000E-01  1.50000000E+00  8.00000000E-01  8.00000000E-01
  1.50000000E+00  8.00000000E-01  8.00000000E-01  1.50000000E+00  8.00000000E-01
  8.00000000E-01  1.50000000E+00  8.00000000E-01  8.00000000E-01  1.50000000E+00
  8.00000000E-01  8.00000000E-01  1.50000000E+00  8.00000000E-01  8.00000000E-01
  1.50000000E+00  8.00000000E-01  8.00000000E-01  1.50000000E+00  8.00000000E-01
  8.00000000E-01  1.50000000E+00  8.00000000E-01  8.00000000E-01  1.50000000E+00
  8.00000000E-01  8.00000000E-01  1.50000000E+00  8.00000000E-01  8.00000000E-01
  1.50000000E+00  8.00000000E-01  8.00000000E-01  1.50000000E+00  8.00000000E-01
  8.00000000E-01  1.50000000E+00  8.00000000E-01  8.00000000E-01  1.50000000E+00
  8.00000000E-01  8.00000000E-01  1.50000000E+00  8.00000000E-01  8.00000000E-01
  1.50000000E+00  8.00000000E-01  8.00000000E-01  1.50000000E+00  8.00000000E-01
  8.00000000E-01  1.50000000E+00  8.00000000E-01  8.00000000E-01  1.50000000E+00
  8.00000000E-01  8.00000000E-01  1.50000000E+00  8.00000000E-01  8.00000000E-01
  1.50000000E+00  8.00000000E-01  8.00000000E-01  1.50000000E+00  8.00000000E-01
  8.00000000E-01  1.50000000E+00  8.00000000E-01  8.00000000E-01  1.50000000E+00
  8.00000000E-01  8.00000000E-01  1.50000000E+00  8.00000000E-01  8.00000000E-01
  1.50000000E+00  8.00000000E-01  8.00000000E-01  1.50000000E+00  8.00000000E-01
  8.00000000E-01  1.50000000E+00  8.00000000E-01  8.00000000E-01  1.50000000E+00
  8.00000000E-01  8.00000000E-01  1.50000000E+00  8.00000000E-01  8.00000000E-01
  1.50000000E+00  8.00000000E-01  8.00000000E-01  1.50000000E+00  8.00000000E-01
  8.00000000E-01  1.50000000E+00  8.00000000E-01  8.00000000E-01  1.50000000E+00
  8.00000000E-01  8.00000000E-01  1.50000000E+00  8.00000000E-01  8.00000000E-01
  1.50000000E+00  8.00000000E-01  8.00000000E-01  1.50000000E+00  8.00000000E-01
  8.00000000E-01  1.50000000E+00  8.00000000E-01  8.00000000E-01  1.50000000E+00
  8.00000000E-01  8.00000000E-01  1.50000000E+00  8.00000000E-01  8.00000000E-01
  1.50000000E+00  8.00000000E-01  8.00000000E-01  1.50000000E+00  8.00000000E-01
  8.00000000E-01  1.50000000E+00  8.00000000E-01  8.00000000E-01  1.50000000E+00
  8.00000000E-01  8.00000000E-01  1.50000000E+00  8.00000000E-01  8.00000000E-01
  1.50000000E+00  8.00000000E-01  8.00000000E-01  1.50000000E+00  8.00000000E-01
  8.00000000E-01  1.50000000E+00  8.00000000E-01  8.00000000E-01  1.50000000E+00
  8.00000000E-01  8.00000000E-01  1.50000000E+00  8.00000000E-01  8.00000000E-01
  1.50000000E+00  8.00000000E-01  8.00000000E-01  1.50000000E+00  8.00000000E-01
  8.00000000E-01  1.50000000E+00  8.00000000E-01  8.00000000E-01  1.50000000E+00
  8.00000000E-01  8.00000000E-01  1.50000000E+00  8.00000000E-01  8.00000000E-01
  1.50000000E+00  8.00000000E-01  8.00000000E-01  1.50000000E+00  8.00000000E-01
  8.00000000E-01  1.50000000E+00  8.00000000E-01  8.00000000E-01  1.50000000E+00
  8.00000000E-01  8.00000000E-01  1.50000000E+00  8.00000000E-01  8.00000000E-01
  1.50000000E+00  8.00000000E-01  8.00000000E-01  1.50000000E+00  8.00000000E-01
  8.00000000E-01  1.50000000E+00  8.00000000E-01  8.00000000E-01  1.50000000E+00
  8.00000000E-01  8.00000000E-01  1.50000000E+00  8.00000000E-01  8.00000000E-01
  1.50000000E+00  8.00000000E-01  8.00000000E-01  1.50000000E+00  8.00000000E-01
  8.00000000E-01  1.50000000E+00  8.00000000E-01  8.00000000E-01  1.50000000E+00
  8.00000000E-01  8.00000000E-01  1.50000000E+00  8.00000000E-01  8.00000000E-01
  1.50000000E+00  8.00000000E-01  8.00000000E-01  1.50000000E+00  8.00000000E-01
  8.00000000E-01  1.50000000E+00  8.00000000E-01  8.00000000E-01  1.50000000E+00
  8.00000000E-01  8.00000000E-01  1.50000000E+00  8.00000000E-01  8.00000000E-01
  1.50000000E+00  8.00000000E-01  8.00000000E-01  1.50000000E+00  8.00000000E-01
  8.00000000E-01  1.50000000E+00  8.00000000E-01  8.00000000E-01  1.50000000E+00
  8.00000000E-01  8.00000000E-01  1.50000000E+00  8.00000000E-01  8.00000000E-01
  1.50000000E+00  8.00000000E-01  8.00000000E-01  1.50000000E+00  8.00000000E-01
  8.00000000E-01  1.50000000E+00  8.00000000E-01  8.00000000E-01  1.50000000E+00
  8.00000000E-01  8.00000000E-01  1.50000000E+00  8.00000000E-01  8.00000000E-01
  1.50000000E+00  8.00000000E-01  8.00000000E-01  1.50000000E+00  8.00000000E-01
  8.00000000E-01  1.50000000E+00  8.00000000E-01  8.00000000E-01  1.50000000E+00
  8.00000000E-01  8.00000000E-01  1.50000000E+00  8.00000000E-01  8.00000000E-01
  1.50000000E+00  8.00000000E-01  8.00000000E-01  1.50000000E+00  8.00000000E-01
  8.00000000E-01  1.50000000E+00  8.00000000E-01  8.00000000E-01  1.50000000E+00
  8.00000000E-01  8.00000000E-01  1.50000000E+00  8.00000000E-01  8.00000000E-01
  1.50000000E+00  8.00000000E-01  8.00000000E-01  1.50000000E+00  8.00000000E-01
  8.00000000E-01  1.50000000E+00  8.00000000E-01  8.00000000E-01  1.50000000E+00
  8.00000000E-01  8.00000000E-01  1.50000000E+00  8.00000000E-01  8.00000000E-01
  1.50000000E+00  8.00000000E-01  8.00000000E-01  1.50000000E+00  8.00000000E-01
  8.00000000E-01  1.50000000E+00  8.00000000E-01  8.00000000E-01  1.50000000E+00
  8.00000000E-01  8.00000000E-01  1.50000000E+00  8.00000000E-01  8.00000000E-01
  1.50000000E+00  8.00000000E-01  8.00000000E-01  1.50000000E+00  8.00000000E-01
  8.00000000E-01  1.50000000E+00  8.00000000E-01  8.00000000E-01  1.50000000E+00
  8.00000000E-01  8.00000000E-01  1.50000000E+00  8.00000000E-01  8.00000000E-01
  1.50000000E+00  8.00000000E-01  8.00000000E-01  1.50000000E+00  8.00000000E-01
  8.00000000E-01  1.50000000E+00  8.00000000E-01  8.00000000E-01  1.50000000E+00
  8.00000000E-01  8.00000000E-01  1.50000000E+00  8.00000000E-01  8.00000000E-01
  1.50000000E+00  8.00000000E-01  8.00000000E-01  1.50000000E+00  8.00000000E-01
  8.00000000E-01  1.50000000E+00  8.00000000E-01  8.00000000E-01  1.50000000E+00
  8.00000000E-01  8.00000000E-01  1.50000000E+00  8.00000000E-01  8.00000000E-01
  1.50000000E+00  8.00000000E-01  8.00000000E-01  1.50000000E+00  8.00000000E-01
  8.00000000E-01  1.50000000E+00  8.00000000E-01  8.00000000E-01  1.50000000E+00
  8.00000000E-01  8.00000000E-01  1.50000000E+00  8.00000000E-01  8.00000000E-01
  1.50000000E+00  8.00000000E-01  8.00000000E-01  1.50000000E+00  8.00000000E-01
  8.00000000E-01  1.50000000E+00  8.00000000E-01  8.00000000E-01  1.50000000E+00
  8.00000000E-01  8.00000000E-01  1.50000000E+00  8.00000000E-01  8.00000000E-01
  1.50000000E+00  8.00000000E-01  8.00000000E-01  1.50000000E+00  8.00000000E-01
  8.00000000E-01  1.50000000E+00  8.00000000E-01  8.00000000E-01  1.50000000E+00
  8.00000000E-01  8.00000000E-01  1.50000000E+00  8.00000000E-01  8.00000000E-01
  1.50000000E+00  8.00000000E-01  8.00000000E-01  1.50000000E+00  8.00000000E-01
  8.00000000E-01  1.50000000E+00  8.00000000E-01  8.00000000E-01  1.50000000E+00
  8.00000000E-01  8.00000000E-01  1.50000000E+00  8.00000000E-01  8.00000000E-01
  1.50000000E+00  8.00000000E-01  8.00000000E-01  1.50000000E+00  8.00000000E-01
  8.00000000E-01  1.50000000E+00  8.00000000E-01  8.00000000E-01  1.50000000E+00
  8.00000000E-01  8.00000000E-01  1.50000000E+00  8.00000000E-01  8.00000000E-01
  1.50000000E+00  8.00000000E-01  8.00000000E-01  1.50000000E+00  8.00000000E-01
  8.00000000E-01  1.50000000E+00  8.00000000E-01  8.00000000E-01  1.50000000E+00
  8.00000000E-01  8.00000000E-01  1.50000000E+00  8.00000000E-01  8.00000000E-01
  1.50000000E+00  8.00000000E-01  8.00000000E-01  1.50000000E+00  8.00000000E-01
  8.00000000E-01  1.50000000E+00  8.00000000E-01  8.00000000E-01  1.50000000E+00
  8.00000000E-01  8.00000000E-01  1.50000000E+00  8.00000000E-01  8.00000000E-01
  1.50000000E+00  8.00000000E-01  8.00000000E-01  1.50000000E+00  8.00000000E-01
  8.00000000E-01  1.50000000E+00  8.00000000E-01  8.00000000E-01  1.50000000E+00
  8.00000000E-01  8.00000000E-01  1.50000000E+00  8.00000000E-01  8.00000000E-01
  1.50000000E+00  8.00000000E-01  8.00000000E-01  1.50000000E+00  8.00000000E-01
  8.00000000E-01  1.50000000E+00  8.00000000E-01  8.00000000E-01  1.50000000E+00
  8.00000000E-01  8.00000000E-01  1.50000000E+00  8.00000000E-01  8.00000000E-01
  1.50000000E+00  8.00000000E-01  8.00000000E-01  1.50000000E+00  8.00000000E-01
  8.00000000E-01  1.50000000E+00  8.00000000E-01  8.00000000E-01  1.50000000E+00
  8.00000000E-01  8.00000000E-01  1.50000000E+00  8.00000000E-01  8.00000000E-01
  1.50000000E+00  8.00000000E-01  8.00000000E-01  1.50000000E+00  8.00000000E-01
  8.00000000E-01  1.50000000E+00  8.00000000E-01  8.00000000E-01  1.50000000E+00
  8.00000000E-01  8.00000000E-01  1.50000000E+00  8.00000000E-01  8.00000000E-01
  1.50000000E+00  8.00000000E-01  8.00000000E-01  1.50000000E+00  8.00000000E-01
  8.00000000E-01  1.50000000E+00  8.00000000E-01  8.00000000E-01  1.50000000E+00
  8.00000000E-01  8.00000000E-01  1.50000000E+00  8.00000000E-01  8.00000000E-01
  1.50000000E+00  8.00000000E-01  8.00000000E-01  1.50000000E+00  8.00000000E-01
  8.00000000E-01  1.50000000E+00  8.00000000E-01  8.00000000E-01  1.50000000E+00
  8.00000000E-01  8.00000000E-01  1.50000000E+00  8.00000000E-01  8.00000000E-01
  1.50000000E+00  8.00000000E-01  8.00000000E-01  1.50000000E+00  8.00000000E-01
  8.00000000E-01  1.50000000E+00  8.00000000E-01  8.00000000E-01  1.50000000E+00
  8.00000000E-01  8.00000000E-01  1.50000000E+00  8.00000000E-01  8.00000000E-01
  1.50000000E+00  8.00000000E-01  8.00000000E-01  1.50000000E+00  8.00000000E-01
  8.00000000E-01  1.50000000E+00  8.00000000E-01  8.00000000E-01  1.50000000E+00
  8.00000000E-01  8.00000000E-01  1.50000000E+00  8.00000000E-01  8.00000000E-01
  1.50000000E+00  8.00000000E-01  8.00000000E-01  1.50000000E+00  8.00000000E-01
  8.00000000E-01  1.50000000E+00  8.00000000E-01  8.00000000E-01  1.50000000E+00
  8.00000000E-01  8.00000000E-01  1.50000000E+00  8.00000000E-01  8.00000000E-01
  1.50000000E+00  8.00000000E-01  8.00000000E-01  1.50000000E+00  8.00000000E-01
  8.00000000E-01  1.50000000E+00  8.00000000E-01  8.00000000E-01  1.50000000E+00
  8.00000000E-01  8.00000000E-01  1.50000000E+00  8.00000000E-01  8.00000000E-01
  1.50000000E+00  8.00000000E-01  8.00000000E-01  1.50000000E+00  8.00000000E-01
  8.00000000E-01  1.50000000E+00  8.00000000E-01  8.00000000E-01  1.50000000E+00
  8.00000000E-01  8.00000000E-01  1.50000000E+00  8.00000000E-01  8.00000000E-01
  1.50000000E+00  8.00000000E-01  8.00000000E-01  1.50000000E+00  8.00000000E-01
  8.00000000E-01  1.50000000E+00  8.00000000E-01  8.00000000E-01  1.50000000E+00
  8.00000000E-01  8.00000000E-01  1.50000000E+00  8.00000000E-01  8.00000000E-01
  1.50000000E+00  8.00000000E-01  8.00000000E-01  1.50000000E+00  8.00000000E-01
  8.00000000E-01  1.50000000E+00  8.00000000E-01  8.00000000E-01  1.50000000E+00
  8.00000000E-01  8.00000000E-01  1.50000000E+00  8.00000000E-01  8.00000000E-01
  1.50000000E+00  8.00000000E-01  8.00000000E-01  1.50000000E+00  8.00000000E-01
  8.00000000E-01  1.50000000E+00  8.00000000E-01  8.00000000E-01  1.50000000E+00
  8.00000000E-01  8.00000000E-01  1.50000000E+00  8.00000000E-01  8.00000000E-01
  1.50000000E+00  8.00000000E-01  8.00000000E-01  1.50000000E+00  8.00000000E-01
  8.00000000E-01  1.50000000E+00  8.00000000E-01  8.00000000E-01  1.50000000E+00
  8.00000000E-01  8.00000000E-01  1.50000000E+00  8.00000000E-01  8.00000000E-01
  1.50000000E+00  8.00000000E-01  8.00000000E-01  1.50000000E+00  8.00000000E-01
  8.00000000E-01  1.50000000E+00  8.00000000E-01  8.00000000E-01  1.50000000E+00
  8.00000000E-01  8.00000000E-01  1.50000000E+00  8.00000000E-01  8.00000000E-01
  1.50000000E+00  8.00000000E-01  8.00000000E-01  1.50000000E+00  8.00000000E-01
  8.00000000E-01  1.50000000E+00  8.00000000E-01  8.00000000E-01  1.50000000E+00
  8.00000000E-01  8.00000000E-01  1.50000000E+00  8.00000000E-01  8.00000000E-01
  1.50000000E+00  8.00000000E-01  8.00000000E-01  1.50000000E+00  8.00000000E-01
  8.00000000E-01  1.50000000E+00  8.00000000E-01  8.00000000E-01  1.50000000E+00
  8.00000000E-01  8.00000000E-01  1.50000000E+00  8.00000000E-01  8.00000000E-01
  1.50000000E+00  8.00000000E-01  8.00000000E-01  1.50000000E+00  8.00000000E-01
  8.00000000E-01  1.50000000E+00  8.00000000E-01  8.00000000E-01  1.50000000E+00
  8.00000000E-01  8.00000000E-01  1.50000000E+00  8.00000000E-01  8.00000000E-01
  1.50000000E+00  8.00000000E-01  8.00000000E-01  1.50000000E+00  8.00000000E-01
  8.00000000E-01  1.50000000E+00  8.00000000E-01  8.00000000E-01  1.50000000E+00
  8.00000000E-01  8.00000000E-01  1.50000000E+00  8.00000000E-01  8.00000000E-01
  1.50000000E+00  8.00000000E-01  8.00000000E-01  1.50000000E+00  8.00000000E-01
  8.00000000E-01  1.50000000E+00  8.00000000E-01  8.00000000E-01  1.50000000E+00
  8.00000000E-01  8.00000000E-01  1.50000000E+00  8.00000000E-01  8.00000000E-01
  1.50000000E+00  8.00000000E-01  8.00000000E-01  1.50000000E+00  8.00000000E-01
  8.00000000E-01  1.50000000E+00  8.00000000E-01  8.00000000E-01  1.50000000E+00
  8.00000000E-01  8.00000000E-01  1.50000000E+00  8.00000000E-01  8.00000000E-01
  1.50000000E+00  8.00000000E-01  8.00000000E-01  1.50000000E+00  8.00000000E-01
  8.00000000E-01  1.50000000E+00  8.00000000E-01  8.00000000E-01  1.50000000E+00
  8.00000000E-01  8.00000000E-01  1.50000000E+00  8.00000000E-01  8.00000000E-01
  1.50000000E+00  8.00000000E-01  8.00000000E-01  1.50000000E+00  8.00000000E-01
  8.00000000E-01  1.50000000E+00  8.00000000E-01  8.00000000E-01  1.50000000E+00
  8.00000000E-01  8.00000000E-01  1.50000000E+00  8.00000000E-01  8.00000000E-01
  1.50000000E+00  8.00000000E-01  8.00000000E-01  1.50000000E+00  8.00000000E-01
  8.00000000E-01  1.50000000E+00  8.00000000E-01  8.00000000E-01  1.50000000E+00
  8.00000000E-01  8.00000000E-01  1.50000000E+00  8.00000000E-01  8.00000000E-01
  1.50000000E+00  8.00000000E-01  8.00000000E-01  1.50000000E+00  8.00000000E-01
  8.00000000E-01  1.50000000E+00  8.00000000E-01  8.00000000E-01  1.50000000E+00
  8.00000000E-01  8.00000000E-01  1.50000000E+00  8.00000000E-01  8.00000000E-01
  1.50000000E+00  8.00000000E-01  8.00000000E-01  1.50000000E+00  8.00000000E-01
  8.00000000E-01  1.50000000E+00  8.00000000E-01  8.00000000E-01  1.50000000E+00
  8.00000000E-01  8.00000000E-01  1.50000000E+00  8.00000000E-01  8.00000000E-01
  1.50000000E+00  8.00000000E-01  8.00000000E-01  1.50000000E+00  8.00000000E-01
  8.00000000E-01  1.50000000E+00  8.00000000E-01  8.00000000E-01  1.50000000E+00
  8.00000000E-01  8.00000000E-01  1.50000000E+00  8.00000000E-01  8.00000000E-01
  1.50000000E+00  8.00000000E-01  8.00000000E-01  1.50000000E+00  8.00000000E-01
  8.00000000E-01  1.50000000E+00  8.00000000E-01  8.00000000E-01  1.50000000E+00
  8.00000000E-01  8.00000000E-01  1.50000000E+00  8.00000000E-01  8.00000000E-01
  1.50000000E+00  8.00000000E-01  8.00000000E-01  1.50000000E+00  8.00000000E-01
  8.00000000E-01  1.50000000E+00  8.00000000E-01  8.00000000E-01  1.50000000E+00
  8.00000000E-01  8.00000000E-01  1.50000000E+00  8.00000000E-01  8.00000000E-01
  1.50000000E+00  8.00000000E-01  8.00000000E-01  1.50000000E+00  8.00000000E-01
  8.00000000E-01  1.50000000E+00  8.00000000E-01  8.00000000E-01  1.50000000E+00
  8.00000000E-01  8.00000000E-01  1.50000000E+00  8.00000000E-01  8.00000000E-01
  1.50000000E+00  8.00000000E-01  8.00000000E-01  1.50000000E+00  8.00000000E-01
  8.00000000E-01  1.50000000E+00  8.00000000E-01  8.00000000E-01  1.50000000E+00
  8.00000000E-01  8.00000000E-01  1.50000000E+00  8.00000000E-01  8.00000000E-01
  1.50000000E+00  8.00000000E-01  8.00000000E-01  1.50000000E+00  8.00000000E-01
  8.00000000E-01  1.50000000E+00  8.00000000E-01  8.00000000E-01  1.50000000E+00
  8.00000000E-01  8.00000000E-01  1.50000000E+00  8.00000000E-01  8.00000000E-01
  1.50000000E+00  8.00000000E-01  8.00000000E-01  1.50000000E+00  8.00000000E-01
  8.00000000E-01  1.50000000E+00  8.00000000E-01  8.00000000E-01  1.50000000E+00
  8.00000000E-01  8.00000000E-01  1.50000000E+00  8.00000000E-01  8.00000000E-01
  1.50000000E+00  8.00000000E-01  8.00000000E-01  1.50000000E+00  8.00000000E-01
  8.00000000E-01  1.50000000E+00  8.00000000E-01  8.00000000E-01  1.50000000E+00
  8.00000000E-01  8.00000000E-01  1.50000000E+00  8.00000000E-01  8.00000000E-01
  1.50000000E+00  8.00000000E-01  8.00000000E-01  1.50000000E+00  8.00000000E-01
  8.00000000E-01  1.50000000E+00  8.00000000E-01  8.00000000E-01  1.50000000E+00
  8.00000000E-01  8.00000000E-01  1.50000000E+00  8.00000000E-01  8.00000000E-01
  1.50000000E+00  8.00000000E-01  8.00000000E-01  1.50000000E+00  8.00000000E-01
  8.00000000E-01  1.50000000E+00  8.00000000E-01  8.00000000E-01  1.50000000E+00
  8.00000000E-01  8.00000000E-01  1.50000000E+00  8.00000000E-01  8.00000000E-01
  1.50000000E+00  8.00000000E-01  8.00000000E-01  1.50000000E+00  8.00000000E-01
  8.00000000E-01  1.50000000E+00  8.00000000E-01  8.00000000E-01  1.50000000E+00
  8.00000000E-01  8.00000000E-01  1.50000000E+00  8.00000000E-01  8.00000000E-01
  1.50000000E+00  8.00000000E-01  8.00000000E-01  1.50000000E+00  8.00000000E-01
  8.00000000E-01  1.50000000E+00  8.00000000E-01  8.00000000E-01  1.50000000E+00
  8.00000000E-01  8.00000000E-01  1.50000000E+00  8.00000000E-01  8.00000000E-01
  1.50000000E+00  8.00000000E-01  8.00000000E-01  1.50000000E+00  8.00000000E-01
  8.00000000E-01  1.50000000E+00  8.00000000E-01  8.00000000E-01  1.50000000E+00
  8.00000000E-01  8.00000000E-01  1.50000000E+00  8.00000000E-01  8.00000000E-01
  1.50000000E+00  8.00000000E-01  8.00000000E-01  1.50000000E+00  8.00000000E-01
  8.00000000E-01  1.50000000E+00  8.00000000E-01  8.00000000E-01  1.50000000E+00
  8.00000000E-01  8.00000000E-01  1.50000000E+00  8.00000000E-01  8.00000000E-01
  1.50000000E+00  8.00000000E-01  8.00000000E-01  1.50000000E+00  8.00000000E-01
  8.00000000E-01  1.50000000E+00  8.00000000E-01  8.00000000E-01  1.50000000E+00
  8.00000000E-01  8.00000000E-01  1.50000000E+00  8.00000000E-01  8.00000000E-01
  1.50000000E+00  8.00000000E-01  8.00000000E-01  1.50000000E+00  8.00000000E-01
  8.00000000E-01  1.50000000E+00  8.00000000E-01  8.00000000E-01  1.50000000E+00
  8.00000000E-01  8.00000000E-01  1.50000000E+00  8.00000000E-01  8.00000000E-01
  1.50000000E+00  8.00000000E-01  8.00000000E-01  1.50000000E+00  8.00000000E-01
  8.00000000E-01  1.50000000E+00  8.00000000E-01  8.00000000E-01  1.50000000E+00
  8.00000000E-01  8.00000000E-01  1.50000000E+00  8.00000000E-01  8.00000000E-01
  1.50000000E+00  8.00000000E-01  8.00000000E-01  1.50000000E+00  8.00000000E-01
  8.00000000E-01  1.50000000E+00  8.00000000E-01  8.00000000E-01  1.50000000E+00
  8.00000000E-01  8.00000000E-01  1.50000000E+00  8.00000000E-01  8.00000000E-01
  1.50000000E+00  8.00000000E-01  8.00000000E-01  1.50000000E+00  8.00000000E-01
  8.00000000E-01  1.50000000E+00  8.00000000E-01  8.00000000E-01  1.50000000E+00
  8.00000000E-01  8.00000000E-01  1.50000000E+00  8.00000000E-01  8.00000000E-01
  1.50000000E+00  8.00000000E-01  8.00000000E-01  1.50000000E+00  8.00000000E-01
  8.00000000E-01  1.50000000E+00  8.00000000E-01  8.00000000E-01  1.50000000E+00
  8.00000000E-01  8.00000000E-01  1.50000000E+00  8.00000000E-01  8.00000000E-01
  1.50000000E+00  8.00000000E-01  8.00000000E-01  1.50000000E+00  8.00000000E-01
  8.00000000E-01  1.50000000E+00  8.00000000E-01  8.00000000E-01  1.50000000E+00
  8.00000000E-01  8.00000000E-01  1.50000000E+00  8.00000000E-01  8.00000000E-01
  1.50000000E+00  8.00000000E-01  8.00000000E-01  1.50000000E+00  8.00000000E-01
  8.00000000E-01  1.50000000E+00  8.00000000E-01  8.00000000E-01  1.50000000E+00
  8.00000000E-01  8.00000000E-01  1.50000000E+00  8.00000000E-01  8.00000000E-01
  1.50000000E+00  8.00000000E-01  8.00000000E-01  1.50000000E+00  8.00000000E-01
  8.00000000E-01  1.50000000E+00  8.00000000E-01  8.00000000E-01  1.50000000E+00
  8.00000000E-01  8.00000000E-01  1.50000000E+00  8.00000000E-01  8.00000000E-01
  1.50000000E+00  8.00000000E-01  8.00000000E-01  1.50000000E+00  8.00000000E-01
  8.00000000E-01  1.50000000E+00  8.00000000E-01  8.00000000E-01  1.50000000E+00
  8.00000000E-01  8.00000000E-01  1.50000000E+00  8.00000000E-01  8.00000000E-01
  1.50000000E+00  8.00000000E-01  8.00000000E-01  1.50000000E+00  8.00000000E-01
  8.00000000E-01  1.50000000E+00  8.00000000E-01  8.00000000E-01  1.50000000E+00
  8.00000000E-01  8.00000000E-01  1.50000000E+00  8.00000000E-01  8.00000000E-01
  1.50000000E+00  8.00000000E-01  8.00000000E-01  1.50000000E+00  8.00000000E-01
  8.00000000E-01  1.50000000E+00  8.00000000E-01  8.00000000E-01  1.50000000E+00
  8.00000000E-01  8.00000000E-01  1.50000000E+00  8.00000000E-01  8.00000000E-01
  1.50000000E+00  8.00000000E-01  8.00000000E-01  1.50000000E+00  8.00000000E-01
  8.00000000E-01  1.50000000E+00  8.00000000E-01  8.00000000E-01  1.50000000E+00
  8.00000000E-01  8.00000000E-01  1.50000000E+00  8.00000000E-01  8.00000000E-01
  1.50000000E+00  8.00000000E-01  8.00000000E-01  1.50000000E+00  8.00000000E-01
  8.00000000E-01  1.50000000E+00  8.00000000E-01  8.00000000E-01  1.50000000E+00
  8.00000000E-01  8.00000000E-01  1.50000000E+00  8.00000000E-01  8.00000000E-01
  1.50000000E+00  8.00000000E-01  8.00000000E-01  1.50000000E+00  8.00000000E-01
  8.00000000E-01  1.50000000E+00  8.00000000E-01  8.00000000E-01  1.50000000E+00
  8.00000000E-01  8.00000000E-01  1.50000000E+00  8.00000000E-01  8.00000000E-01
  1.50000000E+00  8.00000000E-01  8.00000000E-01  1.50000000E+00  8.00000000E-01
  8.00000000E-01  1.50000000E+00  8.00000000E-01  8.00000000E-01  1.50000000E+00
  8.00000000E-01  8.00000000E-01  1.50000000E+00  8.00000000E-01  8.00000000E-01
  1.50000000E+00  8.00000000E-01  8.00000000E-01  1.50000000E+00  8.00000000E-01
  8.00000000E-01  1.50000000E+00  8.00000000E-01  8.00000000E-01  1.50000000E+00
  8.00000000E-01  8.00000000E-01  1.50000000E+00  8.00000000E-01  8.00000000E-01
  1.50000000E+00  8.00000000E-01  8.00000000E-01  1.50000000E+00  8.00000000E-01
  8.00000000E-01  1.50000000E+00  8.00000000E-01  8.00000000E-01  1.50000000E+00
  8.00000000E-01  8.00000000E-01  1.50000000E+00  8.00000000E-01  8.00000000E-01
  1.50000000E+00  8.00000000E-01  8.00000000E-01  1.50000000E+00  8.00000000E-01
  8.00000000E-01  1.50000000E+00  8.00000000E-01  8.00000000E-01  1.50000000E+00
  8.00000000E-01  8.00000000E-01  1.50000000E+00  8.00000000E-01  8.00000000E-01
  1.50000000E+00  8.00000000E-01  8.00000000E-01  1.50000000E+00  8.00000000E-01
  8.00000000E-01  1.50000000E+00  8.00000000E-01  8.00000000E-01  1.50000000E+00
  8.00000000E-01  8.00000000E-01  1.50000000E+00  8.00000000E-01  8.00000000E-01
  1.50000000E+00  8.00000000E-01  8.00000000E-01  1.50000000E+00  8.00000000E-01
  8.00000000E-01  1.50000000E+00  8.00000000E-01  8.00000000E-01  1.50000000E+00
  8.00000000E-01  8.00000000E-01  1.50000000E+00  8.00000000E-01  8.00000000E-01
  1.50000000E+00  8.00000000E-01  8.00000000E-01  1.50000000E+00  8.00000000E-01
  8.00000000E-01  1.50000000E+00  8.00000000E-01  8.00000000E-01  1.50000000E+00
  8.00000000E-01  8.00000000E-01  1.50000000E+00  8.00000000E-01  8.00000000E-01
  1.50000000E+00  8.00000000E-01  8.00000000E-01  1.50000000E+00  8.00000000E-01
  8.00000000E-01  1.50000000E+00  8.00000000E-01  8.00000000E-01  1.50000000E+00
  8.00000000E-01  8.00000000E-01  1.50000000E+00  8.00000000E-01  8.00000000E-01
  1.50000000E+00  8.00000000E-01  8.00000000E-01  1.50000000E+00  8.00000000E-01
  8.00000000E-01  1.50000000E+00  8.00000000E-01  8.00000000E-01  1.50000000E+00
  8.00000000E-01  8.00000000E-01  1.50000000E+00  8.00000000E-01  8.00000000E-01
  1.50000000E+00  8.00000000E-01  8.00000000E-01  1.50000000E+00  8.00000000E-01
  8.00000000E-01  1.50000000E+00  8.00000000E-01  8.00000000E-01  1.50000000E+00
  8.00000000E-01  8.00000000E-01  1.50000000E+00  8.00000000E-01  8.00000000E-01
  1.50000000E+00  8.00000000E-01  8.00000000E-01  1.50000000E+00  8.00000000E-01
  8.00000000E-01  1.50000000E+00  8.00000000E-01  8.00000000E-01  1.50000000E+00
  8.00000000E-01  8.00000000E-01  1.50000000E+00  8.00000000E-01  8.00000000E-01
  1.50000000E+00  8.00000000E-01  8.00000000E-01  1.50000000E+00  8.00000000E-01
  8.00000000E-01  1.50000000E+00  8.00000000E-01  8.00000000E-01  1.50000000E+00
  8.00000000E-01  8.00000000E-01  1.50000000E+00  8.00000000E-01  8.00000000E-01
  1.50000000E+00  8.00000000E-01  8.00000000E-01  1.50000000E+00  8.00000000E-01
  8.00000000E-01  1.50000000E+00  8.00000000E-01  8.00000000E-01  1.50000000E+00
  8.00000000E-01  8.00000000E-01  1.50000000E+00  8.00000000E-01  8.00000000E-01
  1.50000000E+00  8.00000000E-01  8.00000000E-01  1.50000000E+00  8.00000000E-01
  8.00000000E-01  1.50000000E+00  8.00000000E-01  8.00000000E-01  1.50000000E+00
  8.00000000E-01  8.00000000E-01  1.50000000E+00  8.00000000E-01  8.00000000E-01
  1.50000000E+00  8.00000000E-01  8.00000000E-01  1.50000000E+00  8.00000000E-01
  8.00000000E-01  1.50000000E+00  8.00000000E-01  8.00000000E-01  1.50000000E+00
  8.00000000E-01  8.00000000E-01  1.50000000E+00  8.00000000E-01  8.00000000E-01
  1.50000000E+00  8.00000000E-01  8.00000000E-01  1.50000000E+00  8.00000000E-01
  8.00000000E-01  1.50000000E+00  8.00000000E-01  8.00000000E-01  1.50000000E+00
  8.00000000E-01  8.00000000E-01  1.50000000E+00  8.00000000E-01  8.00000000E-01
  1.50000000E+00  8.00000000E-01  8.00000000E-01  1.50000000E+00  8.00000000E-01
  8.00000000E-01  1.50000000E+00  8.00000000E-01  8.00000000E-01  1.50000000E+00
  8.00000000E-01  8.00000000E-01  1.50000000E+00  8.00000000E-01  8.00000000E-01
  1.50000000E+00  8.00000000E-01  8.00000000E-01  1.50000000E+00  8.00000000E-01
  8.00000000E-01  1.50000000E+00  8.00000000E-01  8.00000000E-01  1.50000000E+00
  8.00000000E-01  8.00000000E-01  1.50000000E+00  8.00000000E-01  8.00000000E-01
  1.50000000E+00  8.00000000E-01  8.00000000E-01  1.50000000E+00  8.00000000E-01
  8.00000000E-01  1.50000000E+00  8.00000000E-01  8.00000000E-01  1.50000000E+00
  8.00000000E-01  8.00000000E-01  1.50000000E+00  8.00000000E-01  8.00000000E-01
  1.50000000E+00  8.00000000E-01  8.00000000E-01  1.50000000E+00  8.00000000E-01
  8.00000000E-01  1.50000000E+00  8.00000000E-01  8.00000000E-01  1.50000000E+00
  8.00000000E-01  8.00000000E-01  1.50000000E+00  8.00000000E-01  8.00000000E-01
  1.50000000E+00  8.00000000E-01  8.00000000E-01  1.50000000E+00  8.00000000E-01
  8.00000000E-01  1.50000000E+00  8.00000000E-01  8.00000000E-01  1.50000000E+00
  8.00000000E-01  8.00000000E-01  1.50000000E+00  8.00000000E-01  8.00000000E-01
  1.50000000E+00  8.00000000E-01  8.00000000E-01  1.50000000E+00  8.00000000E-01
  8.00000000E-01  1.50000000E+00  8.00000000E-01  8.00000000E-01  1.50000000E+00
  8.00000000E-01  8.00000000E-01  1.50000000E+00  8.00000000E-01  8.00000000E-01
  1.50000000E+00  8.00000000E-01  8.00000000E-01  1.50000000E+00  8.00000000E-01
  8.00000000E-01  1.50000000E+00  8.00000000E-01  8.00000000E-01  1.50000000E+00
  8.00000000E-01  8.00000000E-01  1.50000000E+00  8.00000000E-01  8.00000000E-01
  1.50000000E+00  8.00000000E-01  8.00000000E-01  1.50000000E+00  8.00000000E-01
  8.00000000E-01  1.50000000E+00  8.00000000E-01  8.00000000E-01  1.50000000E+00
  8.00000000E-01  8.00000000E-01  1.50000000E+00  8.00000000E-01  8.00000000E-01
  1.50000000E+00  8.00000000E-01  8.00000000E-01  1.50000000E+00  8.00000000E-01
  8.00000000E-01  1.50000000E+00  8.00000000E-01  8.00000000E-01  1.50000000E+00
  8.00000000E-01  8.00000000E-01  1.50000000E+00  8.00000000E-01  8.00000000E-01
  1.50000000E+00  8.00000000E-01  8.00000000E-01  1.50000000E+00  8.00000000E-01
  8.00000000E-01  1.50000000E+00  8.00000000E-01  8.00000000E-01  1.50000000E+00
  8.00000000E-01  8.00000000E-01  1.50000000E+00  8.00000000E-01  8.00000000E-01
  1.50000000E+00  8.00000000E-01  8.00000000E-01  1.50000000E+00  8.00000000E-01
  8.00000000E-01  1.50000000E+00  8.00000000E-01  8.00000000E-01  1.50000000E+00
  8.00000000E-01  8.00000000E-01  1.50000000E+00  8.00000000E-01  8.00000000E-01
  1.50000000E+00  8.00000000E-01  8.00000000E-01  1.50000000E+00  8.00000000E-01
  8.00000000E-01  1.50000000E+00  8.00000000E-01  8.00000000E-01  1.50000000E+00
  8.00000000E-01  8.00000000E-01  1.50000000E+00  8.00000000E-01  8.00000000E-01
  1.50000000E+00  8.00000000E-01  8.00000000E-01  1.50000000E+00  8.00000000E-01
  8.00000000E-01  1.50000000E+00  8.00000000E-01  8.00000000E-01  1.50000000E+00
  8.00000000E-01  8.00000000E-01  1.50000000E+00  8.00000000E-01  8.00000000E-01
  1.50000000E+00  8.00000000E-01  8.00000000E-01  1.50000000E+00  8.00000000E-01
  8.00000000E-01  1.50000000E+00  8.00000000E-01  8.00000000E-01  1.50000000E+00
  8.00000000E-01  8.00000000E-01  1.50000000E+00  8.00000000E-01  8.00000000E-01
  1.50000000E+00  8.00000000E-01  8.00000000E-01  1.50000000E+00  8.00000000E-01
  8.00000000E-01  1.50000000E+00  8.00000000E-01  8.00000000E-01  1.50000000E+00
  8.00000000E-01  8.00000000E-01  1.50000000E+00  8.00000000E-01  8.00000000E-01
  1.50000000E+00  8.00000000E-01  8.00000000E-01  1.50000000E+00  8.00000000E-01
  8.00000000E-01  1.50000000E+00  8.00000000E-01  8.00000000E-01  1.50000000E+00
  8.00000000E-01  8.00000000E-01  1.50000000E+00  8.00000000E-01  8.00000000E-01
  1.50000000E+00  8.00000000E-01  8.00000000E-01  1.50000000E+00  8.00000000E-01
  8.00000000E-01  1.50000000E+00  8.00000000E-01  8.00000000E-01  1.50000000E+00
  8.00000000E-01  8.00000000E-01  1.50000000E+00  8.00000000E-01  8.00000000E-01
  1.50000000E+00  8.00000000E-01  8.00000000E-01  1.50000000E+00  8.00000000E-01
  8.00000000E-01  1.50000000E+00  8.00000000E-01  8.00000000E-01  1.50000000E+00
  8.00000000E-01  8.00000000E-01  1.50000000E+00  8.00000000E-01  8.00000000E-01
  1.50000000E+00  8.00000000E-01  8.00000000E-01  1.50000000E+00  8.00000000E-01
  8.00000000E-01  1.50000000E+00  8.00000000E-01  8.00000000E-01  1.50000000E+00
  8.00000000E-01  8.00000000E-01  1.50000000E+00  8.00000000E-01  8.00000000E-01
  1.50000000E+00  8.00000000E-01  8.00000000E-01  1.50000000E+00  8.00000000E-01
  8.00000000E-01  1.50000000E+00  8.00000000E-01  8.00000000E-01  1.50000000E+00
  8.00000000E-01  8.00000000E-01  1.50000000E+00  8.00000000E-01  8.00000000E-01
  1.50000000E+00  8.00000000E-01  8.00000000E-01  1.50000000E+00  8.00000000E-01
  8.00000000E-01  1.50000000E+00  8.00000000E-01  8.00000000E-01  1.50000000E+00
  8.00000000E-01  8.00000000E-01  1.50000000E+00  8.00000000E-01  8.00000000E-01
  1.50000000E+00  8.00000000E-01  8.00000000E-01  1.50000000E+00  8.00000000E-01
  8.00000000E-01  1.50000000E+00  8.00000000E-01  8.00000000E-01  1.50000000E+00
  8.00000000E-01  8.00000000E-01  1.50000000E+00  8.00000000E-01  8.00000000E-01
  1.50000000E+00  8.00000000E-01  8.00000000E-01  1.50000000E+00  8.00000000E-01
  8.00000000E-01  1.50000000E+00  8.00000000E-01  8.00000000E-01  1.50000000E+00
  8.00000000E-01  8.00000000E-01  1.50000000E+00  8.00000000E-01  8.00000000E-01
  1.50000000E+00  8.00000000E-01  8.00000000E-01  1.50000000E+00  8.00000000E-01
  8.00000000E-01  1.50000000E+00  8.00000000E-01  8.00000000E-01  1.50000000E+00
  8.00000000E-01  8.00000000E-01  1.50000000E+00  8.00000000E-01  8.00000000E-01
  1.50000000E+00  8.00000000E-01  8.00000000E-01  1.50000000E+00  8.00000000E-01
  8.00000000E-01  1.50000000E+00  8.00000000E-01  8.00000000E-01  1.50000000E+00
  8.00000000E-01  8.00000000E-01  1.50000000E+00  8.00000000E-01  8.00000000E-01
  1.50000000E+00  8.00000000E-01  8.00000000E-01  1.50000000E+00  8.00000000E-01
  8.00000000E-01  1.50000000E+00  8.00000000E-01  8.00000000E-01  1.50000000E+00
  8.00000000E-01  8.00000000E-01  1.50000000E+00  8.00000000E-01  8.00000000E-01
  1.50000000E+00  8.00000000E-01  8.00000000E-01  1.50000000E+00  8.00000000E-01
  8.00000000E-01  1.50000000E+00  8.00000000E-01  8.00000000E-01  1.50000000E+00
  8.00000000E-01  8.00000000E-01  1.50000000E+00  8.00000000E-01  8.00000000E-01
  1.50000000E+00  8.00000000E-01  8.00000000E-01  1.50000000E+00  8.00000000E-01
  8.00000000E-01  1.50000000E+00  8.00000000E-01  8.00000000E-01  1.50000000E+00
  8.00000000E-01  8.00000000E-01  1.50000000E+00  8.00000000E-01  8.00000000E-01
  1.50000000E+00  8.00000000E-01  8.00000000E-01  1.50000000E+00  8.00000000E-01
  8.00000000E-01  1.50000000E+00  8.00000000E-01  8.00000000E-01  1.50000000E+00
  8.00000000E-01  8.00000000E-01  1.50000000E+00  8.00000000E-01  8.00000000E-01
  1.50000000E+00  8.00000000E-01  8.00000000E-01  1.50000000E+00  8.00000000E-01
  8.00000000E-01  1.50000000E+00  8.00000000E-01  8.00000000E-01  1.50000000E+00
  8.00000000E-01  8.00000000E-01  1.50000000E+00  8.00000000E-01  8.00000000E-01
  1.50000000E+00  8.00000000E-01  8.00000000E-01  1.50000000E+00  8.00000000E-01
  8.00000000E-01  1.50000000E+00  8.00000000E-01  8.00000000E-01  1.50000000E+00
  8.00000000E-01  8.00000000E-01  1.50000000E+00  8.00000000E-01  8.00000000E-01
  1.50000000E+00  8.00000000E-01  8.00000000E-01  1.50000000E+00  8.00000000E-01
  8.00000000E-01  1.50000000E+00  8.00000000E-01  8.00000000E-01  1.50000000E+00
  8.00000000E-01  8.00000000E-01  1.50000000E+00  8.00000000E-01  8.00000000E-01
  1.50000000E+00  8.00000000E-01  8.00000000E-01  1.50000000E+00  8.00000000E-01
  8.00000000E-01  1.50000000E+00  8.00000000E-01  8.00000000E-01  1.50000000E+00
  8.00000000E-01  8.00000000E-01  1.50000000E+00  8.00000000E-01  8.00000000E-01
  1.50000000E+00  8.00000000E-01  8.00000000E-01  1.50000000E+00  8.00000000E-01
  8.00000000E-01  1.50000000E+00  8.00000000E-01  8.00000000E-01  1.50000000E+00
  8.00000000E-01  8.00000000E-01  1.50000000E+00  8.00000000E-01  8.00000000E-01
  1.50000000E+00  8.00000000E-01  8.00000000E-01  1.50000000E+00  8.00000000E-01
  8.00000000E-01  1.50000000E+00  8.00000000E-01  8.00000000E-01  1.50000000E+00
  8.00000000E-01  8.00000000E-01  1.50000000E+00  8.00000000E-01  8.00000000E-01
  1.50000000E+00  8.00000000E-01  8.00000000E-01  1.50000000E+00  8.00000000E-01
  8.00000000E-01  1.50000000E+00  8.00000000E-01  8.00000000E-01  1.50000000E+00
  8.00000000E-01  8.00000000E-01  1.50000000E+00  8.00000000E-01  8.00000000E-01
  1.50000000E+00  8.00000000E-01  8.00000000E-01  1.50000000E+00  8.00000000E-01
  8.00000000E-01  1.50000000E+00  8.00000000E-01  8.00000000E-01  1.50000000E+00
  8.00000000E-01  8.00000000E-01  1.50000000E+00  8.00000000E-01  8.00000000E-01
  1.50000000E+00  8.00000000E-01  8.00000000E-01  1.50000000E+00  8.00000000E-01
  8.00000000E-01  1.50000000E+00  8.00000000E-01  8.00000000E-01  1.50000000E+00
  8.00000000E-01  8.00000000E-01  1.50000000E+00  8.00000000E-01  8.00000000E-01
  1.50000000E+00  8.00000000E-01  8.00000000E-01  1.50000000E+00  8.00000000E-01
  8.00000000E-01  1.50000000E+00  8.00000000E-01  8.00000000E-01  1.50000000E+00
  8.00000000E-01  8.00000000E-01  1.50000000E+00  8.00000000E-01  8.00000000E-01
  1.50000000E+00  8.00000000E-01  8.00000000E-01  1.50000000E+00  8.00000000E-01
  8.00000000E-01  1.50000000E+00  8.00000000E-01  8.00000000E-01  1.50000000E+00
  8.00000000E-01  8.00000000E-01  1.50000000E+00  8.00000000E-01  8.00000000E-01
  1.50000000E+00  8.00000000E-01  8.00000000E-01  1.50000000E+00  8.00000000E-01
  8.00000000E-01  1.50000000E+00  8.00000000E-01  8.00000000E-01  1.50000000E+00
  8.00000000E-01  8.00000000E-01  1.50000000E+00  8.00000000E-01  8.00000000E-01
  1.50000000E+00  8.00000000E-01  8.00000000E-01  1.50000000E+00  8.00000000E-01
  8.00000000E-01  1.50000000E+00  8.00000000E-01  8.00000000E-01  1.50000000E+00
  8.00000000E-01  8.00000000E-01  1.50000000E+00  8.00000000E-01  8.00000000E-01
  1.50000000E+00  8.00000000E-01  8.00000000E-01  1.50000000E+00  8.00000000E-01
  8.00000000E-01  1.50000000E+00  8.00000000E-01  8.00000000E-01  1.50000000E+00
  8.00000000E-01  8.00000000E-01  1.50000000E+00  8.00000000E-01  8.00000000E-01
  1.50000000E+00  8.00000000E-01  8.00000000E-01  1.50000000E+00  8.00000000E-01
  8.00000000E-01  1.50000000E+00  8.00000000E-01  8.00000000E-01  1.50000000E+00
  8.00000000E-01  8.00000000E-01  1.50000000E+00  8.00000000E-01  8.00000000E-01
  1.50000000E+00  8.00000000E-01  8.00000000E-01  1.50000000E+00  8.00000000E-01
  8.00000000E-01  1.50000000E+00  8.00000000E-01  8.00000000E-01  1.50000000E+00
  8.00000000E-01  8.00000000E-01  1.50000000E+00  8.00000000E-01  8.00000000E-01
  1.50000000E+00  8.00000000E-01  8.00000000E-01  1.50000000E+00  8.00000000E-01
  8.00000000E-01  1.50000000E+00  8.00000000E-01  8.00000000E-01  1.50000000E+00
  8.00000000E-01  8.00000000E-01  1.50000000E+00  8.00000000E-01  8.00000000E-01
  1.50000000E+00  8.00000000E-01  8.00000000E-01  1.50000000E+00  8.00000000E-01
  8.00000000E-01  1.50000000E+00  8.00000000E-01  8.00000000E-01  1.50000000E+00
  8.00000000E-01  8.00000000E-01  1.50000000E+00  8.00000000E-01  8.00000000E-01
  1.50000000E+00  8.00000000E-01  8.00000000E-01  1.50000000E+00  8.00000000E-01
  8.00000000E-01  1.50000000E+00  8.00000000E-01  8.00000000E-01  1.50000000E+00
  8.00000000E-01  8.00000000E-01  1.50000000E+00  8.00000000E-01  8.00000000E-01
  1.50000000E+00  8.00000000E-01  8.00000000E-01  1.50000000E+00  8.00000000E-01
  8.00000000E-01  1.50000000E+00  8.00000000E-01  8.00000000E-01  1.50000000E+00
  8.00000000E-01  8.00000000E-01  1.50000000E+00  8.00000000E-01  8.00000000E-01
  1.50000000E+00  8.00000000E-01  8.00000000E-01  1.50000000E+00  8.00000000E-01
  8.00000000E-01  1.50000000E+00  8.00000000E-01  8.00000000E-01  1.50000000E+00
  8.00000000E-01  8.00000000E-01  1.50000000E+00  8.00000000E-01  8.00000000E-01
  1.50000000E+00  8.00000000E-01  8.00000000E-01  1.50000000E+00  8.00000000E-01
  8.00000000E-01  1.50000000E+00  8.00000000E-01  8.00000000E-01  1.50000000E+00
  8.00000000E-01  8.00000000E-01  1.50000000E+00  8.00000000E-01  8.00000000E-01
  1.50000000E+00  8.00000000E-01  8.00000000E-01  1.50000000E+00  8.00000000E-01
  8.00000000E-01  1.50000000E+00  8.00000000E-01  8.00000000E-01  1.50000000E+00
  8.00000000E-01  8.00000000E-01  1.50000000E+00  8.00000000E-01  8.00000000E-01
  1.50000000E+00  8.00000000E-01  8.00000000E-01  1.50000000E+00  8.00000000E-01
  8.00000000E-01  1.50000000E+00  8.00000000E-01  8.00000000E-01  1.50000000E+00
  8.00000000E-01  8.00000000E-01  1.50000000E+00  8.00000000E-01  8.00000000E-01
  1.50000000E+00  8.00000000E-01  8.00000000E-01  1.50000000E+00  8.00000000E-01
  8.00000000E-01  1.50000000E+00  8.00000000E-01  8.00000000E-01  1.50000000E+00
  8.00000000E-01  8.00000000E-01  1.50000000E+00  8.00000000E-01  8.00000000E-01
  1.50000000E+00  8.00000000E-01  8.00000000E-01  1.50000000E+00  8.00000000E-01
  8.00000000E-01  1.50000000E+00  8.00000000E-01  8.00000000E-01  1.50000000E+00
  8.00000000E-01  8.00000000E-01  1.50000000E+00  8.00000000E-01  8.00000000E-01
  1.50000000E+00  8.00000000E-01  8.00000000E-01  1.50000000E+00  8.00000000E-01
  8.00000000E-01  1.50000000E+00  8.00000000E-01  8.00000000E-01  1.50000000E+00
  8.00000000E-01  8.00000000E-01  1.50000000E+00  8.00000000E-01  8.00000000E-01
  1.50000000E+00  8.00000000E-01  8.00000000E-01  1.50000000E+00  8.00000000E-01
  8.00000000E-01  1.50000000E+00  8.00000000E-01  8.00000000E-01  1.50000000E+00
  8.00000000E-01  8.00000000E-01  1.50000000E+00  8.00000000E-01  8.00000000E-01
  1.50000000E+00  8.00000000E-01  8.00000000E-01  1.50000000E+00  8.00000000E-01
  8.00000000E-01  1.50000000E+00  8.00000000E-01  8.00000000E-01  1.50000000E+00
  8.00000000E-01  8.00000000E-01  1.50000000E+00  8.00000000E-01  8.00000000E-01
  1.50000000E+00  8.00000000E-01  8.00000000E-01  1.50000000E+00  8.00000000E-01
  8.00000000E-01  1.50000000E+00  8.00000000E-01  8.00000000E-01  1.50000000E+00
  8.00000000E-01  8.00000000E-01  1.50000000E+00  8.00000000E-01  8.00000000E-01
  1.50000000E+00  8.00000000E-01  8.00000000E-01  1.50000000E+00  8.00000000E-01
  8.00000000E-01  1.50000000E+00  8.00000000E-01  8.00000000E-01  1.50000000E+00
  8.00000000E-01  8.00000000E-01  1.50000000E+00  8.00000000E-01  8.00000000E-01
  1.50000000E+00  8.00000000E-01  8.00000000E-01  1.50000000E+00  8.00000000E-01
  8.00000000E-01  1.50000000E+00  8.00000000E-01  8.00000000E-01  1.50000000E+00
  8.00000000E-01  8.00000000E-01  1.50000000E+00  8.00000000E-01  8.00000000E-01
  1.50000000E+00  8.00000000E-01  8.00000000E-01  1.50000000E+00  8.00000000E-01
  8.00000000E-01  1.50000000E+00  8.00000000E-01  8.00000000E-01  1.50000000E+00
  8.00000000E-01  8.00000000E-01  1.50000000E+00  8.00000000E-01  8.00000000E-01
  1.50000000E+00  8.00000000E-01  8.00000000E-01  1.50000000E+00  8.00000000E-01
  8.00000000E-01  1.50000000E+00  8.00000000E-01  8.00000000E-01  1.50000000E+00
  8.00000000E-01  8.00000000E-01  1.50000000E+00  8.00000000E-01  8.00000000E-01
  1.50000000E+00  8.00000000E-01  8.00000000E-01  1.50000000E+00  8.00000000E-01
  8.00000000E-01  1.50000000E+00  8.00000000E-01  8.00000000E-01  1.50000000E+00
  8.00000000E-01  8.00000000E-01  1.50000000E+00  8.00000000E-01  8.00000000E-01
  1.50000000E+00  8.00000000E-01  8.00000000E-01  1.50000000E+00  8.00000000E-01
  8.00000000E-01  1.50000000E+00  8.00000000E-01  8.00000000E-01  1.50000000E+00
  8.00000000E-01  8.00000000E-01  1.50000000E+00  8.00000000E-01  8.00000000E-01
  1.50000000E+00  8.00000000E-01  8.00000000E-01  1.50000000E+00  8.00000000E-01
  8.00000000E-01  1.50000000E+00  8.00000000E-01  8.00000000E-01  1.50000000E+00
  8.00000000E-01  8.00000000E-01  1.50000000E+00  8.00000000E-01  8.00000000E-01
  1.50000000E+00  8.00000000E-01  8.00000000E-01  1.50000000E+00  8.00000000E-01
  8.00000000E-01  1.50000000E+00  8.00000000E-01  8.00000000E-01  1.50000000E+00
  8.00000000E-01  8.00000000E-01  1.50000000E+00  8.00000000E-01  8.00000000E-01
  1.50000000E+00  8.00000000E-01  8.00000000E-01  1.50000000E+00  8.00000000E-01
  8.00000000E-01  1.50000000E+00  8.00000000E-01  8.00000000E-01  1.50000000E+00
  8.00000000E-01  8.00000000E-01  1.50000000E+00  8.00000000E-01  8.00000000E-01
  1.50000000E+00  8.00000000E-01  8.00000000E-01  1.50000000E+00  8.00000000E-01
  8.00000000E-01  1.50000000E+00  8.00000000E-01  8.00000000E-01  1.50000000E+00
  8.00000000E-01  8.00000000E-01  1.50000000E+00  8.00000000E-01  8.00000000E-01
  1.50000000E+00  8.00000000E-01  8.00000000E-01  1.50000000E+00  8.00000000E-01
  8.00000000E-01  1.50000000E+00  8.00000000E-01  8.00000000E-01  1.50000000E+00
  8.00000000E-01  8.00000000E-01  1.50000000E+00  8.00000000E-01  8.00000000E-01
  1.50000000E+00  8.00000000E-01  8.00000000E-01  1.50000000E+00  8.00000000E-01
  8.00000000E-01  1.50000000E+00  8.00000000E-01  8.00000000E-01  1.50000000E+00
  8.00000000E-01  8.00000000E-01  1.50000000E+00  8.00000000E-01  8.00000000E-01
  1.50000000E+00  8.00000000E-01  8.00000000E-01  1.50000000E+00  8.00000000E-01
  8.00000000E-01  1.50000000E+00  8.00000000E-01  8.00000000E-01  1.50000000E+00
  8.00000000E-01  8.00000000E-01  1.50000000E+00  8.00000000E-01  8.00000000E-01
  1.50000000E+00  8.00000000E-01  8.00000000E-01  1.50000000E+00  8.00000000E-01
  8.00000000E-01  1.50000000E+00  8.00000000E-01  8.00000000E-01  1.50000000E+00
  8.00000000E-01  8.00000000E-01  1.50000000E+00  8.00000000E-01  8.00000000E-01
  1.50000000E+00  8.00000000E-01  8.00000000E-01  1.50000000E+00  8.00000000E-01
  8.00000000E-01  1.50000000E+00  8.00000000E-01  8.00000000E-01  1.50000000E+00
  8.00000000E-01  8.00000000E-01  1.50000000E+00  8.00000000E-01  8.00000000E-01
  1.50000000E+00  8.00000000E-01  8.00000000E-01  1.50000000E+00  8.00000000E-01
  8.00000000E-01  1.50000000E+00  8.00000000E-01  8.00000000E-01  1.50000000E+00
  8.00000000E-01  8.00000000E-01  1.50000000E+00  8.00000000E-01  8.00000000E-01
  1.50000000E+00  8.00000000E-01  8.00000000E-01  1.50000000E+00  8.00000000E-01
  8.00000000E-01  1.50000000E+00  8.00000000E-01  8.00000000E-01  1.50000000E+00
  8.00000000E-01  8.00000000E-01  1.50000000E+00  8.00000000E-01  8.00000000E-01
  1.50000000E+00  8.00000000E-01  8.00000000E-01  1.50000000E+00  8.00000000E-01
  8.00000000E-01  1.50000000E+00  8.00000000E-01  8.00000000E-01  1.50000000E+00
  8.00000000E-01  8.00000000E-01  1.50000000E+00  8.00000000E-01  8.00000000E-01
  1.50000000E+00  8.00000000E-01  8.00000000E-01  1.50000000E+00  8.00000000E-01
  8.00000000E-01  1.50000000E+00  8.00000000E-01  8.00000000E-01  1.50000000E+00
  8.00000000E-01  8.00000000E-01  1.50000000E+00  8.00000000E-01  8.00000000E-01
  1.50000000E+00  8.00000000E-01  8.00000000E-01  1.50000000E+00  8.00000000E-01
  8.00000000E-01  1.50000000E+00  8.00000000E-01  8.00000000E-01  1.50000000E+00
  8.00000000E-01  8.00000000E-01  1.50000000E+00  8.00000000E-01  8.00000000E-01
  1.50000000E+00  8.00000000E-01  8.00000000E-01  1.50000000E+00  8.00000000E-01
  8.00000000E-01  1.50000000E+00  8.00000000E-01  8.00000000E-01  1.50000000E+00
  8.00000000E-01  8.00000000E-01  1.50000000E+00  8.00000000E-01  8.00000000E-01
  1.50000000E+00  8.00000000E-01  8.00000000E-01  1.50000000E+00  8.00000000E-01
  8.00000000E-01  1.50000000E+00  8.00000000E-01  8.00000000E-01  1.50000000E+00
  8.00000000E-01  8.00000000E-01  1.50000000E+00  8.00000000E-01  8.00000000E-01
  1.50000000E+00  8.00000000E-01  8.00000000E-01  1.50000000E+00  8.00000000E-01
  8.00000000E-01  1.50000000E+00  8.00000000E-01  8.00000000E-01  1.50000000E+00
  8.00000000E-01  8.00000000E-01  1.50000000E+00  8.00000000E-01  8.00000000E-01
  1.50000000E+00  8.00000000E-01  8.00000000E-01  1.50000000E+00  8.00000000E-01
  8.00000000E-01  1.50000000E+00  8.00000000E-01  8.00000000E-01  1.50000000E+00
  8.00000000E-01  8.00000000E-01  1.50000000E+00  8.00000000E-01  8.00000000E-01
  1.50000000E+00  8.00000000E-01  8.00000000E-01  1.50000000E+00  8.00000000E-01
  8.00000000E-01  1.50000000E+00  8.00000000E-01  8.00000000E-01  1.50000000E+00
  8.00000000E-01  8.00000000E-01  1.50000000E+00  8.00000000E-01  8.00000000E-01
  1.50000000E+00  8.00000000E-01  8.00000000E-01  1.50000000E+00  8.00000000E-01
  8.00000000E-01  1.50000000E+00  8.00000000E-01  8.00000000E-01  1.50000000E+00
  8.00000000E-01  8.00000000E-01  1.50000000E+00  8.00000000E-01  8.00000000E-01
  1.50000000E+00  8.00000000E-01  8.00000000E-01  1.50000000E+00  8.00000000E-01
  8.00000000E-01  1.50000000E+00  8.00000000E-01  8.00000000E-01  1.50000000E+00
  8.00000000E-01  8.00000000E-01  1.50000000E+00  8.00000000E-01  8.00000000E-01
  1.50000000E+00  8.00000000E-01  8.00000000E-01  1.50000000E+00  8.00000000E-01
  8.00000000E-01  1.50000000E+00  8.00000000E-01  8.00000000E-01  1.50000000E+00
  8.00000000E-01  8.00000000E-01  1.50000000E+00  8.00000000E-01  8.00000000E-01
  1.50000000E+00  8.00000000E-01  8.00000000E-01  1.50000000E+00  8.00000000E-01
  8.00000000E-01  1.50000000E+00  8.00000000E-01  8.00000000E-01  1.50000000E+00
  8.00000000E-01  8.00000000E-01  1.50000000E+00  8.00000000E-01  8.00000000E-01
  1.50000000E+00  8.00000000E-01  8.00000000E-01  1.50000000E+00  8.00000000E-01
  8.00000000E-01  1.50000000E+00  8.00000000E-01  8.00000000E-01  1.50000000E+00
  8.00000000E-01  8.00000000E-01  1.50000000E+00  8.00000000E-01  8.00000000E-01
  1.50000000E+00  8.00000000E-01  8.00000000E-01  1.50000000E+00  8.00000000E-01
  8.00000000E-01  1.50000000E+00  8.00000000E-01  8.00000000E-01  1.50000000E+00
  8.00000000E-01  8.00000000E-01  1.50000000E+00  8.00000000E-01  8.00000000E-01
  1.50000000E+00  8.00000000E-01  8.00000000E-01  1.50000000E+00  8.00000000E-01
  8.00000000E-01  1.50000000E+00  8.00000000E-01  8.00000000E-01  1.50000000E+00
  8.00000000E-01  8.00000000E-01  1.50000000E+00  8.00000000E-01  8.00000000E-01
  1.50000000E+00  8.00000000E-01  8.00000000E-01  1.50000000E+00  8.00000000E-01
  8.00000000E-01  1.50000000E+00  8.00000000E-01  8.00000000E-01  1.50000000E+00
  8.00000000E-01  8.00000000E-01  1.50000000E+00  8.00000000E-01  8.00000000E-01
  1.50000000E+00  8.00000000E-01  8.00000000E-01  1.50000000E+00  8.00000000E-01
  8.00000000E-01  1.50000000E+00  8.00000000E-01  8.00000000E-01  1.50000000E+00
  8.00000000E-01  8.00000000E-01  1.50000000E+00  8.00000000E-01  8.00000000E-01
  1.50000000E+00  8.00000000E-01  8.00000000E-01  1.50000000E+00  8.00000000E-01
  8.00000000E-01  1.50000000E+00  8.00000000E-01  8.00000000E-01  1.50000000E+00
  8.00000000E-01  8.00000000E-01  1.50000000E+00  8.00000000E-01  8.00000000E-01
  1.50000000E+00  8.00000000E-01  8.00000000E-01  1.50000000E+00  8.00000000E-01
  8.00000000E-01  1.50000000E+00  8.00000000E-01  8.00000000E-01  1.50000000E+00
  8.00000000E-01  8.00000000E-01  1.50000000E+00  8.00000000E-01  8.00000000E-01
  1.50000000E+00  8.00000000E-01  8.00000000E-01  1.50000000E+00  8.00000000E-01
  8.00000000E-01  1.50000000E+00  8.00000000E-01  8.00000000E-01  1.50000000E+00
  8.00000000E-01  8.00000000E-01  1.50000000E+00  8.00000000E-01  8.00000000E-01
  1.50000000E+00  8.00000000E-01  8.00000000E-01  1.50000000E+00  8.00000000E-01
  8.00000000E-01  1.50000000E+00  8.00000000E-01  8.00000000E-01  1.50000000E+00
  8.00000000E-01  8.00000000E-01  1.50000000E+00  8.00000000E-01  8.00000000E-01
  1.50000000E+00  8.00000000E-01  8.00000000E-01  1.50000000E+00  8.00000000E-01
  8.00000000E-01  1.50000000E+00  8.00000000E-01  8.00000000E-01  1.50000000E+00
  8.00000000E-01  8.00000000E-01  1.50000000E+00  8.00000000E-01  8.00000000E-01
  1.50000000E+00  8.00000000E-01  8.00000000E-01  1.50000000E+00  8.00000000E-01
  8.00000000E-01  1.50000000E+00  8.00000000E-01  8.00000000E-01  1.50000000E+00
  8.00000000E-01  8.00000000E-01  1.50000000E+00  8.00000000E-01  8.00000000E-01
  1.50000000E+00  8.00000000E-01  8.00000000E-01  1.50000000E+00  8.00000000E-01
  8.00000000E-01  1.50000000E+00  8.00000000E-01  8.00000000E-01  1.50000000E+00
  8.00000000E-01  8.00000000E-01  1.50000000E+00  8.00000000E-01  8.00000000E-01
  1.50000000E+00  8.00000000E-01  8.00000000E-01  1.50000000E+00  8.00000000E-01
  8.00000000E-01  1.50000000E+00  8.00000000E-01  8.00000000E-01  1.50000000E+00
  8.00000000E-01  8.00000000E-01  1.50000000E+00  8.00000000E-01  8.00000000E-01
  1.50000000E+00  8.00000000E-01  8.00000000E-01  1.50000000E+00  8.00000000E-01
  8.00000000E-01  1.50000000E+00  8.00000000E-01  8.00000000E-01  1.50000000E+00
  8.00000000E-01  8.00000000E-01  1.50000000E+00  8.00000000E-01  8.00000000E-01
  1.50000000E+00  8.00000000E-01  8.00000000E-01  1.50000000E+00  8.00000000E-01
  8.00000000E-01  1.50000000E+00  8.00000000E-01  8.00000000E-01  1.50000000E+00
  8.00000000E-01  8.00000000E-01  1.50000000E+00  8.00000000E-01  8.00000000E-01
  1.50000000E+00  8.00000000E-01  8.00000000E-01  1.50000000E+00  8.00000000E-01
  8.00000000E-01  1.50000000E+00  8.00000000E-01  8.00000000E-01  1.50000000E+00
  8.00000000E-01  8.00000000E-01  1.50000000E+00  8.00000000E-01  8.00000000E-01
  1.50000000E+00  8.00000000E-01  8.00000000E-01  1.50000000E+00  8.00000000E-01
  8.00000000E-01  1.50000000E+00  8.00000000E-01  8.00000000E-01  1.50000000E+00
  8.00000000E-01  8.00000000E-01  1.50000000E+00  8.00000000E-01  8.00000000E-01
  1.50000000E+00  8.00000000E-01  8.00000000E-01  1.50000000E+00  8.00000000E-01
  8.00000000E-01  1.50000000E+00  8.00000000E-01  8.00000000E-01  1.50000000E+00
  8.00000000E-01  8.00000000E-01  1.50000000E+00  8.00000000E-01  8.00000000E-01
  1.50000000E+00  8.00000000E-01  8.00000000E-01  1.50000000E+00  8.00000000E-01
  8.00000000E-01  1.50000000E+00  8.00000000E-01  8.00000000E-01  1.50000000E+00
  8.00000000E-01  8.00000000E-01  1.50000000E+00  8.00000000E-01  8.00000000E-01
  1.50000000E+00  8.00000000E-01  8.00000000E-01  1.50000000E+00  8.00000000E-01
  8.00000000E-01  1.50000000E+00  8.00000000E-01  8.00000000E-01  1.50000000E+00
  8.00000000E-01  8.00000000E-01  1.50000000E+00  8.00000000E-01  8.00000000E-01
  1.50000000E+00  8.00000000E-01  8.00000000E-01  1.50000000E+00  8.00000000E-01
  8.00000000E-01  1.50000000E+00  8.00000000E-01  8.00000000E-01  1.50000000E+00
  8.00000000E-01  8.00000000E-01  1.50000000E+00  8.00000000E-01  8.00000000E-01
  1.50000000E+00  8.00000000E-01  8.00000000E-01  1.50000000E+00  8.00000000E-01
  8.00000000E-01  1.50000000E+00  8.00000000E-01  8.00000000E-01  1.50000000E+00
  8.00000000E-01  8.00000000E-01  1.50000000E+00  8.00000000E-01  8.00000000E-01
  1.50000000E+00  8.00000000E-01  8.00000000E-01  1.50000000E+00  8.00000000E-01
  8.00000000E-01  1.50000000E+00  8.00000000E-01  8.00000000E-01  1.50000000E+00
  8.00000000E-01  8.00000000E-01  1.50000000E+00  8.00000000E-01  8.00000000E-01
  1.50000000E+00  8.00000000E-01  8.00000000E-01  1.50000000E+00  8.00000000E-01
  8.00000000E-01  1.50000000E+00  8.00000000E-01  8.00000000E-01  1.50000000E+00
  8.00000000E-01  8.00000000E-01  1.50000000E+00  8.00000000E-01  8.00000000E-01
  1.50000000E+00  8.00000000E-01  8.00000000E-01  1.50000000E+00  8.00000000E-01
  8.00000000E-01  1.50000000E+00  8.00000000E-01  8.00000000E-01  1.50000000E+00
  8.00000000E-01  8.00000000E-01  1.50000000E+00  8.00000000E-01  8.00000000E-01
  1.50000000E+00  8.00000000E-01  8.00000000E-01  1.50000000E+00  8.00000000E-01
  8.00000000E-01  1.50000000E+00  8.00000000E-01  8.00000000E-01  1.50000000E+00
  8.00000000E-01  8.00000000E-01  1.50000000E+00  8.00000000E-01  8.00000000E-01
  1.50000000E+00  8.00000000E-01  8.00000000E-01  1.50000000E+00  8.00000000E-01
  8.00000000E-01  1.50000000E+00  8.00000000E-01  8.00000000E-01  1.50000000E+00
  8.00000000E-01  8.00000000E-01  1.50000000E+00  8.00000000E-01  8.00000000E-01
  1.50000000E+00  8.00000000E-01  8.00000000E-01  1.50000000E+00  8.00000000E-01
  8.00000000E-01  1.50000000E+00  8.00000000E-01  8.00000000E-01  1.50000000E+00
  8.00000000E-01  8.00000000E-01  1.50000000E+00  8.00000000E-01  8.00000000E-01
  1.50000000E+00  8.00000000E-01  8.00000000E-01  1.50000000E+00  8.00000000E-01
  8.00000000E-01  1.50000000E+00  8.00000000E-01  8.00000000E-01  1.50000000E+00
  8.00000000E-01  8.00000000E-01  1.50000000E+00  8.00000000E-01  8.00000000E-01
  1.50000000E+00  8.00000000E-01  8.00000000E-01  1.50000000E+00  8.00000000E-01
  8.00000000E-01  1.50000000E+00  8.00000000E-01  8.00000000E-01  1.50000000E+00
  8.00000000E-01  8.00000000E-01  1.50000000E+00  8.00000000E-01  8.00000000E-01
  1.50000000E+00  8.00000000E-01  8.00000000E-01  1.50000000E+00  8.00000000E-01
  8.00000000E-01  1.50000000E+00  8.00000000E-01  8.00000000E-01  1.50000000E+00
  8.00000000E-01  8.00000000E-01  1.50000000E+00  8.00000000E-01  8.00000000E-01
  1.50000000E+00  8.00000000E-01  8.00000000E-01  1.50000000E+00  8.00000000E-01
  8.00000000E-01  1.50000000E+00  8.00000000E-01  8.00000000E-01  1.50000000E+00
  8.00000000E-01  8.00000000E-01  1.50000000E+00  8.00000000E-01  8.00000000E-01
  1.50000000E+00  8.00000000E-01  8.00000000E-01  1.50000000E+00  8.00000000E-01
  8.00000000E-01  1.50000000E+00  8.00000000E-01  8.00000000E-01  1.50000000E+00
  8.00000000E-01  8.00000000E-01  1.50000000E+00  8.00000000E-01  8.00000000E-01
  1.50000000E+00  8.00000000E-01  8.00000000E-01  1.50000000E+00  8.00000000E-01
  8.00000000E-01  1.50000000E+00  8.00000000E-01  8.00000000E-01  1.50000000E+00
  8.00000000E-01  8.00000000E-01  1.50000000E+00  8.00000000E-01  8.00000000E-01
  1.50000000E+00  8.00000000E-01  8.00000000E-01  1.50000000E+00  8.00000000E-01
  8.00000000E-01  1.50000000E+00  8.00000000E-01  8.00000000E-01  1.50000000E+00
  8.00000000E-01  8.00000000E-01  1.50000000E+00  8.00000000E-01  8.00000000E-01
  1.50000000E+00  8.00000000E-01  8.00000000E-01  1.50000000E+00  8.00000000E-01
  8.00000000E-01  1.50000000E+00  8.00000000E-01  8.00000000E-01  1.50000000E+00
  8.00000000E-01  8.00000000E-01  1.50000000E+00  8.00000000E-01  8.00000000E-01
  1.50000000E+00  8.00000000E-01  8.00000000E-01  1.50000000E+00  8.00000000E-01
  8.00000000E-01  1.50000000E+00  8.00000000E-01  8.00000000E-01  1.50000000E+00
  8.00000000E-01  8.00000000E-01  1.50000000E+00  8.00000000E-01  8.00000000E-01
  1.50000000E+00  8.00000000E-01  8.00000000E-01  1.50000000E+00  8.00000000E-01
  8.00000000E-01  1.50000000E+00  8.00000000E-01  8.00000000E-01  1.50000000E+00
  8.00000000E-01  8.00000000E-01  1.50000000E+00  8.00000000E-01  8.00000000E-01
  1.50000000E+00  8.00000000E-01  8.00000000E-01  1.50000000E+00  8.00000000E-01
  8.00000000E-01  1.50000000E+00  8.00000000E-01  8.00000000E-01  1.50000000E+00
  8.00000000E-01  8.00000000E-01  1.50000000E+00  8.00000000E-01  8.00000000E-01
  1.50000000E+00  8.00000000E-01  8.00000000E-01  1.50000000E+00  8.00000000E-01
  8.00000000E-01  1.50000000E+00  8.00000000E-01  8.00000000E-01  1.50000000E+00
  8.00000000E-01  8.00000000E-01  1.50000000E+00  8.00000000E-01  8.00000000E-01
  1.50000000E+00  8.00000000E-01  8.00000000E-01  1.50000000E+00  8.00000000E-01
  8.00000000E-01  1.50000000E+00  8.00000000E-01  8.00000000E-01  1.50000000E+00
  8.00000000E-01  8.00000000E-01  1.50000000E+00  8.00000000E-01  8.00000000E-01
  1.50000000E+00  8.00000000E-01  8.00000000E-01  1.50000000E+00  8.00000000E-01
  8.00000000E-01  1.50000000E+00  8.00000000E-01  8.00000000E-01  1.50000000E+00
  8.00000000E-01  8.00000000E-01  1.50000000E+00  8.00000000E-01  8.00000000E-01
  1.50000000E+00  8.00000000E-01  8.00000000E-01  1.50000000E+00  8.00000000E-01
  8.00000000E-01  1.50000000E+00  8.00000000E-01  8.00000000E-01  1.50000000E+00
  8.00000000E-01  8.00000000E-01  1.50000000E+00  8.00000000E-01  8.00000000E-01
  1.50000000E+00  8.00000000E-01  8.00000000E-01  1.50000000E+00  8.00000000E-01
  8.00000000E-01  1.50000000E+00  8.00000000E-01  8.00000000E-01  1.50000000E+00
  8.00000000E-01  8.00000000E-01  1.50000000E+00  8.00000000E-01  8.00000000E-01
  1.50000000E+00  8.00000000E-01  8.00000000E-01  1.50000000E+00  8.00000000E-01
  8.00000000E-01  1.50000000E+00  8.00000000E-01  8.00000000E-01  1.50000000E+00
  8.00000000E-01  8.00000000E-01  1.50000000E+00  8.00000000E-01  8.00000000E-01
  1.50000000E+00  8.00000000E-01  8.00000000E-01  1.50000000E+00  8.00000000E-01
  8.00000000E-01  1.50000000E+00  8.00000000E-01  8.00000000E-01  1.50000000E+00
  8.00000000E-01  8.00000000E-01  1.50000000E+00  8.00000000E-01  8.00000000E-01
  1.50000000E+00  8.00000000E-01  8.00000000E-01  1.50000000E+00  8.00000000E-01
  8.00000000E-01  1.50000000E+00  8.00000000E-01  8.00000000E-01  1.50000000E+00
  8.00000000E-01  8.00000000E-01  1.50000000E+00  8.00000000E-01  8.00000000E-01
  1.50000000E+00  8.00000000E-01  8.00000000E-01  1.50000000E+00  8.00000000E-01
  8.00000000E-01  1.50000000E+00  8.00000000E-01  8.00000000E-01  1.50000000E+00
  8.00000000E-01  8.00000000E-01  1.50000000E+00  8.00000000E-01  8.00000000E-01
  1.50000000E+00  8.00000000E-01  8.00000000E-01  1.50000000E+00  8.00000000E-01
  8.00000000E-01  1.50000000E+00  8.00000000E-01  8.00000000E-01  1.50000000E+00
  8.00000000E-01  8.00000000E-01  1.50000000E+00  8.00000000E-01  8.00000000E-01
  1.50000000E+00  8.00000000E-01  8.00000000E-01  1.50000000E+00  8.00000000E-01
  8.00000000E-01  1.50000000E+00  8.00000000E-01  8.00000000E-01  1.50000000E+00
  8.00000000E-01  8.00000000E-01  1.50000000E+00  8.00000000E-01  8.00000000E-01
  1.50000000E+00  8.00000000E-01  8.00000000E-01  1.50000000E+00  8.00000000E-01
  8.00000000E-01  1.50000000E+00  8.00000000E-01  8.00000000E-01  1.50000000E+00
  8.00000000E-01  8.00000000E-01  1.50000000E+00  8.00000000E-01  8.00000000E-01
  1.50000000E+00  8.00000000E-01  8.00000000E-01  1.50000000E+00  8.00000000E-01
  8.00000000E-01  1.50000000E+00  8.00000000E-01  8.00000000E-01  1.50000000E+00
  8.00000000E-01  8.00000000E-01  1.50000000E+00  8.00000000E-01  8.00000000E-01
  1.50000000E+00  8.00000000E-01  8.00000000E-01  1.50000000E+00  8.00000000E-01
  8.00000000E-01  1.50000000E+00  8.00000000E-01  8.00000000E-01  1.50000000E+00
  8.00000000E-01  8.00000000E-01  1.50000000E+00  8.00000000E-01  8.00000000E-01
  1.50000000E+00  8.00000000E-01  8.00000000E-01  1.50000000E+00  8.00000000E-01
  8.00000000E-01  1.50000000E+00  8.00000000E-01  8.00000000E-01  1.50000000E+00
  8.00000000E-01  8.00000000E-01  1.50000000E+00  8.00000000E-01  8.00000000E-01
  1.50000000E+00  8.00000000E-01  8.00000000E-01  1.50000000E+00  8.00000000E-01
  8.00000000E-01  1.50000000E+00  8.00000000E-01  8.00000000E-01  1.50000000E+00
  8.00000000E-01  8.00000000E-01  1.50000000E+00  8.00000000E-01  8.00000000E-01
  1.50000000E+00  8.00000000E-01  8.00000000E-01  1.50000000E+00  8.00000000E-01
  8.00000000E-01  1.50000000E+00  8.00000000E-01  8.00000000E-01  1.50000000E+00
  8.00000000E-01  8.00000000E-01  1.50000000E+00  8.00000000E-01  8.00000000E-01
  1.50000000E+00  8.00000000E-01  8.00000000E-01  1.50000000E+00  8.00000000E-01
  8.00000000E-01  1.50000000E+00  8.00000000E-01  8.00000000E-01  1.50000000E+00
  8.00000000E-01  8.00000000E-01  1.50000000E+00  8.00000000E-01  8.00000000E-01
  1.50000000E+00  8.00000000E-01  8.00000000E-01  1.50000000E+00  8.00000000E-01
  8.00000000E-01  1.50000000E+00  8.00000000E-01  8.00000000E-01  1.50000000E+00
  8.00000000E-01  8.00000000E-01  1.50000000E+00  8.00000000E-01  8.00000000E-01
  1.50000000E+00  8.00000000E-01  8.00000000E-01  1.50000000E+00  8.00000000E-01
  8.00000000E-01  1.50000000E+00  8.00000000E-01  8.00000000E-01  1.50000000E+00
  8.00000000E-01  8.00000000E-01  1.50000000E+00  8.00000000E-01  8.00000000E-01
  1.50000000E+00  8.00000000E-01  8.00000000E-01  1.50000000E+00  8.00000000E-01
  8.00000000E-01  1.50000000E+00  8.00000000E-01  8.00000000E-01  1.50000000E+00
  8.00000000E-01  8.00000000E-01  1.50000000E+00  8.00000000E-01  8.00000000E-01
  1.50000000E+00  8.00000000E-01  8.00000000E-01  1.50000000E+00  8.00000000E-01
  8.00000000E-01  1.50000000E+00  8.00000000E-01  8.00000000E-01  1.50000000E+00
  8.00000000E-01  8.00000000E-01  1.50000000E+00  8.00000000E-01  8.00000000E-01
  1.50000000E+00  8.00000000E-01  8.00000000E-01  1.50000000E+00  8.00000000E-01
  8.00000000E-01  1.50000000E+00  8.00000000E-01  8.00000000E-01  1.50000000E+00
  8.00000000E-01  8.00000000E-01  1.50000000E+00  8.00000000E-01  8.00000000E-01
  1.50000000E+00  8.00000000E-01  8.00000000E-01  1.50000000E+00  8.00000000E-01
  8.00000000E-01  1.50000000E+00  8.00000000E-01  8.00000000E-01  1.50000000E+00
  8.00000000E-01  8.00000000E-01  1.50000000E+00  8.00000000E-01  8.00000000E-01
  1.50000000E+00  8.00000000E-01  8.00000000E-01  1.50000000E+00  8.00000000E-01
  8.00000000E-01  1.50000000E+00  8.00000000E-01  8.00000000E-01  1.50000000E+00
  8.00000000E-01  8.00000000E-01  1.50000000E+00  8.00000000E-01  8.00000000E-01
  1.50000000E+00  8.00000000E-01  8.00000000E-01  1.50000000E+00  8.00000000E-01
  8.00000000E-01  1.50000000E+00  8.00000000E-01  8.00000000E-01  1.50000000E+00
  8.00000000E-01  8.00000000E-01  1.50000000E+00  8.00000000E-01  8.00000000E-01
  1.50000000E+00  8.00000000E-01  8.00000000E-01  1.50000000E+00  8.00000000E-01
  8.00000000E-01  1.50000000E+00  8.00000000E-01  8.00000000E-01  1.50000000E+00
  8.00000000E-01  8.00000000E-01  1.50000000E+00  8.00000000E-01  8.00000000E-01
  1.50000000E+00  8.00000000E-01  8.00000000E-01  1.50000000E+00  8.00000000E-01
  8.00000000E-01  1.50000000E+00  8.00000000E-01  8.00000000E-01  1.50000000E+00
  8.00000000E-01  8.00000000E-01  1.50000000E+00  8.00000000E-01  8.00000000E-01
  1.50000000E+00  8.00000000E-01  8.00000000E-01  1.50000000E+00  8.00000000E-01
  8.00000000E-01  1.50000000E+00  8.00000000E-01  8.00000000E-01  1.50000000E+00
  8.00000000E-01  8.00000000E-01  1.50000000E+00  8.00000000E-01  8.00000000E-01
  1.50000000E+00  8.00000000E-01  8.00000000E-01  1.50000000E+00  8.00000000E-01
  8.00000000E-01  1.50000000E+00  8.00000000E-01  8.00000000E-01  1.50000000E+00
  8.00000000E-01  8.00000000E-01  1.50000000E+00  8.00000000E-01  8.00000000E-01
  1.50000000E+00  8.00000000E-01  8.00000000E-01  1.50000000E+00  8.00000000E-01
  8.00000000E-01  1.50000000E+00  8.00000000E-01  8.00000000E-01  1.50000000E+00
  8.00000000E-01  8.00000000E-01  1.50000000E+00  8.00000000E-01  8.00000000E-01
  1.50000000E+00  8.00000000E-01  8.00000000E-01  1.50000000E+00  8.00000000E-01
  8.00000000E-01  1.50000000E+00  8.00000000E-01  8.00000000E-01  1.50000000E+00
  8.00000000E-01  8.00000000E-01  1.50000000E+00  8.00000000E-01  8.00000000E-01
  1.50000000E+00  8.00000000E-01  8.00000000E-01  1.50000000E+00  8.00000000E-01
  8.00000000E-01  1.50000000E+00  8.00000000E-01  8.00000000E-01  1.50000000E+00
  8.00000000E-01  8.00000000E-01  1.50000000E+00  8.00000000E-01  8.00000000E-01
  1.50000000E+00  8.00000000E-01  8.00000000E-01  1.50000000E+00  8.00000000E-01
  8.00000000E-01  1.50000000E+00  8.00000000E-01  8.00000000E-01  1.50000000E+00
  8.00000000E-01  8.00000000E-01  1.50000000E+00  8.00000000E-01  8.00000000E-01
  1.50000000E+00  8.00000000E-01  8.00000000E-01  1.50000000E+00  8.00000000E-01
  8.00000000E-01  1.50000000E+00  8.00000000E-01  8.00000000E-01  1.50000000E+00
  8.00000000E-01  8.00000000E-01  1.50000000E+00  8.00000000E-01  8.00000000E-01
  1.50000000E+00  8.00000000E-01  8.00000000E-01  1.50000000E+00  8.00000000E-01
  8.00000000E-01  1.50000000E+00  8.00000000E-01  8.00000000E-01  1.50000000E+00
  8.00000000E-01  8.00000000E-01  1.50000000E+00  8.00000000E-01  8.00000000E-01
  1.50000000E+00  8.00000000E-01  8.00000000E-01  1.50000000E+00  8.00000000E-01
  8.00000000E-01  1.50000000E+00  8.00000000E-01  8.00000000E-01  1.50000000E+00
  8.00000000E-01  8.00000000E-01  1.50000000E+00  8.00000000E-01  8.00000000E-01
  1.50000000E+00  8.00000000E-01  8.00000000E-01  1.50000000E+00  8.00000000E-01
  8.00000000E-01  1.50000000E+00  8.00000000E-01  8.00000000E-01  1.50000000E+00
  8.00000000E-01  8.00000000E-01  1.50000000E+00  8.00000000E-01  8.00000000E-01
  1.50000000E+00  8.00000000E-01  8.00000000E-01  1.50000000E+00  8.00000000E-01
  8.00000000E-01  1.50000000E+00  8.00000000E-01  8.00000000E-01  1.50000000E+00
  8.00000000E-01  8.00000000E-01  1.50000000E+00  8.00000000E-01  8.00000000E-01
  1.50000000E+00  8.00000000E-01  8.00000000E-01  1.50000000E+00  8.00000000E-01
  8.00000000E-01  1.50000000E+00  8.00000000E-01  8.00000000E-01  1.50000000E+00
  8.00000000E-01  8.00000000E-01  1.50000000E+00  8.00000000E-01  8.00000000E-01
  1.50000000E+00  8.00000000E-01  8.00000000E-01  1.50000000E+00  8.00000000E-01
  8.00000000E-01  1.50000000E+00  8.00000000E-01  8.00000000E-01  1.50000000E+00
  8.00000000E-01  8.00000000E-01  1.50000000E+00  8.00000000E-01  8.00000000E-01
  1.50000000E+00  8.00000000E-01  8.00000000E-01  1.50000000E+00  8.00000000E-01
  8.00000000E-01  1.50000000E+00  8.00000000E-01  8.00000000E-01  1.50000000E+00
  8.00000000E-01  8.00000000E-01  1.50000000E+00  8.00000000E-01  8.00000000E-01
  1.50000000E+00  8.00000000E-01  8.00000000E-01  1.50000000E+00  8.00000000E-01
  8.00000000E-01  1.50000000E+00  8.00000000E-01  8.00000000E-01  1.50000000E+00
  8.00000000E-01  8.00000000E-01  1.50000000E+00  8.00000000E-01  8.00000000E-01
  1.50000000E+00  8.00000000E-01  8.00000000E-01  1.50000000E+00  8.00000000E-01
  8.00000000E-01  1.50000000E+00  8.00000000E-01  8.00000000E-01  1.50000000E+00
  8.00000000E-01  8.00000000E-01  1.50000000E+00  8.00000000E-01  8.00000000E-01
  1.50000000E+00  8.00000000E-01  8.00000000E-01  1.50000000E+00  8.00000000E-01
  8.00000000E-01  1.50000000E+00  8.00000000E-01  8.00000000E-01  1.50000000E+00
  8.00000000E-01  8.00000000E-01  1.50000000E+00  8.00000000E-01  8.00000000E-01
  1.50000000E+00  8.00000000E-01  8.00000000E-01  1.50000000E+00  8.00000000E-01
  8.00000000E-01  1.50000000E+00  8.00000000E-01  8.00000000E-01  1.50000000E+00
  8.00000000E-01  8.00000000E-01  1.50000000E+00  8.00000000E-01  8.00000000E-01
  1.50000000E+00  8.00000000E-01  8.00000000E-01  1.50000000E+00  8.00000000E-01
  8.00000000E-01  1.50000000E+00  8.00000000E-01  8.00000000E-01  1.50000000E+00
  8.00000000E-01  8.00000000E-01  1.50000000E+00  8.00000000E-01  8.00000000E-01
  1.50000000E+00  8.00000000E-01  8.00000000E-01  1.50000000E+00  8.00000000E-01
  8.00000000E-01  1.50000000E+00  8.00000000E-01  8.00000000E-01  1.50000000E+00
  8.00000000E-01  8.00000000E-01  1.50000000E+00  8.00000000E-01  8.00000000E-01
  1.50000000E+00  8.00000000E-01  8.00000000E-01  1.50000000E+00  8.00000000E-01
  8.00000000E-01  1.50000000E+00  8.00000000E-01  8.00000000E-01  1.50000000E+00
  8.00000000E-01  8.00000000E-01  1.50000000E+00  8.00000000E-01  8.00000000E-01
  1.50000000E+00  8.00000000E-01  8.00000000E-01  1.50000000E+00  8.00000000E-01
  8.00000000E-01  1.50000000E+00  8.00000000E-01  8.00000000E-01  1.50000000E+00
  8.00000000E-01  8.00000000E-01  1.50000000E+00  8.00000000E-01  8.00000000E-01
  1.50000000E+00  8.00000000E-01  8.00000000E-01  1.50000000E+00  8.00000000E-01
  8.00000000E-01  1.50000000E+00  8.00000000E-01  8.00000000E-01  1.50000000E+00
  8.00000000E-01  8.00000000E-01  1.50000000E+00  8.00000000E-01  8.00000000E-01
  1.50000000E+00  8.00000000E-01  8.00000000E-01  1.50000000E+00  8.00000000E-01
  8.00000000E-01  1.50000000E+00  8.00000000E-01  8.00000000E-01  1.50000000E+00
  8.00000000E-01  8.00000000E-01  1.50000000E+00  8.00000000E-01  8.00000000E-01
  1.50000000E+00  8.00000000E-01  8.00000000E-01  1.50000000E+00  8.00000000E-01
  8.00000000E-01  1.50000000E+00  8.00000000E-01  8.00000000E-01  1.50000000E+00
  8.00000000E-01  8.00000000E-01  1.50000000E+00  8.00000000E-01  8.00000000E-01
  1.50000000E+00  8.00000000E-01  8.00000000E-01  1.50000000E+00  8.00000000E-01
  8.00000000E-01  1.50000000E+00  8.00000000E-01  8.00000000E-01  1.50000000E+00
  8.00000000E-01  8.00000000E-01  1.50000000E+00  8.00000000E-01  8.00000000E-01
  1.50000000E+00  8.00000000E-01  8.00000000E-01  1.50000000E+00  8.00000000E-01
  8.00000000E-01  1.50000000E+00  8.00000000E-01  8.00000000E-01  1.50000000E+00
  8.00000000E-01  8.00000000E-01  1.50000000E+00  8.00000000E-01  8.00000000E-01
  1.50000000E+00  8.00000000E-01  8.00000000E-01  1.50000000E+00  8.00000000E-01
  8.00000000E-01  1.50000000E+00  8.00000000E-01  8.00000000E-01  1.50000000E+00
  8.00000000E-01  8.00000000E-01  1.50000000E+00  8.00000000E-01  8.00000000E-01
  1.50000000E+00  8.00000000E-01  8.00000000E-01  1.50000000E+00  8.00000000E-01
  8.00000000E-01  1.50000000E+00  8.00000000E-01  8.00000000E-01  1.50000000E+00
  8.00000000E-01  8.00000000E-01  1.50000000E+00  8.00000000E-01  8.00000000E-01
  1.50000000E+00  8.00000000E-01  8.00000000E-01  1.50000000E+00  8.00000000E-01
  8.00000000E-01  1.50000000E+00  8.00000000E-01  8.00000000E-01  1.50000000E+00
  8.00000000E-01  8.00000000E-01  1.50000000E+00  8.00000000E-01  8.00000000E-01
  1.50000000E+00  8.00000000E-01  8.00000000E-01  1.50000000E+00  8.00000000E-01
  8.00000000E-01  1.50000000E+00  8.00000000E-01  8.00000000E-01  1.50000000E+00
  8.00000000E-01  8.00000000E-01  1.50000000E+00  8.00000000E-01  8.00000000E-01
  1.50000000E+00  8.00000000E-01  8.00000000E-01  1.50000000E+00  8.00000000E-01
  8.00000000E-01  1.50000000E+00  8.00000000E-01  8.00000000E-01  1.50000000E+00
  8.00000000E-01  8.00000000E-01  1.50000000E+00  8.00000000E-01  8.00000000E-01
  1.50000000E+00  8.00000000E-01  8.00000000E-01  1.50000000E+00  8.00000000E-01
  8.00000000E-01  1.50000000E+00  8.00000000E-01  8.00000000E-01  1.50000000E+00
  8.00000000E-01  8.00000000E-01  1.50000000E+00  8.00000000E-01  8.00000000E-01
  1.50000000E+00  8.00000000E-01  8.00000000E-01  1.50000000E+00  8.00000000E-01
  8.00000000E-01  1.50000000E+00  8.00000000E-01  8.00000000E-01  1.50000000E+00
  8.00000000E-01  8.00000000E-01  1.50000000E+00  8.00000000E-01  8.00000000E-01
  1.50000000E+00  8.00000000E-01  8.00000000E-01  1.50000000E+00  8.00000000E-01
  8.00000000E-01  1.50000000E+00  8.00000000E-01  8.00000000E-01  1.50000000E+00
  8.00000000E-01  8.00000000E-01  1.50000000E+00  8.00000000E-01  8.00000000E-01
  1.50000000E+00  8.00000000E-01  8.00000000E-01  1.50000000E+00  8.00000000E-01
  8.00000000E-01  1.50000000E+00  8.00000000E-01  8.00000000E-01  1.50000000E+00
  8.00000000E-01  8.00000000E-01  1.50000000E+00  8.00000000E-01  8.00000000E-01
  1.50000000E+00  8.00000000E-01  8.00000000E-01  1.50000000E+00  8.00000000E-01
  8.00000000E-01  1.50000000E+00  8.00000000E-01  8.00000000E-01  1.50000000E+00
  8.00000000E-01  8.00000000E-01  1.50000000E+00  8.00000000E-01  8.00000000E-01
  1.50000000E+00  8.00000000E-01  8.00000000E-01  1.50000000E+00  8.00000000E-01
  8.00000000E-01  1.50000000E+00  8.00000000E-01  8.00000000E-01  1.50000000E+00
  8.00000000E-01  8.00000000E-01  1.50000000E+00  8.00000000E-01  8.00000000E-01
  1.50000000E+00  8.00000000E-01  8.00000000E-01  1.50000000E+00  8.00000000E-01
  8.00000000E-01  1.50000000E+00  8.00000000E-01  8.00000000E-01  1.50000000E+00
  8.00000000E-01  8.00000000E-01  1.50000000E+00  8.00000000E-01  8.00000000E-01
  1.50000000E+00  8.00000000E-01  8.00000000E-01  1.50000000E+00  8.00000000E-01
  8.00000000E-01  1.50000000E+00  8.00000000E-01  8.00000000E-01  1.50000000E+00
  8.00000000E-01  8.00000000E-01  1.50000000E+00  8.00000000E-01  8.00000000E-01
  1.50000000E+00  8.00000000E-01  8.00000000E-01  1.50000000E+00  8.00000000E-01
  8.00000000E-01  1.50000000E+00  8.00000000E-01  8.00000000E-01  1.50000000E+00
  8.00000000E-01  8.00000000E-01  1.50000000E+00  8.00000000E-01  8.00000000E-01
  1.50000000E+00  8.00000000E-01  8.00000000E-01  1.50000000E+00  8.00000000E-01
  8.00000000E-01  1.50000000E+00  8.00000000E-01  8.00000000E-01  1.50000000E+00
  8.00000000E-01  8.00000000E-01  1.50000000E+00  8.00000000E-01  8.00000000E-01
  1.50000000E+00  8.00000000E-01  8.00000000E-01  1.50000000E+00  8.00000000E-01
  8.00000000E-01  1.50000000E+00  8.00000000E-01  8.00000000E-01  1.50000000E+00
  8.00000000E-01  8.00000000E-01  1.50000000E+00  8.00000000E-01  8.00000000E-01
  1.50000000E+00  8.00000000E-01  8.00000000E-01  1.50000000E+00  8.00000000E-01
  8.00000000E-01  1.50000000E+00  8.00000000E-01  8.00000000E-01  1.50000000E+00
  8.00000000E-01  8.00000000E-01  1.50000000E+00  8.00000000E-01  8.00000000E-01
  1.50000000E+00  8.00000000E-01  8.00000000E-01  1.50000000E+00  8.00000000E-01
  8.00000000E-01  1.50000000E+00  8.00000000E-01  8.00000000E-01  1.50000000E+00
  8.00000000E-01  8.00000000E-01  1.50000000E+00  8.00000000E-01  8.00000000E-01
  1.50000000E+00  8.00000000E-01  8.00000000E-01  1.50000000E+00  8.00000000E-01
  8.00000000E-01  1.50000000E+00  8.00000000E-01  8.00000000E-01  1.50000000E+00
  8.00000000E-01  8.00000000E-01  1.50000000E+00  8.00000000E-01  8.00000000E-01
  1.50000000E+00  8.00000000E-01  8.00000000E-01  1.50000000E+00  8.00000000E-01
  8.00000000E-01  1.50000000E+00  8.00000000E-01  8.00000000E-01  1.50000000E+00
  8.00000000E-01  8.00000000E-01  1.50000000E+00  8.00000000E-01  8.00000000E-01
  1.50000000E+00  8.00000000E-01  8.00000000E-01  1.50000000E+00  8.00000000E-01
  8.00000000E-01  1.50000000E+00  8.00000000E-01  8.00000000E-01  1.50000000E+00
  8.00000000E-01  8.00000000E-01  1.50000000E+00  8.00000000E-01  8.00000000E-01
  1.50000000E+00  8.00000000E-01  8.00000000E-01  1.50000000E+00  8.00000000E-01
  8.00000000E-01  1.50000000E+00  8.00000000E-01  8.00000000E-01  1.50000000E+00
  8.00000000E-01  8.00000000E-01  1.50000000E+00  8.00000000E-01  8.00000000E-01
  1.50000000E+00  8.00000000E-01  8.00000000E-01  1.50000000E+00  8.00000000E-01
  8.00000000E-01  1.50000000E+00  8.00000000E-01  8.00000000E-01  1.50000000E+00
  8.00000000E-01  8.00000000E-01  1.50000000E+00  8.00000000E-01  8.00000000E-01
  1.50000000E+00  8.00000000E-01  8.00000000E-01  1.50000000E+00  8.00000000E-01
  8.00000000E-01  1.50000000E+00  8.00000000E-01  8.00000000E-01  1.50000000E+00
  8.00000000E-01  8.00000000E-01  1.50000000E+00  8.00000000E-01  8.00000000E-01
  1.50000000E+00  8.00000000E-01  8.00000000E-01  1.50000000E+00  8.00000000E-01
  8.00000000E-01  1.50000000E+00  8.00000000E-01  8.00000000E-01  1.50000000E+00
  8.00000000E-01  8.00000000E-01  1.50000000E+00  8.00000000E-01  8.00000000E-01
  1.50000000E+00  8.00000000E-01  8.00000000E-01  1.50000000E+00  8.00000000E-01
  8.00000000E-01  1.50000000E+00  8.00000000E-01  8.00000000E-01  1.50000000E+00
  8.00000000E-01  8.00000000E-01  1.50000000E+00  8.00000000E-01  8.00000000E-01
  1.50000000E+00  8.00000000E-01  8.00000000E-01  1.50000000E+00  8.00000000E-01
  8.00000000E-01  1.50000000E+00  8.00000000E-01  8.00000000E-01  1.50000000E+00
  8.00000000E-01  8.00000000E-01  1.50000000E+00  8.00000000E-01  8.00000000E-01
  1.50000000E+00  8.00000000E-01  8.00000000E-01  1.50000000E+00  8.00000000E-01
  8.00000000E-01  1.50000000E+00  8.00000000E-01  8.00000000E-01  1.50000000E+00
  8.00000000E-01  8.00000000E-01  1.50000000E+00  8.00000000E-01  8.00000000E-01
  1.50000000E+00  8.00000000E-01  8.00000000E-01  1.50000000E+00  8.00000000E-01
  8.00000000E-01  1.50000000E+00  8.00000000E-01  8.00000000E-01  1.50000000E+00
  8.00000000E-01  8.00000000E-01  1.50000000E+00  8.00000000E-01  8.00000000E-01
  1.50000000E+00  8.00000000E-01  8.00000000E-01  1.50000000E+00  8.00000000E-01
  8.00000000E-01  1.50000000E+00  8.00000000E-01  8.00000000E-01  1.50000000E+00
  8.00000000E-01  8.00000000E-01  1.50000000E+00  8.00000000E-01  8.00000000E-01
  1.50000000E+00  8.00000000E-01  8.00000000E-01  1.50000000E+00  8.00000000E-01
  8.00000000E-01  1.50000000E+00  8.00000000E-01  8.00000000E-01  1.50000000E+00
  8.00000000E-01  8.00000000E-01  1.50000000E+00  8.00000000E-01  8.00000000E-01
  1.50000000E+00  8.00000000E-01  8.00000000E-01  1.50000000E+00  8.00000000E-01
  8.00000000E-01  1.50000000E+00  8.00000000E-01  8.00000000E-01  1.50000000E+00
  8.00000000E-01  8.00000000E-01  1.50000000E+00  8.00000000E-01  8.00000000E-01
  1.50000000E+00  8.00000000E-01  8.00000000E-01  1.50000000E+00  8.00000000E-01
  8.00000000E-01  1.50000000E+00  8.00000000E-01  8.00000000E-01  1.50000000E+00
  8.00000000E-01  8.00000000E-01  1.50000000E+00  8.00000000E-01  8.00000000E-01
  1.50000000E+00  8.00000000E-01  8.00000000E-01  1.50000000E+00  8.00000000E-01
  8.00000000E-01  1.50000000E+00  8.00000000E-01  8.00000000E-01  1.50000000E+00
  8.00000000E-01  8.00000000E-01  1.50000000E+00  8.00000000E-01  8.00000000E-01
  1.50000000E+00  8.00000000E-01  8.00000000E-01  1.50000000E+00  8.00000000E-01
  8.00000000E-01  1.50000000E+00  8.00000000E-01  8.00000000E-01  1.50000000E+00
  8.00000000E-01  8.00000000E-01  1.50000000E+00  8.00000000E-01  8.00000000E-01
  1.50000000E+00  8.00000000E-01  8.00000000E-01  1.50000000E+00  8.00000000E-01
  8.00000000E-01  1.50000000E+00  8.00000000E-01  8.00000000E-01  1.50000000E+00
  8.00000000E-01  8.00000000E-01  1.50000000E+00  8.00000000E-01  8.00000000E-01
  1.50000000E+00  8.00000000E-01  8.00000000E-01  1.50000000E+00  8.00000000E-01
  8.00000000E-01  1.50000000E+00  8.00000000E-01  8.00000000E-01  1.50000000E+00
  8.00000000E-01  8.00000000E-01  1.50000000E+00  8.00000000E-01  8.00000000E-01
  1.50000000E+00  8.00000000E-01  8.00000000E-01  1.50000000E+00  8.00000000E-01
  8.00000000E-01  1.50000000E+00  8.00000000E-01  8.00000000E-01  1.50000000E+00
  8.00000000E-01  8.00000000E-01  1.50000000E+00  8.00000000E-01  8.00000000E-01
  1.50000000E+00  8.00000000E-01  8.00000000E-01  1.50000000E+00  8.00000000E-01
  8.00000000E-01  1.50000000E+00  8.00000000E-01  8.00000000E-01  1.50000000E+00
  8.00000000E-01  8.00000000E-01  1.50000000E+00  8.00000000E-01  8.00000000E-01
  1.50000000E+00  8.00000000E-01  8.00000000E-01  1.50000000E+00  8.00000000E-01
  8.00000000E-01  1.50000000E+00  8.00000000E-01  8.00000000E-01  1.50000000E+00
  8.00000000E-01  8.00000000E-01  1.50000000E+00  8.00000000E-01  8.00000000E-01
  1.50000000E+00  8.00000000E-01  8.00000000E-01  1.50000000E+00  8.00000000E-01
  8.00000000E-01  1.50000000E+00  8.00000000E-01  8.00000000E-01  1.50000000E+00
  8.00000000E-01  8.00000000E-01  1.50000000E+00  8.00000000E-01  8.00000000E-01
  1.50000000E+00  8.00000000E-01  8.00000000E-01  1.50000000E+00  8.00000000E-01
  8.00000000E-01  1.50000000E+00  8.00000000E-01  8.00000000E-01  1.50000000E+00
  8.00000000E-01  8.00000000E-01  1.50000000E+00  8.00000000E-01  8.00000000E-01
  1.50000000E+00  8.00000000E-01  8.00000000E-01  1.50000000E+00  8.00000000E-01
  8.00000000E-01  1.50000000E+00  8.00000000E-01  8.00000000E-01  1.50000000E+00
  8.00000000E-01  8.00000000E-01  1.50000000E+00  8.00000000E-01  8.00000000E-01
  1.50000000E+00  8.00000000E-01  8.00000000E-01  1.50000000E+00  8.00000000E-01
  8.00000000E-01  1.50000000E+00  8.00000000E-01  8.00000000E-01  1.50000000E+00
  8.00000000E-01  8.00000000E-01  1.50000000E+00  8.00000000E-01  8.00000000E-01
  1.50000000E+00  8.00000000E-01  8.00000000E-01  1.50000000E+00  8.00000000E-01
  8.00000000E-01  1.50000000E+00  8.00000000E-01  8.00000000E-01  1.50000000E+00
  8.00000000E-01  8.00000000E-01  1.50000000E+00  8.00000000E-01  8.00000000E-01
  1.50000000E+00  8.00000000E-01  8.00000000E-01  1.50000000E+00  8.00000000E-01
  8.00000000E-01  1.50000000E+00  8.00000000E-01  8.00000000E-01  1.50000000E+00
  8.00000000E-01  8.00000000E-01  1.50000000E+00  8.00000000E-01  8.00000000E-01
  1.50000000E+00  8.00000000E-01  8.00000000E-01  1.50000000E+00  8.00000000E-01
  8.00000000E-01  1.50000000E+00  8.00000000E-01  8.00000000E-01  1.50000000E+00
  8.00000000E-01  8.00000000E-01  1.50000000E+00  8.00000000E-01  8.00000000E-01
  1.50000000E+00  8.00000000E-01  8.00000000E-01  1.50000000E+00  8.00000000E-01
  8.00000000E-01  1.50000000E+00  8.00000000E-01  8.00000000E-01  1.50000000E+00
  8.00000000E-01  8.00000000E-01  1.50000000E+00  8.00000000E-01  8.00000000E-01
  1.50000000E+00  8.00000000E-01  8.00000000E-01  1.50000000E+00  8.00000000E-01
  8.00000000E-01  1.50000000E+00  8.00000000E-01  8.00000000E-01  1.50000000E+00
  8.00000000E-01  8.00000000E-01  1.50000000E+00  8.00000000E-01  8.00000000E-01
  1.50000000E+00  8.00000000E-01  8.00000000E-01  1.50000000E+00  8.00000000E-01
  8.00000000E-01  1.50000000E+00  8.00000000E-01  8.00000000E-01  1.50000000E+00
  8.00000000E-01  8.00000000E-01  1.50000000E+00  8.00000000E-01  8.00000000E-01
  1.50000000E+00  8.00000000E-01  8.00000000E-01  1.50000000E+00  8.00000000E-01
  8.00000000E-01  1.50000000E+00  8.00000000E-01  8.00000000E-01  1.50000000E+00
  8.00000000E-01  8.00000000E-01  1.50000000E+00  8.00000000E-01  8.00000000E-01
  1.50000000E+00  8.00000000E-01  8.00000000E-01  1.50000000E+00  8.00000000E-01
  8.00000000E-01  1.50000000E+00  8.00000000E-01  8.00000000E-01  1.50000000E+00
  8.00000000E-01  8.00000000E-01  1.50000000E+00  8.00000000E-01  8.00000000E-01
  1.50000000E+00  8.00000000E-01  8.00000000E-01  1.50000000E+00  8.00000000E-01
  8.00000000E-01  1.50000000E+00  8.00000000E-01  8.00000000E-01  1.50000000E+00
  8.00000000E-01  8.00000000E-01  1.50000000E+00  8.00000000E-01  8.00000000E-01
  1.50000000E+00  8.00000000E-01  8.00000000E-01  1.50000000E+00  8.00000000E-01
  8.00000000E-01  1.50000000E+00  8.00000000E-01  8.00000000E-01  1.50000000E+00
  8.00000000E-01  8.00000000E-01  1.50000000E+00  8.00000000E-01  8.00000000E-01
  1.50000000E+00  8.00000000E-01  8.00000000E-01  1.50000000E+00  8.00000000E-01
  8.00000000E-01  1.50000000E+00  8.00000000E-01  8.00000000E-01  1.50000000E+00
  8.00000000E-01  8.00000000E-01  1.50000000E+00  8.00000000E-01  8.00000000E-01
  1.50000000E+00  8.00000000E-01  8.00000000E-01  1.50000000E+00  8.00000000E-01
  8.00000000E-01  1.50000000E+00  8.00000000E-01  8.00000000E-01  1.50000000E+00
  8.00000000E-01  8.00000000E-01  1.50000000E+00  8.00000000E-01  8.00000000E-01
  1.50000000E+00  8.00000000E-01  8.00000000E-01  1.50000000E+00  8.00000000E-01
  8.00000000E-01  1.50000000E+00  8.00000000E-01  8.00000000E-01  1.50000000E+00
  8.00000000E-01  8.00000000E-01  1.50000000E+00  8.00000000E-01  8.00000000E-01
  1.50000000E+00  8.00000000E-01  8.00000000E-01  1.50000000E+00  8.00000000E-01
  8.00000000E-01  1.50000000E+00  8.00000000E-01  8.00000000E-01  1.50000000E+00
  8.00000000E-01  8.00000000E-01  1.50000000E+00  8.00000000E-01  8.00000000E-01
  1.50000000E+00  8.00000000E-01  8.00000000E-01  1.50000000E+00  8.00000000E-01
  8.00000000E-01  1.50000000E+00  8.00000000E-01  8.00000000E-01  1.50000000E+00
  8.00000000E-01  8.00000000E-01  1.50000000E+00  8.00000000E-01  8.00000000E-01
  1.50000000E+00  8.00000000E-01  8.00000000E-01  1.50000000E+00  8.00000000E-01
  8.00000000E-01  1.50000000E+00  8.00000000E-01  8.00000000E-01  1.50000000E+00
  8.00000000E-01  8.00000000E-01  1.50000000E+00  8.00000000E-01  8.00000000E-01
  1.50000000E+00  8.00000000E-01  8.00000000E-01  1.50000000E+00  8.00000000E-01
  8.00000000E-01  1.50000000E+00  8.00000000E-01  8.00000000E-01  1.50000000E+00
  8.00000000E-01  8.00000000E-01  1.50000000E+00  8.00000000E-01  8.00000000E-01
  1.50000000E+00  8.00000000E-01  8.00000000E-01  1.50000000E+00  8.00000000E-01
  8.00000000E-01  1.50000000E+00  8.00000000E-01  8.00000000E-01  1.50000000E+00
  8.00000000E-01  8.00000000E-01  1.50000000E+00  8.00000000E-01  8.00000000E-01
  1.50000000E+00  8.00000000E-01  8.00000000E-01  1.50000000E+00  8.00000000E-01
  8.00000000E-01  1.50000000E+00  8.00000000E-01  8.00000000E-01  1.50000000E+00
  8.00000000E-01  8.00000000E-01  1.50000000E+00  8.00000000E-01  8.00000000E-01
  1.50000000E+00  8.00000000E-01  8.00000000E-01  1.50000000E+00  8.00000000E-01
  8.00000000E-01  1.50000000E+00  8.00000000E-01  8.00000000E-01  1.50000000E+00
  8.00000000E-01  8.00000000E-01  1.50000000E+00  8.00000000E-01  8.00000000E-01
  1.50000000E+00  8.00000000E-01  8.00000000E-01  1.50000000E+00  8.00000000E-01
  8.00000000E-01  1.50000000E+00  8.00000000E-01  8.00000000E-01  1.50000000E+00
  8.00000000E-01  8.00000000E-01  1.50000000E+00  8.00000000E-01  8.00000000E-01
  1.50000000E+00  8.00000000E-01  8.00000000E-01  1.50000000E+00  8.00000000E-01
  8.00000000E-01  1.50000000E+00  8.00000000E-01  8.00000000E-01  1.50000000E+00
  8.00000000E-01  8.00000000E-01  1.50000000E+00  8.00000000E-01  8.00000000E-01
  1.50000000E+00  8.00000000E-01  8.00000000E-01  1.50000000E+00  8.00000000E-01
  8.00000000E-01  1.50000000E+00  8.00000000E-01  8.00000000E-01  1.50000000E+00
  8.00000000E-01  8.00000000E-01  1.50000000E+00  8.00000000E-01  8.00000000E-01
  1.50000000E+00  8.00000000E-01  8.00000000E-01  1.50000000E+00  8.00000000E-01
  8.00000000E-01  1.50000000E+00  8.00000000E-01  8.00000000E-01  1.50000000E+00
  8.00000000E-01  8.00000000E-01  1.50000000E+00  8.00000000E-01  8.00000000E-01
  1.50000000E+00  8.00000000E-01  8.00000000E-01  1.50000000E+00  8.00000000E-01
  8.00000000E-01  1.50000000E+00  8.00000000E-01  8.00000000E-01  1.50000000E+00
  8.00000000E-01  8.00000000E-01  1.50000000E+00  8.00000000E-01  8.00000000E-01
  1.50000000E+00  8.00000000E-01  8.00000000E-01  1.50000000E+00  8.00000000E-01
  8.00000000E-01  1.50000000E+00  8.00000000E-01  8.00000000E-01  1.50000000E+00
  8.00000000E-01  8.00000000E-01  1.50000000E+00  8.00000000E-01  8.00000000E-01
  1.50000000E+00  8.00000000E-01  8.00000000E-01  1.50000000E+00  8.00000000E-01
  8.00000000E-01  1.50000000E+00  8.00000000E-01  8.00000000E-01  1.50000000E+00
  8.00000000E-01  8.00000000E-01  1.50000000E+00  8.00000000E-01  8.00000000E-01
  1.50000000E+00  8.00000000E-01  8.00000000E-01  1.50000000E+00  8.00000000E-01
  8.00000000E-01  1.50000000E+00  8.00000000E-01  8.00000000E-01  1.50000000E+00
  8.00000000E-01  8.00000000E-01  1.50000000E+00  8.00000000E-01  8.00000000E-01
  1.50000000E+00  8.00000000E-01  8.00000000E-01  1.50000000E+00  8.00000000E-01
  8.00000000E-01  1.50000000E+00  8.00000000E-01  8.00000000E-01  1.50000000E+00
  8.00000000E-01  8.00000000E-01  1.50000000E+00  8.00000000E-01  8.00000000E-01
  1.50000000E+00  8.00000000E-01  8.00000000E-01  1.50000000E+00  8.00000000E-01
  8.00000000E-01  1.50000000E+00  8.00000000E-01  8.00000000E-01  1.50000000E+00
  8.00000000E-01  8.00000000E-01  1.50000000E+00  8.00000000E-01  8.00000000E-01
  1.50000000E+00  8.00000000E-01  8.00000000E-01  1.50000000E+00  8.00000000E-01
  8.00000000E-01  1.50000000E+00  8.00000000E-01  8.00000000E-01  1.50000000E+00
  8.00000000E-01  8.00000000E-01  1.50000000E+00  8.00000000E-01  8.00000000E-01
  1.50000000E+00  8.00000000E-01  8.00000000E-01  1.50000000E+00  8.00000000E-01
  8.00000000E-01  1.50000000E+00  8.00000000E-01  8.00000000E-01  1.50000000E+00
  8.00000000E-01  8.00000000E-01  1.50000000E+00  8.00000000E-01  8.00000000E-01
  1.50000000E+00  8.00000000E-01  8.00000000E-01  1.50000000E+00  8.00000000E-01
  8.00000000E-01  1.50000000E+00  8.00000000E-01  8.00000000E-01  1.50000000E+00
  8.00000000E-01  8.00000000E-01  1.50000000E+00  8.00000000E-01  8.00000000E-01
  1.50000000E+00  8.00000000E-01  8.00000000E-01  1.50000000E+00  8.00000000E-01
  8.00000000E-01  1.50000000E+00  8.00000000E-01  8.00000000E-01  1.50000000E+00
  8.00000000E-01  8.00000000E-01  1.50000000E+00  8.00000000E-01  8.00000000E-01
  1.50000000E+00  8.00000000E-01  8.00000000E-01  1.50000000E+00  8.00000000E-01
  8.00000000E-01  1.50000000E+00  8.00000000E-01  8.00000000E-01  1.50000000E+00
  8.00000000E-01  8.00000000E-01  1.50000000E+00  8.00000000E-01  8.00000000E-01
  1.50000000E+00  8.00000000E-01  8.00000000E-01  1.50000000E+00  8.00000000E-01
  8.00000000E-01  1.50000000E+00  8.00000000E-01  8.00000000E-01  1.50000000E+00
  8.00000000E-01  8.00000000E-01  1.50000000E+00  8.00000000E-01  8.00000000E-01
  1.50000000E+00  8.00000000E-01  8.00000000E-01  1.50000000E+00  8.00000000E-01
  8.00000000E-01  1.50000000E+00  8.00000000E-01  8.00000000E-01  1.50000000E+00
  8.00000000E-01  8.00000000E-01  1.50000000E+00  8.00000000E-01  8.00000000E-01
  1.50000000E+00  8.00000000E-01  8.00000000E-01  1.50000000E+00  8.00000000E-01
  8.00000000E-01  1.50000000E+00  8.00000000E-01  8.00000000E-01  1.50000000E+00
  8.00000000E-01  8.00000000E-01  1.50000000E+00  8.00000000E-01  8.00000000E-01
  1.50000000E+00  8.00000000E-01  8.00000000E-01  1.50000000E+00  8.00000000E-01
  8.00000000E-01  1.50000000E+00  8.00000000E-01  8.00000000E-01  1.50000000E+00
  8.00000000E-01  8.00000000E-01  1.50000000E+00  8.00000000E-01  8.00000000E-01
  1.50000000E+00  8.00000000E-01  8.00000000E-01  1.50000000E+00  8.00000000E-01
  8.00000000E-01  1.50000000E+00  8.00000000E-01  8.00000000E-01  1.50000000E+00
  8.00000000E-01  8.00000000E-01  1.50000000E+00  8.00000000E-01  8.00000000E-01
  1.50000000E+00  8.00000000E-01  8.00000000E-01  1.50000000E+00  8.00000000E-01
  8.00000000E-01  1.50000000E+00  8.00000000E-01  8.00000000E-01  1.50000000E+00
  8.00000000E-01  8.00000000E-01  1.50000000E+00  8.00000000E-01  8.00000000E-01
  1.50000000E+00  8.00000000E-01  8.00000000E-01  1.50000000E+00  8.00000000E-01
  8.00000000E-01  1.50000000E+00  8.00000000E-01  8.00000000E-01  1.50000000E+00
  8.00000000E-01  8.00000000E-01  1.50000000E+00  8.00000000E-01  8.00000000E-01
  1.50000000E+00  8.00000000E-01  8.00000000E-01  1.50000000E+00  8.00000000E-01
  8.00000000E-01  1.50000000E+00  8.00000000E-01  8.00000000E-01  1.50000000E+00
  8.00000000E-01  8.00000000E-01  1.50000000E+00  8.00000000E-01  8.00000000E-01
  1.50000000E+00  8.00000000E-01  8.00000000E-01  1.50000000E+00  8.00000000E-01
  8.00000000E-01  1.50000000E+00  8.00000000E-01  8.00000000E-01  1.50000000E+00
  8.00000000E-01  8.00000000E-01  1.50000000E+00  8.00000000E-01  8.00000000E-01
  1.50000000E+00  8.00000000E-01  8.00000000E-01  1.50000000E+00  8.00000000E-01
  8.00000000E-01  1.50000000E+00  8.00000000E-01  8.00000000E-01  1.50000000E+00
  8.00000000E-01  8.00000000E-01  1.50000000E+00  8.00000000E-01  8.00000000E-01
  1.50000000E+00  8.00000000E-01  8.00000000E-01  1.50000000E+00  8.00000000E-01
  8.00000000E-01  1.50000000E+00  8.00000000E-01  8.00000000E-01  1.50000000E+00
  8.00000000E-01  8.00000000E-01  1.50000000E+00  8.00000000E-01  8.00000000E-01
  1.50000000E+00  8.00000000E-01  8.00000000E-01  1.50000000E+00  8.00000000E-01
  8.00000000E-01  1.50000000E+00  8.00000000E-01  8.00000000E-01  1.50000000E+00
  8.00000000E-01  8.00000000E-01  1.50000000E+00  8.00000000E-01  8.00000000E-01
  1.50000000E+00  8.00000000E-01  8.00000000E-01  1.50000000E+00  8.00000000E-01
  8.00000000E-01  1.50000000E+00  8.00000000E-01  8.00000000E-01  1.50000000E+00
  8.00000000E-01  8.00000000E-01  1.50000000E+00  8.00000000E-01  8.00000000E-01
  1.50000000E+00  8.00000000E-01  8.00000000E-01  1.50000000E+00  8.00000000E-01
  8.00000000E-01  1.50000000E+00  8.00000000E-01  8.00000000E-01  1.50000000E+00
  8.00000000E-01  8.00000000E-01  1.50000000E+00  8.00000000E-01  8.00000000E-01
  1.50000000E+00  8.00000000E-01  8.00000000E-01  1.50000000E+00  8.00000000E-01
  8.00000000E-01  1.50000000E+00  8.00000000E-01  8.00000000E-01  1.50000000E+00
  8.00000000E-01  8.00000000E-01  1.50000000E+00  8.00000000E-01  8.00000000E-01
  1.50000000E+00  8.00000000E-01  8.00000000E-01  1.50000000E+00  8.00000000E-01
  8.00000000E-01  1.50000000E+00  8.00000000E-01  8.00000000E-01  1.50000000E+00
  8.00000000E-01  8.00000000E-01  1.50000000E+00  8.00000000E-01  8.00000000E-01
  1.50000000E+00  8.00000000E-01  8.00000000E-01  1.50000000E+00  8.00000000E-01
  8.00000000E-01  1.50000000E+00  8.00000000E-01  8.00000000E-01  1.50000000E+00
  8.00000000E-01  8.00000000E-01  1.50000000E+00  8.00000000E-01  8.00000000E-01
  1.50000000E+00  8.00000000E-01  8.00000000E-01  1.50000000E+00  8.00000000E-01
  8.00000000E-01  1.50000000E+00  8.00000000E-01  8.00000000E-01  1.50000000E+00
  8.00000000E-01  8.00000000E-01  1.50000000E+00  8.00000000E-01  8.00000000E-01
  1.50000000E+00  8.00000000E-01  8.00000000E-01  1.50000000E+00  8.00000000E-01
  8.00000000E-01  1.50000000E+00  8.00000000E-01  8.00000000E-01  1.50000000E+00
  8.00000000E-01  8.00000000E-01  1.50000000E+00  8.00000000E-01  8.00000000E-01
  1.50000000E+00  8.00000000E-01  8.00000000E-01  1.50000000E+00  8.00000000E-01
  8.00000000E-01  1.50000000E+00  8.00000000E-01  8.00000000E-01  1.50000000E+00
  8.00000000E-01  8.00000000E-01  1.50000000E+00  8.00000000E-01  8.00000000E-01
  1.50000000E+00  8.00000000E-01  8.00000000E-01  1.50000000E+00  8.00000000E-01
  8.00000000E-01  1.50000000E+00  8.00000000E-01  8.00000000E-01  1.50000000E+00
  8.00000000E-01  8.00000000E-01  1.50000000E+00  8.00000000E-01  8.00000000E-01
  1.50000000E+00  8.00000000E-01  8.00000000E-01  1.50000000E+00  8.00000000E-01
  8.00000000E-01  1.50000000E+00  8.00000000E-01  8.00000000E-01  1.50000000E+00
  8.00000000E-01  8.00000000E-01  1.50000000E+00  8.00000000E-01  8.00000000E-01
  1.50000000E+00  8.00000000E-01  8.00000000E-01  1.50000000E+00  8.00000000E-01
  8.00000000E-01  1.50000000E+00  8.00000000E-01  8.00000000E-01  1.50000000E+00
  8.00000000E-01  8.00000000E-01  1.50000000E+00  8.00000000E-01  8.00000000E-01
  1.50000000E+00  8.00000000E-01  8.00000000E-01  1.50000000E+00  8.00000000E-01
  8.00000000E-01  1.50000000E+00  8.00000000E-01  8.00000000E-01  1.50000000E+00
  8.00000000E-01  8.00000000E-01  1.50000000E+00  8.00000000E-01  8.00000000E-01
  1.50000000E+00  8.00000000E-01  8.00000000E-01  1.50000000E+00  8.00000000E-01
  8.00000000E-01  1.50000000E+00  8.00000000E-01  8.00000000E-01  1.50000000E+00
  8.00000000E-01  8.00000000E-01  1.50000000E+00  8.00000000E-01  8.00000000E-01
  1.50000000E+00  8.00000000E-01  8.00000000E-01  1.50000000E+00  8.00000000E-01
  8.00000000E-01  1.50000000E+00  8.00000000E-01  8.00000000E-01  1.50000000E+00
  8.00000000E-01  8.00000000E-01  1.50000000E+00  8.00000000E-01  8.00000000E-01
  1.50000000E+00  8.00000000E-01  8.00000000E-01  1.50000000E+00  8.00000000E-01
  8.00000000E-01  1.50000000E+00  8.00000000E-01  8.00000000E-01  1.50000000E+00
  8.00000000E-01  8.00000000E-01  1.50000000E+00  8.00000000E-01  8.00000000E-01
  1.50000000E+00  8.00000000E-01  8.00000000E-01  1.50000000E+00  8.00000000E-01
  8.00000000E-01  1.50000000E+00  8.00000000E-01  8.00000000E-01  1.50000000E+00
  8.00000000E-01  8.00000000E-01  1.50000000E+00  8.00000000E-01  8.00000000E-01
  1.50000000E+00  8.00000000E-01  8.00000000E-01  1.50000000E+00  8.00000000E-01
  8.00000000E-01  1.50000000E+00  8.00000000E-01  8.00000000E-01  1.50000000E+00
  8.00000000E-01  8.00000000E-01  1.50000000E+00  8.00000000E-01  8.00000000E-01
  1.50000000E+00  8.00000000E-01  8.00000000E-01  1.50000000E+00  8.00000000E-01
  8.00000000E-01  1.50000000E+00  8.00000000E-01  8.00000000E-01  1.50000000E+00
  8.00000000E-01  8.00000000E-01  1.50000000E+00  8.00000000E-01  8.00000000E-01
  1.50000000E+00  8.00000000E-01  8.00000000E-01  1.50000000E+00  8.00000000E-01
  8.00000000E-01  1.50000000E+00  8.00000000E-01  8.00000000E-01  1.50000000E+00
  8.00000000E-01  8.00000000E-01  1.50000000E+00  8.00000000E-01  8.00000000E-01
  1.50000000E+00  8.00000000E-01  8.00000000E-01  1.50000000E+00  8.00000000E-01
  8.00000000E-01  1.50000000E+00  8.00000000E-01  8.00000000E-01  1.50000000E+00
  8.00000000E-01  8.00000000E-01  1.50000000E+00  8.00000000E-01  8.00000000E-01
  1.50000000E+00  8.00000000E-01  8.00000000E-01  1.50000000E+00  8.00000000E-01
  8.00000000E-01  1.50000000E+00  8.00000000E-01  8.00000000E-01  1.50000000E+00
  8.00000000E-01  8.00000000E-01  1.50000000E+00  8.00000000E-01  8.00000000E-01
  1.50000000E+00  8.00000000E-01  8.00000000E-01  1.50000000E+00  8.00000000E-01
  8.00000000E-01  1.50000000E+00  8.00000000E-01  8.00000000E-01  1.50000000E+00
  8.00000000E-01  8.00000000E-01  1.50000000E+00  8.00000000E-01  8.00000000E-01
  1.50000000E+00  8.00000000E-01  8.00000000E-01  1.50000000E+00  8.00000000E-01
  8.00000000E-01  1.50000000E+00  8.00000000E-01  8.00000000E-01  1.50000000E+00
  8.00000000E-01  8.00000000E-01  1.50000000E+00  8.00000000E-01  8.00000000E-01
  1.50000000E+00  8.00000000E-01  8.00000000E-01  1.50000000E+00  8.00000000E-01
  8.00000000E-01  1.50000000E+00  8.00000000E-01  8.00000000E-01  1.50000000E+00
  8.00000000E-01  8.00000000E-01  1.50000000E+00  8.00000000E-01  8.00000000E-01
  1.50000000E+00  8.00000000E-01  8.00000000E-01  1.50000000E+00  8.00000000E-01
  8.00000000E-01  1.50000000E+00  8.00000000E-01  8.00000000E-01  1.50000000E+00
  8.00000000E-01  8.00000000E-01  1.50000000E+00  8.00000000E-01  8.00000000E-01
  1.50000000E+00  8.00000000E-01  8.00000000E-01  1.50000000E+00  8.00000000E-01
  8.00000000E-01  1.50000000E+00  8.00000000E-01  8.00000000E-01  1.50000000E+00
  8.00000000E-01  8.00000000E-01  1.50000000E+00  8.00000000E-01  8.00000000E-01
  1.50000000E+00  8.00000000E-01  8.00000000E-01  1.50000000E+00  8.00000000E-01
  8.00000000E-01  1.50000000E+00  8.00000000E-01  8.00000000E-01  1.50000000E+00
  8.00000000E-01  8.00000000E-01  1.50000000E+00  8.00000000E-01  8.00000000E-01
  1.50000000E+00  8.00000000E-01  8.00000000E-01  1.50000000E+00  8.00000000E-01
  8.00000000E-01  1.50000000E+00  8.00000000E-01  8.00000000E-01  1.50000000E+00
  8.00000000E-01  8.00000000E-01  1.50000000E+00  8.00000000E-01  8.00000000E-01
  1.50000000E+00  8.00000000E-01  8.00000000E-01  1.50000000E+00  8.00000000E-01
  8.00000000E-01  1.50000000E+00  8.00000000E-01  8.00000000E-01  1.50000000E+00
  8.00000000E-01  8.00000000E-01  1.50000000E+00  8.00000000E-01  8.00000000E-01
  1.50000000E+00  8.00000000E-01  8.00000000E-01  1.50000000E+00  8.00000000E-01
  8.00000000E-01  1.50000000E+00  8.00000000E-01  8.00000000E-01  1.50000000E+00
  8.00000000E-01  8.00000000E-01  1.50000000E+00  8.00000000E-01  8.00000000E-01
  1.50000000E+00  8.00000000E-01  8.00000000E-01  1.50000000E+00  8.00000000E-01
  8.00000000E-01  1.50000000E+00  8.00000000E-01  8.00000000E-01  1.50000000E+00
  8.00000000E-01  8.00000000E-01  1.50000000E+00  8.00000000E-01  8.00000000E-01
  1.50000000E+00  8.00000000E-01  8.00000000E-01  1.50000000E+00  8.00000000E-01
  8.00000000E-01  1.50000000E+00  8.00000000E-01  8.00000000E-01  1.50000000E+00
  8.00000000E-01  8.00000000E-01  1.50000000E+00  8.00000000E-01  8.00000000E-01
  1.50000000E+00  8.00000000E-01  8.00000000E-01  1.50000000E+00  8.00000000E-01
  8.00000000E-01  1.50000000E+00  8.00000000E-01  8.00000000E-01  1.50000000E+00
  8.00000000E-01  8.00000000E-01  1.50000000E+00  8.00000000E-01  8.00000000E-01
  1.50000000E+00  8.00000000E-01  8.00000000E-01  1.50000000E+00  8.00000000E-01
  8.00000000E-01  1.50000000E+00  8.00000000E-01  8.00000000E-01  1.50000000E+00
  8.00000000E-01  8.00000000E-01  1.50000000E+00  8.00000000E-01  8.00000000E-01
  1.50000000E+00  8.00000000E-01  8.00000000E-01  1.50000000E+00  8.00000000E-01
  8.00000000E-01  1.50000000E+00  8.00000000E-01  8.00000000E-01  1.50000000E+00
  8.00000000E-01  8.00000000E-01  1.50000000E+00  8.00000000E-01  8.00000000E-01
  1.50000000E+00  8.00000000E-01  8.00000000E-01  1.50000000E+00  8.00000000E-01
  8.00000000E-01  1.50000000E+00  8.00000000E-01  8.00000000E-01  1.50000000E+00
  8.00000000E-01  8.00000000E-01  1.50000000E+00  8.00000000E-01  8.00000000E-01
  1.50000000E+00  8.00000000E-01  8.00000000E-01  1.50000000E+00  8.00000000E-01
  8.00000000E-01  1.50000000E+00  8.00000000E-01  8.00000000E-01  1.50000000E+00
  8.00000000E-01  8.00000000E-01  1.50000000E+00  8.00000000E-01  8.00000000E-01
  1.50000000E+00  8.00000000E-01  8.00000000E-01  1.50000000E+00  8.00000000E-01
  8.00000000E-01  1.50000000E+00  8.00000000E-01  8.00000000E-01  1.50000000E+00
  8.00000000E-01  8.00000000E-01  1.50000000E+00  8.00000000E-01  8.00000000E-01
  1.50000000E+00  8.00000000E-01  8.00000000E-01  1.50000000E+00  8.00000000E-01
  8.00000000E-01  1.50000000E+00  8.00000000E-01  8.00000000E-01  1.50000000E+00
  8.00000000E-01  8.00000000E-01  1.50000000E+00  8.00000000E-01  8.00000000E-01
  1.50000000E+00  8.00000000E-01  8.00000000E-01  1.50000000E+00  8.00000000E-01
  8.00000000E-01  1.50000000E+00  8.00000000E-01  8.00000000E-01  1.50000000E+00
  8.00000000E-01  8.00000000E-01  1.50000000E+00  8.00000000E-01  8.00000000E-01
  1.50000000E+00  8.00000000E-01  8.00000000E-01  1.50000000E+00  8.00000000E-01
  8.00000000E-01  1.50000000E+00  8.00000000E-01  8.00000000E-01  1.50000000E+00
  8.00000000E-01  8.00000000E-01  1.50000000E+00  8.00000000E-01  8.00000000E-01
  1.50000000E+00  8.00000000E-01  8.00000000E-01  1.50000000E+00  8.00000000E-01
  8.00000000E-01  1.50000000E+00  8.00000000E-01  8.00000000E-01  1.50000000E+00
  8.00000000E-01  8.00000000E-01  1.50000000E+00  8.00000000E-01  8.00000000E-01
  1.50000000E+00  8.00000000E-01  8.00000000E-01  1.50000000E+00  8.00000000E-01
  8.00000000E-01  1.50000000E+00  8.00000000E-01  8.00000000E-01  1.50000000E+00
  8.00000000E-01  8.00000000E-01  1.50000000E+00  8.00000000E-01  8.00000000E-01
  1.50000000E+00  8.00000000E-01  8.00000000E-01  1.50000000E+00  8.00000000E-01
  8.00000000E-01  1.50000000E+00  8.00000000E-01  8.00000000E-01  1.50000000E+00
  8.00000000E-01  8.00000000E-01  1.50000000E+00  8.00000000E-01  8.00000000E-01
  1.50000000E+00  8.00000000E-01  8.00000000E-01  1.50000000E+00  8.00000000E-01
  8.00000000E-01  1.50000000E+00  8.00000000E-01  8.00000000E-01  1.50000000E+00
  8.00000000E-01  8.00000000E-01  1.50000000E+00  8.00000000E-01  8.00000000E-01
  1.50000000E+00  8.00000000E-01  8.00000000E-01  1.50000000E+00  8.00000000E-01
  8.00000000E-01  1.50000000E+00  8.00000000E-01  8.00000000E-01  1.50000000E+00
  8.00000000E-01  8.00000000E-01  1.50000000E+00  8.00000000E-01  8.00000000E-01
  1.50000000E+00  8.00000000E-01  8.00000000E-01  1.50000000E+00  8.00000000E-01
  8.00000000E-01  1.50000000E+00  8.00000000E-01  8.00000000E-01  1.50000000E+00
  8.00000000E-01  8.00000000E-01  1.50000000E+00  8.00000000E-01  8.00000000E-01
  1.50000000E+00  8.00000000E-01  8.00000000E-01  1.50000000E+00  8.00000000E-01
  8.00000000E-01  1.50000000E+00  8.00000000E-01  8.00000000E-01  1.50000000E+00
  8.00000000E-01  8.00000000E-01  1.50000000E+00  8.00000000E-01  8.00000000E-01
  1.50000000E+00  8.00000000E-01  8.00000000E-01  1.50000000E+00  8.00000000E-01
  8.00000000E-01  1.50000000E+00  8.00000000E-01  8.00000000E-01  1.50000000E+00
  8.00000000E-01  8.00000000E-01  1.50000000E+00  8.00000000E-01  8.00000000E-01
  1.50000000E+00  8.00000000E-01  8.00000000E-01  1.50000000E+00  8.00000000E-01
  8.00000000E-01  1.50000000E+00  8.00000000E-01  8.00000000E-01  1.50000000E+00
  8.00000000E-01  8.00000000E-01  1.50000000E+00  8.00000000E-01  8.00000000E-01
  1.50000000E+00  8.00000000E-01  8.00000000E-01  1.50000000E+00  8.00000000E-01
  8.00000000E-01  1.50000000E+00  8.00000000E-01  8.00000000E-01  1.50000000E+00
  8.00000000E-01  8.00000000E-01  1.50000000E+00  8.00000000E-01  8.00000000E-01
  1.50000000E+00  8.00000000E-01  8.00000000E-01  1.50000000E+00  8.00000000E-01
  8.00000000E-01  1.50000000E+00  8.00000000E-01  8.00000000E-01  1.50000000E+00
  8.00000000E-01  8.00000000E-01  1.50000000E+00  8.00000000E-01  8.00000000E-01
  1.50000000E+00  8.00000000E-01  8.00000000E-01  1.50000000E+00  8.00000000E-01
  8.00000000E-01  1.50000000E+00  8.00000000E-01  8.00000000E-01  1.50000000E+00
  8.00000000E-01  8.00000000E-01  1.50000000E+00  8.00000000E-01  8.00000000E-01
  1.50000000E+00  8.00000000E-01  8.00000000E-01  1.50000000E+00  8.00000000E-01
  8.00000000E-01  1.50000000E+00  8.00000000E-01  8.00000000E-01  1.50000000E+00
  8.00000000E-01  8.00000000E-01  1.50000000E+00  8.00000000E-01  8.00000000E-01
  1.50000000E+00  8.00000000E-01  8.00000000E-01  1.50000000E+00  8.00000000E-01
  8.00000000E-01  1.50000000E+00  8.00000000E-01  8.00000000E-01  1.50000000E+00
  8.00000000E-01  8.00000000E-01  1.50000000E+00  8.00000000E-01  8.00000000E-01
  1.50000000E+00  8.00000000E-01  8.00000000E-01  1.50000000E+00  8.00000000E-01
  8.00000000E-01  1.50000000E+00  8.00000000E-01  8.00000000E-01  1.50000000E+00
  8.00000000E-01  8.00000000E-01  1.50000000E+00  8.00000000E-01  8.00000000E-01
  1.50000000E+00  8.00000000E-01  8.00000000E-01  1.50000000E+00  8.00000000E-01
  8.00000000E-01  1.50000000E+00  8.00000000E-01  8.00000000E-01  1.50000000E+00
  8.00000000E-01  8.00000000E-01  1.50000000E+00  8.00000000E-01  8.00000000E-01
  1.50000000E+00  8.00000000E-01  8.00000000E-01  1.50000000E+00  8.00000000E-01
  8.00000000E-01  1.50000000E+00  8.00000000E-01  8.00000000E-01  1.50000000E+00
  8.00000000E-01  8.00000000E-01  1.50000000E+00  8.00000000E-01  8.00000000E-01
  1.50000000E+00  8.00000000E-01  8.00000000E-01  1.50000000E+00  8.00000000E-01
  8.00000000E-01  1.50000000E+00  8.00000000E-01  8.00000000E-01  1.50000000E+00
  8.00000000E-01  8.00000000E-01  1.50000000E+00  8.00000000E-01  8.00000000E-01
  1.50000000E+00  8.00000000E-01  8.00000000E-01  1.50000000E+00  8.00000000E-01
  8.00000000E-01  1.50000000E+00  8.00000000E-01  8.00000000E-01  1.50000000E+00
  8.00000000E-01  8.00000000E-01  1.50000000E+00  8.00000000E-01  8.00000000E-01
  1.50000000E+00  8.00000000E-01  8.00000000E-01  1.50000000E+00  8.00000000E-01
  8.00000000E-01  1.50000000E+00  8.00000000E-01  8.00000000E-01  1.50000000E+00
  8.00000000E-01  8.00000000E-01  1.50000000E+00  8.00000000E-01  8.00000000E-01
  1.50000000E+00  8.00000000E-01  8.00000000E-01  1.50000000E+00  8.00000000E-01
  8.00000000E-01  1.50000000E+00  8.00000000E-01  8.00000000E-01  1.50000000E+00
  8.00000000E-01  8.00000000E-01  1.50000000E+00  8.00000000E-01  8.00000000E-01
  1.50000000E+00  8.00000000E-01  8.00000000E-01  1.50000000E+00  8.00000000E-01
  8.00000000E-01  1.50000000E+00  8.00000000E-01  8.00000000E-01  1.50000000E+00
  8.00000000E-01  8.00000000E-01  1.50000000E+00  8.00000000E-01  8.00000000E-01
  1.50000000E+00  8.00000000E-01  8.00000000E-01  1.50000000E+00  8.00000000E-01
  8.00000000E-01  1.50000000E+00  8.00000000E-01  8.00000000E-01  1.50000000E+00
  8.00000000E-01  8.00000000E-01  1.50000000E+00  8.00000000E-01  8.00000000E-01
  1.50000000E+00  8.00000000E-01  8.00000000E-01  1.50000000E+00  8.00000000E-01
  8.00000000E-01  1.50000000E+00  8.00000000E-01  8.00000000E-01  1.50000000E+00
  8.00000000E-01  8.00000000E-01  1.50000000E+00  8.00000000E-01  8.00000000E-01
  1.50000000E+00  8.00000000E-01  8.00000000E-01  1.50000000E+00  8.00000000E-01
  8.00000000E-01  1.50000000E+00  8.00000000E-01  8.00000000E-01  1.50000000E+00
  8.00000000E-01  8.00000000E-01  1.50000000E+00  8.00000000E-01  8.00000000E-01
  1.50000000E+00  8.00000000E-01  8.00000000E-01  1.50000000E+00  8.00000000E-01
  8.00000000E-01  1.50000000E+00  8.00000000E-01  8.00000000E-01  1.50000000E+00
  8.00000000E-01  8.00000000E-01  1.50000000E+00  8.00000000E-01  8.00000000E-01
  1.50000000E+00  8.00000000E-01  8.00000000E-01  1.50000000E+00  8.00000000E-01
  8.00000000E-01  1.50000000E+00  8.00000000E-01  8.00000000E-01  1.50000000E+00
  8.00000000E-01  8.00000000E-01  1.50000000E+00  8.00000000E-01  8.00000000E-01
  1.50000000E+00  8.00000000E-01  8.00000000E-01  1.50000000E+00  8.00000000E-01
  8.00000000E-01  1.50000000E+00  8.00000000E-01  8.00000000E-01  1.50000000E+00
  8.00000000E-01  8.00000000E-01  1.50000000E+00  8.00000000E-01  8.00000000E-01
  1.50000000E+00  8.00000000E-01  8.00000000E-01  1.50000000E+00  8.00000000E-01
  8.00000000E-01  1.50000000E+00  8.00000000E-01  8.00000000E-01  1.50000000E+00
  8.00000000E-01  8.00000000E-01  1.50000000E+00  8.00000000E-01  8.00000000E-01
  1.50000000E+00  8.00000000E-01  8.00000000E-01  1.50000000E+00  8.00000000E-01
  8.00000000E-01  1.50000000E+00  8.00000000E-01  8.00000000E-01  1.50000000E+00
  8.00000000E-01  8.00000000E-01  1.50000000E+00  8.00000000E-01  8.00000000E-01
  1.50000000E+00  8.00000000E-01  8.00000000E-01  1.50000000E+00  8.00000000E-01
  8.00000000E-01  1.50000000E+00  8.00000000E-01  8.00000000E-01  1.50000000E+00
  8.00000000E-01  8.00000000E-01  1.50000000E+00  8.00000000E-01  8.00000000E-01
  1.50000000E+00  8.00000000E-01  8.00000000E-01  1.50000000E+00  8.00000000E-01
  8.00000000E-01  1.50000000E+00  8.00000000E-01  8.00000000E-01  1.50000000E+00
  8.00000000E-01  8.00000000E-01  1.50000000E+00  8.00000000E-01  8.00000000E-01
  1.50000000E+00  8.00000000E-01  8.00000000E-01  1.50000000E+00  8.00000000E-01
  8.00000000E-01  1.50000000E+00  8.00000000E-01  8.00000000E-01  1.50000000E+00
  8.00000000E-01  8.00000000E-01  1.50000000E+00  8.00000000E-01  8.00000000E-01
  1.50000000E+00  8.00000000E-01  8.00000000E-01  1.50000000E+00  8.00000000E-01
  8.00000000E-01  1.50000000E+00  8.00000000E-01  8.00000000E-01  1.50000000E+00
  8.00000000E-01  8.00000000E-01  1.50000000E+00  8.00000000E-01  8.00000000E-01
  1.50000000E+00  8.00000000E-01  8.00000000E-01  1.50000000E+00  8.00000000E-01
  8.00000000E-01  1.50000000E+00  8.00000000E-01  8.00000000E-01  1.50000000E+00
  8.00000000E-01  8.00000000E-01  1.50000000E+00  8.00000000E-01  8.00000000E-01
  1.50000000E+00  8.00000000E-01  8.00000000E-01  1.50000000E+00  8.00000000E-01
  8.00000000E-01  1.50000000E+00  8.00000000E-01  8.00000000E-01  1.50000000E+00
  8.00000000E-01  8.00000000E-01  1.50000000E+00  8.00000000E-01  8.00000000E-01
  1.50000000E+00  8.00000000E-01  8.00000000E-01  1.50000000E+00  8.00000000E-01
  8.00000000E-01  1.50000000E+00  8.00000000E-01  8.00000000E-01  1.50000000E+00
  8.00000000E-01  8.00000000E-01  1.50000000E+00  8.00000000E-01  8.00000000E-01
  1.50000000E+00  8.00000000E-01  8.00000000E-01  1.50000000E+00  8.00000000E-01
  8.00000000E-01  1.50000000E+00  8.00000000E-01  8.00000000E-01  1.50000000E+00
  8.00000000E-01  8.00000000E-01  1.50000000E+00  8.00000000E-01  8.00000000E-01
  1.50000000E+00  8.00000000E-01  8.00000000E-01  1.50000000E+00  8.00000000E-01
  8.00000000E-01  1.50000000E+00  8.00000000E-01  8.00000000E-01  1.50000000E+00
  8.00000000E-01  8.00000000E-01  1.50000000E+00  8.00000000E-01  8.00000000E-01
  1.50000000E+00  8.00000000E-01  8.00000000E-01  1.50000000E+00  8.00000000E-01
  8.00000000E-01  1.50000000E+00  8.00000000E-01  8.00000000E-01  1.50000000E+00
  8.00000000E-01  8.00000000E-01  1.50000000E+00  8.00000000E-01  8.00000000E-01
  1.50000000E+00  8.00000000E-01  8.00000000E-01  1.50000000E+00  8.00000000E-01
  8.00000000E-01  1.50000000E+00  8.00000000E-01  8.00000000E-01  1.50000000E+00
  8.00000000E-01  8.00000000E-01  1.50000000E+00  8.00000000E-01  8.00000000E-01
  1.50000000E+00  8.00000000E-01  8.00000000E-01  1.50000000E+00  8.00000000E-01
  8.00000000E-01  1.50000000E+00  8.00000000E-01  8.00000000E-01  1.50000000E+00
  8.00000000E-01  8.00000000E-01  1.50000000E+00  8.00000000E-01  8.00000000E-01
  1.50000000E+00  8.00000000E-01  8.00000000E-01  1.50000000E+00  8.00000000E-01
  8.00000000E-01  1.50000000E+00  8.00000000E-01  8.00000000E-01  1.50000000E+00
  8.00000000E-01  8.00000000E-01  1.50000000E+00  8.00000000E-01  8.00000000E-01
  1.50000000E+00  8.00000000E-01  8.00000000E-01  1.50000000E+00  8.00000000E-01
  8.00000000E-01  1.50000000E+00  8.00000000E-01  8.00000000E-01  1.50000000E+00
  8.00000000E-01  8.00000000E-01  1.50000000E+00  8.00000000E-01  8.00000000E-01
  1.50000000E+00  8.00000000E-01  8.00000000E-01  1.50000000E+00  8.00000000E-01
  8.00000000E-01  1.50000000E+00  8.00000000E-01  8.00000000E-01  1.50000000E+00
  8.00000000E-01  8.00000000E-01  1.50000000E+00  8.00000000E-01  8.00000000E-01
  1.50000000E+00  8.00000000E-01  8.00000000E-01  1.50000000E+00  8.00000000E-01
  8.00000000E-01  1.50000000E+00  8.00000000E-01  8.00000000E-01  1.50000000E+00
  8.00000000E-01  8.00000000E-01  1.50000000E+00  8.00000000E-01  8.00000000E-01
  1.50000000E+00  8.00000000E-01  8.00000000E-01  1.50000000E+00  8.00000000E-01
  8.00000000E-01  1.50000000E+00  8.00000000E-01  8.00000000E-01  1.50000000E+00
  8.00000000E-01  8.00000000E-01  1.50000000E+00  8.00000000E-01  8.00000000E-01
  1.50000000E+00  8.00000000E-01  8.00000000E-01  1.50000000E+00  8.00000000E-01
  8.00000000E-01  1.50000000E+00  8.00000000E-01  8.00000000E-01  1.50000000E+00
  8.00000000E-01  8.00000000E-01  1.50000000E+00  8.00000000E-01  8.00000000E-01
  1.50000000E+00  8.00000000E-01  8.00000000E-01  1.50000000E+00  8.00000000E-01
  8.00000000E-01  1.50000000E+00  8.00000000E-01  8.00000000E-01  1.50000000E+00
  8.00000000E-01  8.00000000E-01  1.50000000E+00  8.00000000E-01  8.00000000E-01
  1.50000000E+00  8.00000000E-01  8.00000000E-01  1.50000000E+00  8.00000000E-01
  8.00000000E-01  1.50000000E+00  8.00000000E-01  8.00000000E-01  1.50000000E+00
  8.00000000E-01  8.00000000E-01  1.50000000E+00  8.00000000E-01  8.00000000E-01
  1.50000000E+00  8.00000000E-01  8.00000000E-01  1.50000000E+00  8.00000000E-01
  8.00000000E-01  1.50000000E+00  8.00000000E-01  8.00000000E-01  1.50000000E+00
  8.00000000E-01  8.00000000E-01  1.50000000E+00  8.00000000E-01  8.00000000E-01
  1.50000000E+00  8.00000000E-01  8.00000000E-01  1.50000000E+00  8.00000000E-01
  8.00000000E-01  1.50000000E+00  8.00000000E-01  8.00000000E-01  1.50000000E+00
  8.00000000E-01  8.00000000E-01  1.50000000E+00  8.00000000E-01  8.00000000E-01
  1.50000000E+00  8.00000000E-01  8.00000000E-01  1.50000000E+00  8.00000000E-01
  8.00000000E-01  1.50000000E+00  8.00000000E-01  8.00000000E-01  1.50000000E+00
  8.00000000E-01  8.00000000E-01  1.50000000E+00  8.00000000E-01  8.00000000E-01
  1.50000000E+00  8.00000000E-01  8.00000000E-01  1.50000000E+00  8.00000000E-01
  8.00000000E-01  1.50000000E+00  8.00000000E-01  8.00000000E-01  1.50000000E+00
  8.00000000E-01  8.00000000E-01  1.50000000E+00  8.00000000E-01  8.00000000E-01
  1.50000000E+00  8.00000000E-01  8.00000000E-01  1.50000000E+00  8.00000000E-01
  8.00000000E-01  1.50000000E+00  8.00000000E-01  8.00000000E-01  1.50000000E+00
  8.00000000E-01  8.00000000E-01  1.50000000E+00  8.00000000E-01  8.00000000E-01
  1.50000000E+00  8.00000000E-01  8.00000000E-01  1.50000000E+00  8.00000000E-01
  8.00000000E-01  1.50000000E+00  8.00000000E-01  8.00000000E-01  1.50000000E+00
  8.00000000E-01  8.00000000E-01  1.50000000E+00  8.00000000E-01  8.00000000E-01
  1.50000000E+00  8.00000000E-01  8.00000000E-01  1.50000000E+00  8.00000000E-01
  8.00000000E-01  1.50000000E+00  8.00000000E-01  8.00000000E-01  1.50000000E+00
  8.00000000E-01  8.00000000E-01  1.50000000E+00  8.00000000E-01  8.00000000E-01
  1.50000000E+00  8.00000000E-01  8.00000000E-01  1.50000000E+00  8.00000000E-01
  8.00000000E-01  1.50000000E+00  8.00000000E-01  8.00000000E-01  1.50000000E+00
  8.00000000E-01  8.00000000E-01  1.50000000E+00  8.00000000E-01  8.00000000E-01
  1.50000000E+00  8.00000000E-01  8.00000000E-01  1.50000000E+00  8.00000000E-01
  8.00000000E-01  1.50000000E+00  8.00000000E-01  8.00000000E-01  1.50000000E+00
  8.00000000E-01  8.00000000E-01  1.50000000E+00  8.00000000E-01  8.00000000E-01
  1.50000000E+00  8.00000000E-01  8.00000000E-01  1.50000000E+00  8.00000000E-01
  8.00000000E-01  1.50000000E+00  8.00000000E-01  8.00000000E-01  1.50000000E+00
  8.00000000E-01  8.00000000E-01  1.50000000E+00  8.00000000E-01  8.00000000E-01
  1.50000000E+00  8.00000000E-01  8.00000000E-01  1.50000000E+00  8.00000000E-01
  8.00000000E-01  1.50000000E+00  8.00000000E-01  8.00000000E-01  1.50000000E+00
  8.00000000E-01  8.00000000E-01  1.50000000E+00  8.00000000E-01  8.00000000E-01
  1.50000000E+00  8.00000000E-01  8.00000000E-01  1.50000000E+00  8.00000000E-01
  8.00000000E-01  1.50000000E+00  8.00000000E-01  8.00000000E-01  1.50000000E+00
  8.00000000E-01  8.00000000E-01  1.50000000E+00  8.00000000E-01  8.00000000E-01
  1.50000000E+00  8.00000000E-01  8.00000000E-01  1.50000000E+00  8.00000000E-01
  8.00000000E-01  1.50000000E+00  8.00000000E-01  8.00000000E-01  1.50000000E+00
  8.00000000E-01  8.00000000E-01  1.50000000E+00  8.00000000E-01  8.00000000E-01
  1.50000000E+00  8.00000000E-01  8.00000000E-01  1.50000000E+00  8.00000000E-01
  8.00000000E-01  1.50000000E+00  8.00000000E-01  8.00000000E-01  1.50000000E+00
  8.00000000E-01  8.00000000E-01  1.50000000E+00  8.00000000E-01  8.00000000E-01
  1.50000000E+00  8.00000000E-01  8.00000000E-01  1.50000000E+00  8.00000000E-01
  8.00000000E-01  1.50000000E+00  8.00000000E-01  8.00000000E-01  1.50000000E+00
  8.00000000E-01  8.00000000E-01  1.50000000E+00  8.00000000E-01  8.00000000E-01
  1.50000000E+00  8.00000000E-01  8.00000000E-01  1.50000000E+00  8.00000000E-01
  8.00000000E-01  1.50000000E+00  8.00000000E-01  8.00000000E-01  1.50000000E+00
  8.00000000E-01  8.00000000E-01  1.50000000E+00  8.00000000E-01  8.00000000E-01
  1.50000000E+00  8.00000000E-01  8.00000000E-01  1.50000000E+00  8.00000000E-01
  8.00000000E-01  1.50000000E+00  8.00000000E-01  8.00000000E-01  1.50000000E+00
  8.00000000E-01  8.00000000E-01  1.50000000E+00  8.00000000E-01  8.00000000E-01
  1.50000000E+00  8.00000000E-01  8.00000000E-01  1.50000000E+00  8.00000000E-01
  8.00000000E-01  1.50000000E+00  8.00000000E-01  8.00000000E-01  1.50000000E+00
  8.00000000E-01  8.00000000E-01  1.50000000E+00  8.00000000E-01  8.00000000E-01
  1.50000000E+00  8.00000000E-01  8.00000000E-01  1.50000000E+00  8.00000000E-01
  8.00000000E-01  1.50000000E+00  8.00000000E-01  8.00000000E-01  1.50000000E+00
  8.00000000E-01  8.00000000E-01  1.50000000E+00  8.00000000E-01  8.00000000E-01
  1.50000000E+00  8.00000000E-01  8.00000000E-01  1.50000000E+00  8.00000000E-01
  8.00000000E-01  1.50000000E+00  8.00000000E-01  8.00000000E-01  1.50000000E+00
  8.00000000E-01  8.00000000E-01  1.50000000E+00  8.00000000E-01  8.00000000E-01
  1.50000000E+00  8.00000000E-01  8.00000000E-01  1.50000000E+00  8.00000000E-01
  8.00000000E-01  1.50000000E+00  8.00000000E-01  8.00000000E-01  1.50000000E+00
  8.00000000E-01  8.00000000E-01  1.50000000E+00  8.00000000E-01  8.00000000E-01
  1.50000000E+00  8.00000000E-01  8.00000000E-01  1.50000000E+00  8.00000000E-01
  8.00000000E-01  1.50000000E+00  8.00000000E-01  8.00000000E-01  1.50000000E+00
  8.00000000E-01  8.00000000E-01  1.50000000E+00  8.00000000E-01  8.00000000E-01
  1.50000000E+00  8.00000000E-01  8.00000000E-01  1.50000000E+00  8.00000000E-01
  8.00000000E-01  1.50000000E+00  8.00000000E-01  8.00000000E-01  1.50000000E+00
  8.00000000E-01  8.00000000E-01  1.50000000E+00  8.00000000E-01  8.00000000E-01
  1.50000000E+00  8.00000000E-01  8.00000000E-01  1.50000000E+00  8.00000000E-01
  8.00000000E-01  1.50000000E+00  8.00000000E-01  8.00000000E-01  1.50000000E+00
  8.00000000E-01  8.00000000E-01  1.50000000E+00  8.00000000E-01  8.00000000E-01
  1.50000000E+00  8.00000000E-01  8.00000000E-01  1.50000000E+00  8.00000000E-01
  8.00000000E-01  1.50000000E+00  8.00000000E-01  8.00000000E-01  1.50000000E+00
  8.00000000E-01  8.00000000E-01  1.50000000E+00  8.00000000E-01  8.00000000E-01
  1.50000000E+00  8.00000000E-01  8.00000000E-01  1.50000000E+00  8.00000000E-01
  8.00000000E-01  1.50000000E+00  8.00000000E-01  8.00000000E-01  1.50000000E+00
  8.00000000E-01  8.00000000E-01  1.50000000E+00  8.00000000E-01  8.00000000E-01
  1.50000000E+00  8.00000000E-01  8.00000000E-01  1.50000000E+00  8.00000000E-01
  8.00000000E-01  1.50000000E+00  8.00000000E-01  8.00000000E-01  1.50000000E+00
  8.00000000E-01  8.00000000E-01  1.50000000E+00  8.00000000E-01  8.00000000E-01
  1.50000000E+00  8.00000000E-01  8.00000000E-01  1.50000000E+00  8.00000000E-01
  8.00000000E-01  1.50000000E+00  8.00000000E-01  8.00000000E-01  1.50000000E+00
  8.00000000E-01  8.00000000E-01  1.50000000E+00  8.00000000E-01  8.00000000E-01
  1.50000000E+00  8.00000000E-01  8.00000000E-01  1.50000000E+00  8.00000000E-01
  8.00000000E-01  1.50000000E+00  8.00000000E-01  8.00000000E-01  1.50000000E+00
  8.00000000E-01  8.00000000E-01  1.50000000E+00  8.00000000E-01  8.00000000E-01
  1.50000000E+00  8.00000000E-01  8.00000000E-01  1.50000000E+00  8.00000000E-01
  8.00000000E-01  1.50000000E+00  8.00000000E-01  8.00000000E-01  1.50000000E+00
  8.00000000E-01  8.00000000E-01  1.50000000E+00  8.00000000E-01  8.00000000E-01
  1.50000000E+00  8.00000000E-01  8.00000000E-01  1.50000000E+00  8.00000000E-01
  8.00000000E-01  1.50000000E+00  8.00000000E-01  8.00000000E-01  1.50000000E+00
  8.00000000E-01  8.00000000E-01  1.50000000E+00  8.00000000E-01  8.00000000E-01
  1.50000000E+00  8.00000000E-01  8.00000000E-01  1.50000000E+00  8.00000000E-01
  8.00000000E-01  1.50000000E+00  8.00000000E-01  8.00000000E-01  1.50000000E+00
  8.00000000E-01  8.00000000E-01  1.50000000E+00  8.00000000E-01  8.00000000E-01
  1.50000000E+00  8.00000000E-01  8.00000000E-01  1.50000000E+00  8.00000000E-01
  8.00000000E-01  1.50000000E+00  8.00000000E-01  8.00000000E-01  1.50000000E+00
  8.00000000E-01  8.00000000E-01  1.50000000E+00  8.00000000E-01  8.00000000E-01
  1.50000000E+00  8.00000000E-01  8.00000000E-01  1.50000000E+00  8.00000000E-01
  8.00000000E-01  1.50000000E+00  8.00000000E-01  8.00000000E-01  1.50000000E+00
  8.00000000E-01  8.00000000E-01  1.50000000E+00  8.00000000E-01  8.00000000E-01
  1.50000000E+00  8.00000000E-01  8.00000000E-01  1.50000000E+00  8.00000000E-01
  8.00000000E-01  1.50000000E+00  8.00000000E-01  8.00000000E-01  1.50000000E+00
  8.00000000E-01  8.00000000E-01  1.50000000E+00  8.00000000E-01  8.00000000E-01
  1.50000000E+00  8.00000000E-01  8.00000000E-01  1.50000000E+00  8.00000000E-01
  8.00000000E-01  1.50000000E+00  8.00000000E-01  8.00000000E-01  1.50000000E+00
  8.00000000E-01  8.00000000E-01  1.50000000E+00  8.00000000E-01  8.00000000E-01
  1.50000000E+00  8.00000000E-01  8.00000000E-01  1.50000000E+00  8.00000000E-01
  8.00000000E-01  1.50000000E+00  8.00000000E-01  8.00000000E-01  1.50000000E+00
  8.00000000E-01  8.00000000E-01  1.50000000E+00  8.00000000E-01  8.00000000E-01
  1.50000000E+00  8.00000000E-01  8.00000000E-01  1.50000000E+00  8.00000000E-01
  8.00000000E-01  1.50000000E+00  8.00000000E-01  8.00000000E-01  1.50000000E+00
  8.00000000E-01  8.00000000E-01  1.50000000E+00  8.00000000E-01  8.00000000E-01
  1.50000000E+00  8.00000000E-01  8.00000000E-01  1.50000000E+00  8.00000000E-01
  8.00000000E-01  1.50000000E+00  8.00000000E-01  8.00000000E-01  1.50000000E+00
  8.00000000E-01  8.00000000E-01  1.50000000E+00  8.00000000E-01  8.00000000E-01
  1.50000000E+00  8.00000000E-01  8.00000000E-01  1.50000000E+00  8.00000000E-01
  8.00000000E-01  1.50000000E+00  8.00000000E-01  8.00000000E-01  1.50000000E+00
  8.00000000E-01  8.00000000E-01  1.50000000E+00  8.00000000E-01  8.00000000E-01
  1.50000000E+00  8.00000000E-01  8.00000000E-01  1.50000000E+00  8.00000000E-01
  8.00000000E-01  1.50000000E+00  8.00000000E-01  8.00000000E-01  1.50000000E+00
  8.00000000E-01  8.00000000E-01  1.50000000E+00  8.00000000E-01  8.00000000E-01
  1.50000000E+00  8.00000000E-01  8.00000000E-01  1.50000000E+00  8.00000000E-01
  8.00000000E-01  1.50000000E+00  8.00000000E-01  8.00000000E-01  1.50000000E+00
  8.00000000E-01  8.00000000E-01  1.50000000E+00  8.00000000E-01  8.00000000E-01
  1.50000000E+00  8.00000000E-01  8.00000000E-01  1.50000000E+00  8.00000000E-01
  8.00000000E-01  1.50000000E+00  8.00000000E-01  8.00000000E-01  1.50000000E+00
  8.00000000E-01  8.00000000E-01  1.50000000E+00  8.00000000E-01  8.00000000E-01
  1.50000000E+00  8.00000000E-01  8.00000000E-01  1.50000000E+00  8.00000000E-01
  8.00000000E-01  1.50000000E+00  8.00000000E-01  8.00000000E-01  1.50000000E+00
  8.00000000E-01  8.00000000E-01  1.50000000E+00  8.00000000E-01  8.00000000E-01
  1.50000000E+00  8.00000000E-01  8.00000000E-01  1.50000000E+00  8.00000000E-01
  8.00000000E-01  1.50000000E+00  8.00000000E-01  8.00000000E-01  1.50000000E+00
  8.00000000E-01  8.00000000E-01  1.50000000E+00  8.00000000E-01  8.00000000E-01
  1.50000000E+00  8.00000000E-01  8.00000000E-01  1.50000000E+00  8.00000000E-01
  8.00000000E-01  1.50000000E+00  8.00000000E-01  8.00000000E-01  1.50000000E+00
  8.00000000E-01  8.00000000E-01  1.50000000E+00  8.00000000E-01  8.00000000E-01
  1.50000000E+00  8.00000000E-01  8.00000000E-01  1.50000000E+00  8.00000000E-01
  8.00000000E-01  1.50000000E+00  8.00000000E-01  8.00000000E-01  1.50000000E+00
  8.00000000E-01  8.00000000E-01  1.50000000E+00  8.00000000E-01  8.00000000E-01
  1.50000000E+00  8.00000000E-01  8.00000000E-01  1.50000000E+00  8.00000000E-01
  8.00000000E-01  1.50000000E+00  8.00000000E-01  8.00000000E-01  1.50000000E+00
  8.00000000E-01  8.00000000E-01  1.50000000E+00  8.00000000E-01  8.00000000E-01
  1.50000000E+00  8.00000000E-01  8.00000000E-01  1.50000000E+00  8.00000000E-01
  8.00000000E-01  1.50000000E+00  8.00000000E-01  8.00000000E-01  1.50000000E+00
  8.00000000E-01  8.00000000E-01  1.50000000E+00  8.00000000E-01  8.00000000E-01
  1.50000000E+00  8.00000000E-01  8.00000000E-01  1.50000000E+00  8.00000000E-01
  8.00000000E-01  1.50000000E+00  8.00000000E-01  8.00000000E-01  1.50000000E+00
  8.00000000E-01  8.00000000E-01  1.50000000E+00  8.00000000E-01  8.00000000E-01
  1.50000000E+00  8.00000000E-01  8.00000000E-01  1.50000000E+00  8.00000000E-01
  8.00000000E-01  1.50000000E+00  8.00000000E-01  8.00000000E-01  1.50000000E+00
  8.00000000E-01  8.00000000E-01  1.50000000E+00  8.00000000E-01  8.00000000E-01
  1.50000000E+00  8.00000000E-01  8.00000000E-01  1.50000000E+00  8.00000000E-01
  8.00000000E-01  1.50000000E+00  8.00000000E-01  8.00000000E-01  1.50000000E+00
  8.00000000E-01  8.00000000E-01  1.50000000E+00  8.00000000E-01  8.00000000E-01
  1.50000000E+00  8.00000000E-01  8.00000000E-01  1.50000000E+00  8.00000000E-01
  8.00000000E-01  1.50000000E+00  8.00000000E-01  8.00000000E-01  1.50000000E+00
  8.00000000E-01  8.00000000E-01  1.50000000E+00  8.00000000E-01  8.00000000E-01
  1.50000000E+00  8.00000000E-01  8.00000000E-01  1.50000000E+00  8.00000000E-01
  8.00000000E-01  1.50000000E+00  8.00000000E-01  8.00000000E-01  1.50000000E+00
  8.00000000E-01  8.00000000E-01  1.50000000E+00  8.00000000E-01  8.00000000E-01
  1.50000000E+00  8.00000000E-01  8.00000000E-01  1.50000000E+00  8.00000000E-01
  8.00000000E-01  1.50000000E+00  8.00000000E-01  8.00000000E-01  1.50000000E+00
  8.00000000E-01  8.00000000E-01  1.50000000E+00  8.00000000E-01  8.00000000E-01
  1.50000000E+00  8.00000000E-01  8.00000000E-01  1.50000000E+00  8.00000000E-01
  8.00000000E-01  1.50000000E+00  8.00000000E-01  8.00000000E-01  1.50000000E+00
  8.00000000E-01  8.00000000E-01  1.50000000E+00  8.00000000E-01  8.00000000E-01
  1.50000000E+00  8.00000000E-01  8.00000000E-01  1.50000000E+00  8.00000000E-01
  8.00000000E-01  1.50000000E+00  8.00000000E-01  8.00000000E-01  1.50000000E+00
  8.00000000E-01  8.00000000E-01  1.50000000E+00  8.00000000E-01  8.00000000E-01
  1.50000000E+00  8.00000000E-01  8.00000000E-01  1.50000000E+00  8.00000000E-01
  8.00000000E-01  1.50000000E+00  8.00000000E-01  8.00000000E-01  1.50000000E+00
  8.00000000E-01  8.00000000E-01  1.50000000E+00  8.00000000E-01  8.00000000E-01
  1.50000000E+00  8.00000000E-01  8.00000000E-01  1.50000000E+00  8.00000000E-01
  8.00000000E-01  1.50000000E+00  8.00000000E-01  8.00000000E-01  1.50000000E+00
  8.00000000E-01  8.00000000E-01  1.50000000E+00  8.00000000E-01  8.00000000E-01
  1.50000000E+00  8.00000000E-01  8.00000000E-01  1.50000000E+00  8.00000000E-01
  8.00000000E-01  1.50000000E+00  8.00000000E-01  8.00000000E-01  1.50000000E+00
  8.00000000E-01  8.00000000E-01  1.50000000E+00  8.00000000E-01  8.00000000E-01
  1.50000000E+00  8.00000000E-01  8.00000000E-01  1.50000000E+00  8.00000000E-01
  8.00000000E-01  1.50000000E+00  8.00000000E-01  8.00000000E-01  1.50000000E+00
  8.00000000E-01  8.00000000E-01  1.50000000E+00  8.00000000E-01  8.00000000E-01
  1.50000000E+00  8.00000000E-01  8.00000000E-01  1.50000000E+00  8.00000000E-01
  8.00000000E-01  1.50000000E+00  8.00000000E-01  8.00000000E-01  1.50000000E+00
  8.00000000E-01  8.00000000E-01  1.50000000E+00  8.00000000E-01  8.00000000E-01
  1.50000000E+00  8.00000000E-01  8.00000000E-01  1.50000000E+00  8.00000000E-01
  8.00000000E-01  1.50000000E+00  8.00000000E-01  8.00000000E-01  1.50000000E+00
  8.00000000E-01  8.00000000E-01  1.50000000E+00  8.00000000E-01  8.00000000E-01
  1.50000000E+00  8.00000000E-01  8.00000000E-01  1.50000000E+00  8.00000000E-01
  8.00000000E-01  1.50000000E+00  8.00000000E-01  8.00000000E-01  1.50000000E+00
  8.00000000E-01  8.00000000E-01  1.50000000E+00  8.00000000E-01  8.00000000E-01
  1.50000000E+00  8.00000000E-01  8.00000000E-01  1.50000000E+00  8.00000000E-01
  8.00000000E-01  1.50000000E+00  8.00000000E-01  8.00000000E-01  1.50000000E+00
  8.00000000E-01  8.00000000E-01  1.50000000E+00  8.00000000E-01  8.00000000E-01
  1.50000000E+00  8.00000000E-01  8.00000000E-01  1.50000000E+00  8.00000000E-01
  8.00000000E-01  1.50000000E+00  8.00000000E-01  8.00000000E-01  1.50000000E+00
  8.00000000E-01  8.00000000E-01  1.50000000E+00  8.00000000E-01  8.00000000E-01
  1.50000000E+00  8.00000000E-01  8.00000000E-01  1.50000000E+00  8.00000000E-01
  8.00000000E-01  1.50000000E+00  8.00000000E-01  8.00000000E-01  1.50000000E+00
  8.00000000E-01  8.00000000E-01  1.50000000E+00  8.00000000E-01  8.00000000E-01
  1.50000000E+00  8.00000000E-01  8.00000000E-01  1.50000000E+00  8.00000000E-01
  8.00000000E-01  1.50000000E+00  8.00000000E-01  8.00000000E-01  1.50000000E+00
  8.00000000E-01  8.00000000E-01  1.50000000E+00  8.00000000E-01  8.00000000E-01
  1.50000000E+00  8.00000000E-01  8.00000000E-01  1.50000000E+00  8.00000000E-01
  8.00000000E-01  1.50000000E+00  8.00000000E-01  8.00000000E-01  1.50000000E+00
  8.00000000E-01  8.00000000E-01  1.50000000E+00  8.00000000E-01  8.00000000E-01
  1.50000000E+00  8.00000000E-01  8.00000000E-01  1.50000000E+00  8.00000000E-01
  8.00000000E-01  1.50000000E+00  8.00000000E-01  8.00000000E-01  1.50000000E+00
  8.00000000E-01  8.00000000E-01  1.50000000E+00  8.00000000E-01  8.00000000E-01
  1.50000000E+00  8.00000000E-01  8.00000000E-01  1.50000000E+00  8.00000000E-01
  8.00000000E-01  1.50000000E+00  8.00000000E-01  8.00000000E-01  1.50000000E+00
  8.00000000E-01  8.00000000E-01  1.50000000E+00  8.00000000E-01  8.00000000E-01
  1.50000000E+00  8.00000000E-01  8.00000000E-01  1.50000000E+00  8.00000000E-01
  8.00000000E-01  1.50000000E+00  8.00000000E-01  8.00000000E-01  1.50000000E+00
  8.00000000E-01  8.00000000E-01  1.50000000E+00  8.00000000E-01  8.00000000E-01
  1.50000000E+00  8.00000000E-01  8.00000000E-01  1.50000000E+00  8.00000000E-01
  8.00000000E-01  1.50000000E+00  8.00000000E-01  8.00000000E-01  1.50000000E+00
  8.00000000E-01  8.00000000E-01  1.50000000E+00  8.00000000E-01  8.00000000E-01
  1.50000000E+00  8.00000000E-01  8.00000000E-01  1.50000000E+00  8.00000000E-01
  8.00000000E-01  1.50000000E+00  8.00000000E-01  8.00000000E-01  1.50000000E+00
  8.00000000E-01  8.00000000E-01  1.50000000E+00  8.00000000E-01  8.00000000E-01
  1.50000000E+00  8.00000000E-01  8.00000000E-01  1.50000000E+00  8.00000000E-01
  8.00000000E-01  1.50000000E+00  8.00000000E-01  8.00000000E-01  1.50000000E+00
  8.00000000E-01  8.00000000E-01  1.50000000E+00  8.00000000E-01  8.00000000E-01
  1.50000000E+00  8.00000000E-01  8.00000000E-01  1.50000000E+00  8.00000000E-01
  8.00000000E-01  1.50000000E+00  8.00000000E-01  8.00000000E-01  1.50000000E+00
  8.00000000E-01  8.00000000E-01  1.50000000E+00  8.00000000E-01  8.00000000E-01
  1.50000000E+00  8.00000000E-01  8.00000000E-01  1.50000000E+00  8.00000000E-01
  8.00000000E-01  1.50000000E+00  8.00000000E-01  8.00000000E-01  1.50000000E+00
  8.00000000E-01  8.00000000E-01  1.50000000E+00  8.00000000E-01  8.00000000E-01
  1.50000000E+00  8.00000000E-01  8.00000000E-01  1.50000000E+00  8.00000000E-01
  8.00000000E-01  1.50000000E+00  8.00000000E-01  8.00000000E-01  1.50000000E+00
  8.00000000E-01  8.00000000E-01  1.50000000E+00  8.00000000E-01  8.00000000E-01
  1.50000000E+00  8.00000000E-01  8.00000000E-01  1.50000000E+00  8.00000000E-01
  8.00000000E-01  1.50000000E+00  8.00000000E-01  8.00000000E-01  1.50000000E+00
  8.00000000E-01  8.00000000E-01  1.50000000E+00  8.00000000E-01  8.00000000E-01
  1.50000000E+00  8.00000000E-01  8.00000000E-01  1.50000000E+00  8.00000000E-01
  8.00000000E-01  1.50000000E+00  8.00000000E-01  8.00000000E-01  1.50000000E+00
  8.00000000E-01  8.00000000E-01  1.50000000E+00  8.00000000E-01  8.00000000E-01
  1.50000000E+00  8.00000000E-01  8.00000000E-01  1.50000000E+00  8.00000000E-01
  8.00000000E-01  1.50000000E+00  8.00000000E-01  8.00000000E-01  1.50000000E+00
  8.00000000E-01  8.00000000E-01  1.50000000E+00  8.00000000E-01  8.00000000E-01
  1.50000000E+00  8.00000000E-01  8.00000000E-01  1.50000000E+00  8.00000000E-01
  8.00000000E-01  1.50000000E+00  8.00000000E-01  8.00000000E-01  1.50000000E+00
  8.00000000E-01  8.00000000E-01  1.50000000E+00  8.00000000E-01  8.00000000E-01
  1.50000000E+00  8.00000000E-01  8.00000000E-01  1.50000000E+00  8.00000000E-01
  8.00000000E-01  1.50000000E+00  8.00000000E-01  8.00000000E-01  1.50000000E+00
  8.00000000E-01  8.00000000E-01  1.50000000E+00  8.00000000E-01  8.00000000E-01
  1.50000000E+00  8.00000000E-01  8.00000000E-01  1.50000000E+00  8.00000000E-01
  8.00000000E-01  1.50000000E+00  8.00000000E-01  8.00000000E-01  1.50000000E+00
  8.00000000E-01  8.00000000E-01  1.50000000E+00  8.00000000E-01  8.00000000E-01
  1.50000000E+00  8.00000000E-01  8.00000000E-01  1.50000000E+00  8.00000000E-01
  8.00000000E-01  1.50000000E+00  8.00000000E-01  8.00000000E-01  1.50000000E+00
  8.00000000E-01  8.00000000E-01  1.50000000E+00  8.00000000E-01  8.00000000E-01
  1.50000000E+00  8.00000000E-01  8.00000000E-01  1.50000000E+00  8.00000000E-01
  8.00000000E-01  1.50000000E+00  8.00000000E-01  8.00000000E-01  1.50000000E+00
  8.00000000E-01  8.00000000E-01  1.50000000E+00  8.00000000E-01  8.00000000E-01
  1.50000000E+00  8.00000000E-01  8.00000000E-01  1.50000000E+00  8.00000000E-01
  8.00000000E-01  1.50000000E+00  8.00000000E-01  8.00000000E-01  1.50000000E+00
  8.00000000E-01  8.00000000E-01  1.50000000E+00  8.00000000E-01  8.00000000E-01
  1.50000000E+00  8.00000000E-01  8.00000000E-01  1.50000000E+00  8.00000000E-01
  8.00000000E-01  1.50000000E+00  8.00000000E-01  8.00000000E-01  1.50000000E+00
  8.00000000E-01  8.00000000E-01  1.50000000E+00  8.00000000E-01  8.00000000E-01
  1.50000000E+00  8.00000000E-01  8.00000000E-01  1.50000000E+00  8.00000000E-01
  8.00000000E-01  1.50000000E+00  8.00000000E-01  8.00000000E-01  1.50000000E+00
  8.00000000E-01  8.00000000E-01  1.50000000E+00  8.00000000E-01  8.00000000E-01
  1.50000000E+00  8.00000000E-01  8.00000000E-01  1.50000000E+00  8.00000000E-01
  8.00000000E-01  1.50000000E+00  8.00000000E-01  8.00000000E-01  1.50000000E+00
  8.00000000E-01  8.00000000E-01  1.50000000E+00  8.00000000E-01  8.00000000E-01
  1.50000000E+00  8.00000000E-01  8.00000000E-01  1.50000000E+00  8.00000000E-01
  8.00000000E-01  1.50000000E+00  8.00000000E-01  8.00000000E-01  1.50000000E+00
  8.00000000E-01  8.00000000E-01  1.50000000E+00  8.00000000E-01  8.00000000E-01
  1.50000000E+00  8.00000000E-01  8.00000000E-01  1.50000000E+00  8.00000000E-01
  8.00000000E-01  1.50000000E+00  8.00000000E-01  8.00000000E-01  1.50000000E+00
  8.00000000E-01  8.00000000E-01  1.50000000E+00  8.00000000E-01  8.00000000E-01
  1.50000000E+00  8.00000000E-01  8.00000000E-01  1.50000000E+00  8.00000000E-01
  8.00000000E-01  1.50000000E+00  8.00000000E-01  8.00000000E-01  1.50000000E+00
  8.00000000E-01  8.00000000E-01  1.50000000E+00  8.00000000E-01  8.00000000E-01
  1.50000000E+00  8.00000000E-01  8.00000000E-01  1.50000000E+00  8.00000000E-01
  8.00000000E-01  1.50000000E+00  8.00000000E-01  8.00000000E-01  1.50000000E+00
  8.00000000E-01  8.00000000E-01  1.50000000E+00  8.00000000E-01  8.00000000E-01
  1.50000000E+00  8.00000000E-01  8.00000000E-01  1.50000000E+00  8.00000000E-01
  8.00000000E-01  1.50000000E+00  8.00000000E-01  8.00000000E-01  1.50000000E+00
  8.00000000E-01  8.00000000E-01  1.50000000E+00  8.00000000E-01  8.00000000E-01
  1.50000000E+00  8.00000000E-01  8.00000000E-01  1.50000000E+00  8.00000000E-01
  8.00000000E-01  1.50000000E+00  8.00000000E-01  8.00000000E-01  1.50000000E+00
  8.00000000E-01  8.00000000E-01  1.50000000E+00  8.00000000E-01  8.00000000E-01
  1.50000000E+00  8.00000000E-01  8.00000000E-01  1.50000000E+00  8.00000000E-01
  8.00000000E-01  1.50000000E+00  8.00000000E-01  8.00000000E-01  1.50000000E+00
  8.00000000E-01  8.00000000E-01  1.50000000E+00  8.00000000E-01  8.00000000E-01
  1.50000000E+00  8.00000000E-01  8.00000000E-01  1.50000000E+00  8.00000000E-01
  8.00000000E-01  1.50000000E+00  8.00000000E-01  8.00000000E-01  1.50000000E+00
  8.00000000E-01  8.00000000E-01  1.50000000E+00  8.00000000E-01  8.00000000E-01
  1.50000000E+00  8.00000000E-01  8.00000000E-01  1.50000000E+00  8.00000000E-01
  8.00000000E-01  1.50000000E+00  8.00000000E-01  8.00000000E-01  1.50000000E+00
  8.00000000E-01  8.00000000E-01  1.50000000E+00  8.00000000E-01  8.00000000E-01
  1.50000000E+00  8.00000000E-01  8.00000000E-01  1.50000000E+00  8.00000000E-01
  8.00000000E-01  1.50000000E+00  8.00000000E-01  8.00000000E-01  1.50000000E+00
  8.00000000E-01  8.00000000E-01  1.50000000E+00  8.00000000E-01  8.00000000E-01
  1.50000000E+00  8.00000000E-01  8.00000000E-01  1.50000000E+00  8.00000000E-01
  8.00000000E-01  1.50000000E+00  8.00000000E-01  8.00000000E-01  1.50000000E+00
  8.00000000E-01  8.00000000E-01  1.50000000E+00  8.00000000E-01  8.00000000E-01
  1.50000000E+00  8.00000000E-01  8.00000000E-01  1.50000000E+00  8.00000000E-01
  8.00000000E-01  1.50000000E+00  8.00000000E-01  8.00000000E-01  1.50000000E+00
  8.00000000E-01  8.00000000E-01  1.50000000E+00  8.00000000E-01  8.00000000E-01
  1.50000000E+00  8.00000000E-01  8.00000000E-01  1.50000000E+00  8.00000000E-01
  8.00000000E-01  1.50000000E+00  8.00000000E-01  8.00000000E-01  1.50000000E+00
  8.00000000E-01  8.00000000E-01  1.50000000E+00  8.00000000E-01  8.00000000E-01
  1.50000000E+00  8.00000000E-01  8.00000000E-01  1.50000000E+00  8.00000000E-01
  8.00000000E-01  1.50000000E+00  8.00000000E-01  8.00000000E-01  1.50000000E+00
  8.00000000E-01  8.00000000E-01  1.50000000E+00  8.00000000E-01  8.00000000E-01
  1.50000000E+00  8.00000000E-01  8.00000000E-01  1.50000000E+00  8.00000000E-01
  8.00000000E-01  1.50000000E+00  8.00000000E-01  8.00000000E-01  1.50000000E+00
  8.00000000E-01  8.00000000E-01  1.50000000E+00  8.00000000E-01  8.00000000E-01
  1.50000000E+00  8.00000000E-01  8.00000000E-01  1.50000000E+00  8.00000000E-01
  8.00000000E-01  1.50000000E+00  8.00000000E-01  8.00000000E-01  1.50000000E+00
  8.00000000E-01  8.00000000E-01  1.50000000E+00  8.00000000E-01  8.00000000E-01
  1.50000000E+00  8.00000000E-01  8.00000000E-01  1.50000000E+00  8.00000000E-01
  8.00000000E-01  1.50000000E+00  8.00000000E-01  8.00000000E-01  1.50000000E+00
  8.00000000E-01  8.00000000E-01  1.50000000E+00  8.00000000E-01  8.00000000E-01
  1.50000000E+00  8.00000000E-01  8.00000000E-01  1.50000000E+00  8.00000000E-01
  8.00000000E-01  1.50000000E+00  8.00000000E-01  8.00000000E-01  1.50000000E+00
  8.00000000E-01  8.00000000E-01  1.50000000E+00  8.00000000E-01  8.00000000E-01
  1.50000000E+00  8.00000000E-01  8.00000000E-01  1.50000000E+00  8.00000000E-01
  8.00000000E-01  1.50000000E+00  8.00000000E-01  8.00000000E-01  1.50000000E+00
  8.00000000E-01  8.00000000E-01  1.50000000E+00  8.00000000E-01  8.00000000E-01
  1.50000000E+00  8.00000000E-01  8.00000000E-01  1.50000000E+00  8.00000000E-01
  8.00000000E-01  1.50000000E+00  8.00000000E-01  8.00000000E-01  1.50000000E+00
  8.00000000E-01  8.00000000E-01  1.50000000E+00  8.00000000E-01  8.00000000E-01
  1.50000000E+00  8.00000000E-01  8.00000000E-01  1.50000000E+00  8.00000000E-01
  8.00000000E-01  1.50000000E+00  8.00000000E-01  8.00000000E-01  1.50000000E+00
  8.00000000E-01  8.00000000E-01  1.50000000E+00  8.00000000E-01  8.00000000E-01
  1.50000000E+00  8.00000000E-01  8.00000000E-01  1.50000000E+00  8.00000000E-01
  8.00000000E-01  1.50000000E+00  8.00000000E-01  8.00000000E-01  1.50000000E+00
  8.00000000E-01  8.00000000E-01  1.50000000E+00  8.00000000E-01  8.00000000E-01
  1.50000000E+00  8.00000000E-01  8.00000000E-01  1.50000000E+00  8.00000000E-01
  8.00000000E-01  1.50000000E+00  8.00000000E-01  8.00000000E-01  1.50000000E+00
  8.00000000E-01  8.00000000E-01  1.50000000E+00  8.00000000E-01  8.00000000E-01
  1.50000000E+00  8.00000000E-01  8.00000000E-01  1.50000000E+00  8.00000000E-01
  8.00000000E-01  1.50000000E+00  8.00000000E-01  8.00000000E-01  1.50000000E+00
  8.00000000E-01  8.00000000E-01  1.50000000E+00  8.00000000E-01  8.00000000E-01
  1.50000000E+00  8.00000000E-01  8.00000000E-01  1.50000000E+00  8.00000000E-01
  8.00000000E-01  1.50000000E+00  8.00000000E-01  8.00000000E-01  1.50000000E+00
  8.00000000E-01  8.00000000E-01  1.50000000E+00  8.00000000E-01  8.00000000E-01
  1.50000000E+00  8.00000000E-01  8.00000000E-01  1.50000000E+00  8.00000000E-01
  8.00000000E-01  1.50000000E+00  8.00000000E-01  8.00000000E-01  1.50000000E+00
  8.00000000E-01  8.00000000E-01  1.50000000E+00  8.00000000E-01  8.00000000E-01
  1.50000000E+00  8.00000000E-01  8.00000000E-01  1.50000000E+00  8.00000000E-01
  8.00000000E-01  1.50000000E+00  8.00000000E-01  8.00000000E-01  1.50000000E+00
  8.00000000E-01  8.00000000E-01  1.50000000E+00  8.00000000E-01  8.00000000E-01
  1.50000000E+00  8.00000000E-01  8.00000000E-01  1.50000000E+00  8.00000000E-01
  8.00000000E-01  1.50000000E+00  8.00000000E-01  8.00000000E-01  1.50000000E+00
  8.00000000E-01  8.00000000E-01  1.50000000E+00  8.00000000E-01  8.00000000E-01
  1.50000000E+00  8.00000000E-01  8.00000000E-01  1.50000000E+00  8.00000000E-01
  8.00000000E-01  1.50000000E+00  8.00000000E-01  8.00000000E-01  1.50000000E+00
  8.00000000E-01  8.00000000E-01  1.50000000E+00  8.00000000E-01  8.00000000E-01
  1.50000000E+00  8.00000000E-01  8.00000000E-01  1.50000000E+00  8.00000000E-01
  8.00000000E-01  1.50000000E+00  8.00000000E-01  8.00000000E-01  1.50000000E+00
  8.00000000E-01  8.00000000E-01  1.50000000E+00  8.00000000E-01  8.00000000E-01
  1.50000000E+00  8.00000000E-01  8.00000000E-01  1.50000000E+00  8.00000000E-01
  8.00000000E-01  1.50000000E+00  8.00000000E-01  8.00000000E-01  1.50000000E+00
  8.00000000E-01  8.00000000E-01  1.50000000E+00  8.00000000E-01  8.00000000E-01
  1.50000000E+00  8.00000000E-01  8.00000000E-01  1.50000000E+00  8.00000000E-01
  8.00000000E-01  1.50000000E+00  8.00000000E-01  8.00000000E-01  1.50000000E+00
  8.00000000E-01  8.00000000E-01  1.50000000E+00  8.00000000E-01  8.00000000E-01
  1.50000000E+00  8.00000000E-01  8.00000000E-01  1.50000000E+00  8.00000000E-01
  8.00000000E-01  1.50000000E+00  8.00000000E-01  8.00000000E-01  1.50000000E+00
  8.00000000E-01  8.00000000E-01  1.50000000E+00  8.00000000E-01  8.00000000E-01
  1.50000000E+00  8.00000000E-01  8.00000000E-01  1.50000000E+00  8.00000000E-01
  8.00000000E-01  1.50000000E+00  8.00000000E-01  8.00000000E-01  1.50000000E+00
  8.00000000E-01  8.00000000E-01  1.50000000E+00  8.00000000E-01  8.00000000E-01
  1.50000000E+00  8.00000000E-01  8.00000000E-01  1.50000000E+00  8.00000000E-01
  8.00000000E-01  1.50000000E+00  8.00000000E-01  8.00000000E-01  1.50000000E+00
  8.00000000E-01  8.00000000E-01  1.50000000E+00  8.00000000E-01  8.00000000E-01
  1.50000000E+00  8.00000000E-01  8.00000000E-01  1.50000000E+00  8.00000000E-01
  8.00000000E-01  1.50000000E+00  8.00000000E-01  8.00000000E-01  1.50000000E+00
  8.00000000E-01  8.00000000E-01  1.50000000E+00  8.00000000E-01  8.00000000E-01
  1.50000000E+00  8.00000000E-01  8.00000000E-01  1.50000000E+00  8.00000000E-01
  8.00000000E-01  1.50000000E+00  8.00000000E-01  8.00000000E-01  1.50000000E+00
  8.00000000E-01  8.00000000E-01  1.50000000E+00  8.00000000E-01  8.00000000E-01
  1.50000000E+00  8.00000000E-01  8.00000000E-01  1.50000000E+00  8.00000000E-01
  8.00000000E-01  1.50000000E+00  8.00000000E-01  8.00000000E-01  1.50000000E+00
  8.00000000E-01  8.00000000E-01  1.50000000E+00  8.00000000E-01  8.00000000E-01
  1.50000000E+00  8.00000000E-01  8.00000000E-01  1.50000000E+00  8.00000000E-01
  8.00000000E-01  1.50000000E+00  8.00000000E-01  8.00000000E-01  1.50000000E+00
  8.00000000E-01  8.00000000E-01  1.50000000E+00  8.00000000E-01  8.00000000E-01
  1.50000000E+00  8.00000000E-01  8.00000000E-01  1.50000000E+00  8.00000000E-01
  8.00000000E-01  1.50000000E+00  8.00000000E-01  8.00000000E-01  1.50000000E+00
  8.00000000E-01  8.00000000E-01  1.50000000E+00  8.00000000E-01  8.00000000E-01
  1.50000000E+00  8.00000000E-01  8.00000000E-01  1.50000000E+00  8.00000000E-01
  8.00000000E-01  1.50000000E+00  8.00000000E-01  8.00000000E-01  1.50000000E+00
  8.00000000E-01  8.00000000E-01  1.50000000E+00  8.00000000E-01  8.00000000E-01
  1.50000000E+00  8.00000000E-01  8.00000000E-01  1.50000000E+00  8.00000000E-01
  8.00000000E-01  1.50000000E+00  8.00000000E-01  8.00000000E-01  1.50000000E+00
  8.00000000E-01  8.00000000E-01  1.50000000E+00  8.00000000E-01  8.00000000E-01
  1.50000000E+00  8.00000000E-01  8.00000000E-01  1.50000000E+00  8.00000000E-01
  8.00000000E-01  1.50000000E+00  8.00000000E-01  8.00000000E-01  1.50000000E+00
  8.00000000E-01  8.00000000E-01  1.50000000E+00  8.00000000E-01  8.00000000E-01
  1.50000000E+00  8.00000000E-01  8.00000000E-01  1.50000000E+00  8.00000000E-01
  8.00000000E-01  1.50000000E+00  8.00000000E-01  8.00000000E-01  1.50000000E+00
  8.00000000E-01  8.00000000E-01  1.50000000E+00  8.00000000E-01  8.00000000E-01
  1.50000000E+00  8.00000000E-01  8.00000000E-01  1.50000000E+00  8.00000000E-01
  8.00000000E-01  1.50000000E+00  8.00000000E-01  8.00000000E-01  1.50000000E+00
  8.00000000E-01  8.00000000E-01  1.50000000E+00  8.00000000E-01  8.00000000E-01
  1.50000000E+00  8.00000000E-01  8.00000000E-01  1.50000000E+00  8.00000000E-01
  8.00000000E-01  1.50000000E+00  8.00000000E-01  8.00000000E-01  1.50000000E+00
  8.00000000E-01  8.00000000E-01  1.50000000E+00  8.00000000E-01  8.00000000E-01
  1.50000000E+00  8.00000000E-01  8.00000000E-01  1.50000000E+00  8.00000000E-01
  8.00000000E-01  1.50000000E+00  8.00000000E-01  8.00000000E-01  1.50000000E+00
  8.00000000E-01  8.00000000E-01  1.50000000E+00  8.00000000E-01  8.00000000E-01
  1.50000000E+00  8.00000000E-01  8.00000000E-01  1.50000000E+00  8.00000000E-01
  8.00000000E-01  1.50000000E+00  8.00000000E-01  8.00000000E-01  1.50000000E+00
  8.00000000E-01  8.00000000E-01  1.50000000E+00  8.00000000E-01  8.00000000E-01
  1.50000000E+00  8.00000000E-01  8.00000000E-01  1.50000000E+00  8.00000000E-01
  8.00000000E-01  1.50000000E+00  8.00000000E-01  8.00000000E-01  1.50000000E+00
  8.00000000E-01  8.00000000E-01  1.50000000E+00  8.00000000E-01  8.00000000E-01
  1.50000000E+00  8.00000000E-01  8.00000000E-01  1.50000000E+00  8.00000000E-01
  8.00000000E-01  1.50000000E+00  8.00000000E-01  8.00000000E-01  1.50000000E+00
  8.00000000E-01  8.00000000E-01  1.50000000E+00  8.00000000E-01  8.00000000E-01
  1.50000000E+00  8.00000000E-01  8.00000000E-01  1.50000000E+00  8.00000000E-01
  8.00000000E-01  1.50000000E+00  8.00000000E-01  8.00000000E-01  1.50000000E+00
  8.00000000E-01  8.00000000E-01  1.50000000E+00  8.00000000E-01  8.00000000E-01
  1.50000000E+00  8.00000000E-01  8.00000000E-01  1.50000000E+00  8.00000000E-01
  8.00000000E-01  1.50000000E+00  8.00000000E-01  8.00000000E-01  1.50000000E+00
  8.00000000E-01  8.00000000E-01  1.50000000E+00  8.00000000E-01  8.00000000E-01
  1.50000000E+00  8.00000000E-01  8.00000000E-01  1.50000000E+00  8.00000000E-01
  8.00000000E-01  1.50000000E+00  8.00000000E-01  8.00000000E-01  1.50000000E+00
  8.00000000E-01  8.00000000E-01  1.50000000E+00  8.00000000E-01  8.00000000E-01
  1.50000000E+00  8.00000000E-01  8.00000000E-01  1.50000000E+00  8.00000000E-01
  8.00000000E-01  1.50000000E+00  8.00000000E-01  8.00000000E-01  1.50000000E+00
  8.00000000E-01  8.00000000E-01  1.50000000E+00  8.00000000E-01  8.00000000E-01
  1.50000000E+00  8.00000000E-01  8.00000000E-01  1.50000000E+00  8.00000000E-01
  8.00000000E-01  1.50000000E+00  8.00000000E-01  8.00000000E-01  1.50000000E+00
  8.00000000E-01  8.00000000E-01  1.50000000E+00  8.00000000E-01  8.00000000E-01
  1.50000000E+00  8.00000000E-01  8.00000000E-01  1.50000000E+00  8.00000000E-01
  8.00000000E-01  1.50000000E+00  8.00000000E-01  8.00000000E-01  1.50000000E+00
  8.00000000E-01  8.00000000E-01  1.50000000E+00  8.00000000E-01  8.00000000E-01
  1.50000000E+00  8.00000000E-01  8.00000000E-01  1.50000000E+00  8.00000000E-01
  8.00000000E-01  1.50000000E+00  8.00000000E-01  8.00000000E-01  1.50000000E+00
  8.00000000E-01  8.00000000E-01  1.50000000E+00  8.00000000E-01  8.00000000E-01
  1.50000000E+00  8.00000000E-01  8.00000000E-01  1.50000000E+00  8.00000000E-01
  8.00000000E-01  1.50000000E+00  8.00000000E-01  8.00000000E-01  1.50000000E+00
  8.00000000E-01  8.00000000E-01  1.50000000E+00  8.00000000E-01  8.00000000E-01
  1.50000000E+00  8.00000000E-01  8.00000000E-01  1.50000000E+00  8.00000000E-01
  8.00000000E-01  1.50000000E+00  8.00000000E-01  8.00000000E-01  1.50000000E+00
  8.00000000E-01  8.00000000E-01  1.50000000E+00  8.00000000E-01  8.00000000E-01
  1.50000000E+00  8.00000000E-01  8.00000000E-01  1.50000000E+00  8.00000000E-01
  8.00000000E-01  1.50000000E+00  8.00000000E-01  8.00000000E-01  1.50000000E+00
  8.00000000E-01  8.00000000E-01  1.50000000E+00  8.00000000E-01  8.00000000E-01
  1.50000000E+00  8.00000000E-01  8.00000000E-01  1.50000000E+00  8.00000000E-01
  8.00000000E-01  1.50000000E+00  8.00000000E-01  8.00000000E-01  1.50000000E+00
  8.00000000E-01  8.00000000E-01  1.50000000E+00  8.00000000E-01  8.00000000E-01
  1.50000000E+00  8.00000000E-01  8.00000000E-01  1.50000000E+00  8.00000000E-01
  8.00000000E-01  1.50000000E+00  8.00000000E-01  8.00000000E-01  1.50000000E+00
  8.00000000E-01  8.00000000E-01  1.50000000E+00  8.00000000E-01  8.00000000E-01
  1.50000000E+00  8.00000000E-01  8.00000000E-01  1.50000000E+00  8.00000000E-01
  8.00000000E-01  1.50000000E+00  8.00000000E-01  8.00000000E-01  1.50000000E+00
  8.00000000E-01  8.00000000E-01  1.50000000E+00  8.00000000E-01  8.00000000E-01
  1.50000000E+00  8.00000000E-01  8.00000000E-01  1.50000000E+00  8.00000000E-01
  8.00000000E-01  1.50000000E+00  8.00000000E-01  8.00000000E-01  1.50000000E+00
  8.00000000E-01  8.00000000E-01  1.50000000E+00  8.00000000E-01  8.00000000E-01
  1.50000000E+00  8.00000000E-01  8.00000000E-01  1.50000000E+00  8.00000000E-01
  8.00000000E-01  1.50000000E+00  8.00000000E-01  8.00000000E-01  1.50000000E+00
  8.00000000E-01  8.00000000E-01  1.50000000E+00  8.00000000E-01  8.00000000E-01
  1.50000000E+00  8.00000000E-01  8.00000000E-01  1.50000000E+00  8.00000000E-01
  8.00000000E-01  1.50000000E+00  8.00000000E-01  8.00000000E-01  1.50000000E+00
  8.00000000E-01  8.00000000E-01  1.50000000E+00  8.00000000E-01  8.00000000E-01
  1.50000000E+00  8.00000000E-01  8.00000000E-01  1.50000000E+00  8.00000000E-01
  8.00000000E-01  1.50000000E+00  8.00000000E-01  8.00000000E-01  1.50000000E+00
  8.00000000E-01  8.00000000E-01  1.50000000E+00  8.00000000E-01  8.00000000E-01
  1.50000000E+00  8.00000000E-01  8.00000000E-01  1.50000000E+00  8.00000000E-01
  8.00000000E-01  1.50000000E+00  8.00000000E-01  8.00000000E-01  1.50000000E+00
  8.00000000E-01  8.00000000E-01  1.50000000E+00  8.00000000E-01  8.00000000E-01
  1.50000000E+00  8.00000000E-01  8.00000000E-01  1.50000000E+00  8.00000000E-01
  8.00000000E-01  1.50000000E+00  8.00000000E-01  8.00000000E-01  1.50000000E+00
  8.00000000E-01  8.00000000E-01  1.50000000E+00  8.00000000E-01  8.00000000E-01
  1.50000000E+00  8.00000000E-01  8.00000000E-01  1.50000000E+00  8.00000000E-01
  8.00000000E-01  1.50000000E+00  8.00000000E-01  8.00000000E-01  1.50000000E+00
  8.00000000E-01  8.00000000E-01  1.50000000E+00  8.00000000E-01  8.00000000E-01
  1.50000000E+00  8.00000000E-01  8.00000000E-01  1.50000000E+00  8.00000000E-01
  8.00000000E-01  1.50000000E+00  8.00000000E-01  8.00000000E-01  1.50000000E+00
  8.00000000E-01  8.00000000E-01  1.50000000E+00  8.00000000E-01  8.00000000E-01
  1.50000000E+00  8.00000000E-01  8.00000000E-01  1.50000000E+00  8.00000000E-01
  8.00000000E-01  1.50000000E+00  8.00000000E-01  8.00000000E-01  1.50000000E+00
  8.00000000E-01  8.00000000E-01  1.50000000E+00  8.00000000E-01  8.00000000E-01
  1.50000000E+00  8.00000000E-01  8.00000000E-01  1.50000000E+00  8.00000000E-01
  8.00000000E-01  1.50000000E+00  8.00000000E-01  8.00000000E-01  1.50000000E+00
  8.00000000E-01  8.00000000E-01  1.50000000E+00  8.00000000E-01  8.00000000E-01
  1.50000000E+00  8.00000000E-01  8.00000000E-01  1.50000000E+00  8.00000000E-01
  8.00000000E-01  1.50000000E+00  8.00000000E-01  8.00000000E-01  1.50000000E+00
  8.00000000E-01  8.00000000E-01  1.50000000E+00  8.00000000E-01  8.00000000E-01
  1.50000000E+00  8.00000000E-01  8.00000000E-01  1.50000000E+00  8.00000000E-01
  8.00000000E-01  1.50000000E+00  8.00000000E-01  8.00000000E-01  1.50000000E+00
  8.00000000E-01  8.00000000E-01  1.50000000E+00  8.00000000E-01  8.00000000E-01
  1.50000000E+00  8.00000000E-01  8.00000000E-01  1.50000000E+00  8.00000000E-01
  8.00000000E-01  1.50000000E+00  8.00000000E-01  8.00000000E-01  1.50000000E+00
  8.00000000E-01  8.00000000E-01  1.50000000E+00  8.00000000E-01  8.00000000E-01
  1.50000000E+00  8.00000000E-01  8.00000000E-01  1.50000000E+00  8.00000000E-01
  8.00000000E-01  1.50000000E+00  8.00000000E-01  8.00000000E-01  1.50000000E+00
  8.00000000E-01  8.00000000E-01  1.50000000E+00  8.00000000E-01  8.00000000E-01
  1.50000000E+00  8.00000000E-01  8.00000000E-01  1.50000000E+00  8.00000000E-01
  8.00000000E-01  1.50000000E+00  8.00000000E-01  8.00000000E-01  1.50000000E+00
  8.00000000E-01  8.00000000E-01  1.50000000E+00  8.00000000E-01  8.00000000E-01
  1.50000000E+00  8.00000000E-01  8.00000000E-01  1.50000000E+00  8.00000000E-01
  8.00000000E-01  1.50000000E+00  8.00000000E-01  8.00000000E-01  1.50000000E+00
  8.00000000E-01  8.00000000E-01  1.50000000E+00  8.00000000E-01  8.00000000E-01
  1.50000000E+00  8.00000000E-01  8.00000000E-01  1.50000000E+00  8.00000000E-01
  8.00000000E-01  1.50000000E+00  8.00000000E-01  8.00000000E-01  1.50000000E+00
  8.00000000E-01  8.00000000E-01  1.50000000E+00  8.00000000E-01  8.00000000E-01
  1.50000000E+00  8.00000000E-01  8.00000000E-01  1.50000000E+00  8.00000000E-01
  8.00000000E-01  1.50000000E+00  8.00000000E-01  8.00000000E-01  1.50000000E+00
  8.00000000E-01  8.00000000E-01  1.50000000E+00  8.00000000E-01  8.00000000E-01
  1.50000000E+00  8.00000000E-01  8.00000000E-01  1.50000000E+00  8.00000000E-01
  8.00000000E-01  1.50000000E+00  8.00000000E-01  8.00000000E-01  1.50000000E+00
  8.00000000E-01  8.00000000E-01  1.50000000E+00  8.00000000E-01  8.00000000E-01
  1.50000000E+00  8.00000000E-01  8.00000000E-01  1.50000000E+00  8.00000000E-01
  8.00000000E-01  1.50000000E+00  8.00000000E-01  8.00000000E-01  1.50000000E+00
  8.00000000E-01  8.00000000E-01  1.50000000E+00  8.00000000E-01  8.00000000E-01
  1.50000000E+00  8.00000000E-01  8.00000000E-01  1.50000000E+00  8.00000000E-01
  8.00000000E-01  1.50000000E+00  8.00000000E-01  8.00000000E-01  1.50000000E+00
  8.00000000E-01  8.00000000E-01  1.50000000E+00  8.00000000E-01  8.00000000E-01
  1.50000000E+00  8.00000000E-01  8.00000000E-01  1.50000000E+00  8.00000000E-01
  8.00000000E-01  1.50000000E+00  8.00000000E-01  8.00000000E-01  1.50000000E+00
  8.00000000E-01  8.00000000E-01  1.50000000E+00  8.00000000E-01  8.00000000E-01
  1.50000000E+00  8.00000000E-01  8.00000000E-01  1.50000000E+00  8.00000000E-01
  8.00000000E-01  1.50000000E+00  8.00000000E-01  8.00000000E-01  1.50000000E+00
  8.00000000E-01  8.00000000E-01  1.50000000E+00  8.00000000E-01  8.00000000E-01
  1.50000000E+00  8.00000000E-01  8.00000000E-01  1.50000000E+00  8.00000000E-01
  8.00000000E-01  1.50000000E+00  8.00000000E-01  8.00000000E-01  1.50000000E+00
  8.00000000E-01  8.00000000E-01  1.50000000E+00  8.00000000E-01  8.00000000E-01
  1.50000000E+00  8.00000000E-01  8.00000000E-01  1.50000000E+00  8.00000000E-01
  8.00000000E-01  1.50000000E+00  8.00000000E-01  8.00000000E-01  1.50000000E+00
  8.00000000E-01  8.00000000E-01  1.50000000E+00  8.00000000E-01  8.00000000E-01
  1.50000000E+00  8.00000000E-01  8.00000000E-01  1.50000000E+00  8.00000000E-01
  8.00000000E-01  1.50000000E+00  8.00000000E-01  8.00000000E-01  1.50000000E+00
  8.00000000E-01  8.00000000E-01  1.50000000E+00  8.00000000E-01  8.00000000E-01
  1.50000000E+00  8.00000000E-01  8.00000000E-01  1.50000000E+00  8.00000000E-01
  8.00000000E-01  1.50000000E+00  8.00000000E-01  8.00000000E-01  1.50000000E+00
  8.00000000E-01  8.00000000E-01  1.50000000E+00  8.00000000E-01  8.00000000E-01
  1.50000000E+00  8.00000000E-01  8.00000000E-01  1.50000000E+00  8.00000000E-01
  8.00000000E-01  1.50000000E+00  8.00000000E-01  8.00000000E-01  1.50000000E+00
  8.00000000E-01  8.00000000E-01  1.50000000E+00  8.00000000E-01  8.00000000E-01
  1.50000000E+00  8.00000000E-01  8.00000000E-01  1.50000000E+00  8.00000000E-01
  8.00000000E-01  1.50000000E+00  8.00000000E-01  8.00000000E-01  1.50000000E+00
  8.00000000E-01  8.00000000E-01  1.50000000E+00  8.00000000E-01  8.00000000E-01
  1.50000000E+00  8.00000000E-01  8.00000000E-01  1.50000000E+00  8.00000000E-01
  8.00000000E-01  1.50000000E+00  8.00000000E-01  8.00000000E-01  1.50000000E+00
  8.00000000E-01  8.00000000E-01  1.50000000E+00  8.00000000E-01  8.00000000E-01
  1.50000000E+00  8.00000000E-01  8.00000000E-01  1.50000000E+00  8.00000000E-01
  8.00000000E-01  1.50000000E+00  8.00000000E-01  8.00000000E-01  1.50000000E+00
  8.00000000E-01  8.00000000E-01  1.50000000E+00  8.00000000E-01  8.00000000E-01
  1.50000000E+00  8.00000000E-01  8.00000000E-01  1.50000000E+00  8.00000000E-01
  8.00000000E-01  1.50000000E+00  8.00000000E-01  8.00000000E-01  1.50000000E+00
  8.00000000E-01  8.00000000E-01  1.50000000E+00  8.00000000E-01  8.00000000E-01
  1.50000000E+00  8.00000000E-01  8.00000000E-01  1.50000000E+00  8.00000000E-01
  8.00000000E-01  1.50000000E+00  8.00000000E-01  8.00000000E-01  1.50000000E+00
  8.00000000E-01  8.00000000E-01  1.50000000E+00  8.00000000E-01  8.00000000E-01
  1.50000000E+00  8.00000000E-01  8.00000000E-01  1.50000000E+00  8.00000000E-01
  8.00000000E-01  1.50000000E+00  8.00000000E-01  8.00000000E-01  1.50000000E+00
  8.00000000E-01  8.00000000E-01  1.50000000E+00  8.00000000E-01  8.00000000E-01
  1.50000000E+00  8.00000000E-01  8.00000000E-01  1.50000000E+00  8.00000000E-01
  8.00000000E-01  1.50000000E+00  8.00000000E-01  8.00000000E-01  1.50000000E+00
  8.00000000E-01  8.00000000E-01  1.50000000E+00  8.00000000E-01  8.00000000E-01
  1.50000000E+00  8.00000000E-01  8.00000000E-01  1.50000000E+00  8.00000000E-01
  8.00000000E-01  1.50000000E+00  8.00000000E-01  8.00000000E-01  1.50000000E+00
  8.00000000E-01  8.00000000E-01  1.50000000E+00  8.00000000E-01  8.00000000E-01
  1.50000000E+00  8.00000000E-01  8.00000000E-01  1.50000000E+00  8.00000000E-01
  8.00000000E-01  1.50000000E+00  8.00000000E-01  8.00000000E-01  1.50000000E+00
  8.00000000E-01  8.00000000E-01  1.50000000E+00  8.00000000E-01  8.00000000E-01
  1.50000000E+00  8.00000000E-01  8.00000000E-01  1.50000000E+00  8.00000000E-01
  8.00000000E-01  1.50000000E+00  8.00000000E-01  8.00000000E-01  1.50000000E+00
  8.00000000E-01  8.00000000E-01  1.50000000E+00  8.00000000E-01  8.00000000E-01
  1.50000000E+00  8.00000000E-01  8.00000000E-01  1.50000000E+00  8.00000000E-01
  8.00000000E-01  1.50000000E+00  8.00000000E-01  8.00000000E-01  1.50000000E+00
  8.00000000E-01  8.00000000E-01  1.50000000E+00  8.00000000E-01  8.00000000E-01
  1.50000000E+00  8.00000000E-01  8.00000000E-01  1.50000000E+00  8.00000000E-01
  8.00000000E-01  1.50000000E+00  8.00000000E-01  8.00000000E-01  1.50000000E+00
  8.00000000E-01  8.00000000E-01  1.50000000E+00  8.00000000E-01  8.00000000E-01
  1.50000000E+00  8.00000000E-01  8.00000000E-01  1.50000000E+00  8.00000000E-01
  8.00000000E-01  1.50000000E+00  8.00000000E-01  8.00000000E-01  1.50000000E+00
  8.00000000E-01  8.00000000E-01  1.50000000E+00  8.00000000E-01  8.00000000E-01
  1.50000000E+00  8.00000000E-01  8.00000000E-01  1.50000000E+00  8.00000000E-01
  8.00000000E-01  1.50000000E+00  8.00000000E-01  8.00000000E-01  1.50000000E+00
  8.00000000E-01  8.00000000E-01  1.50000000E+00  8.00000000E-01  8.00000000E-01
  1.50000000E+00  8.00000000E-01  8.00000000E-01  1.50000000E+00  8.00000000E-01
  8.00000000E-01  1.50000000E+00  8.00000000E-01  8.00000000E-01  1.50000000E+00
  8.00000000E-01  8.00000000E-01  1.50000000E+00  8.00000000E-01  8.00000000E-01
  1.50000000E+00  8.00000000E-01  8.00000000E-01  1.50000000E+00  8.00000000E-01
  8.00000000E-01  1.50000000E+00  8.00000000E-01  8.00000000E-01  1.50000000E+00
  8.00000000E-01  8.00000000E-01  1.50000000E+00  8.00000000E-01  8.00000000E-01
  1.50000000E+00  8.00000000E-01  8.00000000E-01  1.50000000E+00  8.00000000E-01
  8.00000000E-01  1.50000000E+00  8.00000000E-01  8.00000000E-01  1.50000000E+00
  8.00000000E-01  8.00000000E-01  1.50000000E+00  8.00000000E-01  8.00000000E-01
  1.50000000E+00  8.00000000E-01  8.00000000E-01  1.50000000E+00  8.00000000E-01
  8.00000000E-01  1.50000000E+00  8.00000000E-01  8.00000000E-01  1.50000000E+00
  8.00000000E-01  8.00000000E-01  1.50000000E+00  8.00000000E-01  8.00000000E-01
  1.50000000E+00  8.00000000E-01  8.00000000E-01  1.50000000E+00  8.00000000E-01
  8.00000000E-01  1.50000000E+00  8.00000000E-01  8.00000000E-01  1.50000000E+00
  8.00000000E-01  8.00000000E-01  1.50000000E+00  8.00000000E-01  8.00000000E-01
  1.50000000E+00  8.00000000E-01  8.00000000E-01  1.50000000E+00  8.00000000E-01
  8.00000000E-01  1.50000000E+00  8.00000000E-01  8.00000000E-01  1.50000000E+00
  8.00000000E-01  8.00000000E-01  1.50000000E+00  8.00000000E-01  8.00000000E-01
  1.50000000E+00  8.00000000E-01  8.00000000E-01  1.50000000E+00  8.00000000E-01
  8.00000000E-01  1.50000000E+00  8.00000000E-01  8.00000000E-01  1.50000000E+00
  8.00000000E-01  8.00000000E-01  1.50000000E+00  8.00000000E-01  8.00000000E-01
  1.50000000E+00  8.00000000E-01  8.00000000E-01  1.50000000E+00  8.00000000E-01
  8.00000000E-01  1.50000000E+00  8.00000000E-01  8.00000000E-01  1.50000000E+00
  8.00000000E-01  8.00000000E-01  1.50000000E+00  8.00000000E-01  8.00000000E-01
  1.50000000E+00  8.00000000E-01  8.00000000E-01  1.50000000E+00  8.00000000E-01
  8.00000000E-01  1.50000000E+00  8.00000000E-01  8.00000000E-01  1.50000000E+00
  8.00000000E-01  8.00000000E-01  1.50000000E+00  8.00000000E-01  8.00000000E-01
  1.50000000E+00  8.00000000E-01  8.00000000E-01  1.50000000E+00  8.00000000E-01
  8.00000000E-01  1.50000000E+00  8.00000000E-01  8.00000000E-01  1.50000000E+00
  8.00000000E-01  8.00000000E-01  1.50000000E+00  8.00000000E-01  8.00000000E-01
  1.50000000E+00  8.00000000E-01  8.00000000E-01  1.50000000E+00  8.00000000E-01
  8.00000000E-01  1.50000000E+00  8.00000000E-01  8.00000000E-01  1.50000000E+00
  8.00000000E-01  8.00000000E-01  1.50000000E+00  8.00000000E-01  8.00000000E-01
  1.50000000E+00  8.00000000E-01  8.00000000E-01  1.50000000E+00  8.00000000E-01
  8.00000000E-01  1.50000000E+00  8.00000000E-01  8.00000000E-01  1.50000000E+00
  8.00000000E-01  8.00000000E-01  1.50000000E+00  8.00000000E-01  8.00000000E-01
  1.50000000E+00  8.00000000E-01  8.00000000E-01  1.50000000E+00  8.00000000E-01
  8.00000000E-01  1.50000000E+00  8.00000000E-01  8.00000000E-01  1.50000000E+00
  8.00000000E-01  8.00000000E-01  1.50000000E+00  8.00000000E-01  8.00000000E-01
  1.50000000E+00  8.00000000E-01  8.00000000E-01  1.50000000E+00  8.00000000E-01
  8.00000000E-01  1.50000000E+00  8.00000000E-01  8.00000000E-01  1.50000000E+00
  8.00000000E-01  8.00000000E-01  1.50000000E+00  8.00000000E-01  8.00000000E-01
  1.50000000E+00  8.00000000E-01  8.00000000E-01  1.50000000E+00  8.00000000E-01
  8.00000000E-01  1.50000000E+00  8.00000000E-01  8.00000000E-01  1.50000000E+00
  8.00000000E-01  8.00000000E-01  1.50000000E+00  8.00000000E-01  8.00000000E-01
  1.50000000E+00  8.00000000E-01  8.00000000E-01  1.50000000E+00  8.00000000E-01
  8.00000000E-01  1.50000000E+00  8.00000000E-01  8.00000000E-01  1.50000000E+00
  8.00000000E-01  8.00000000E-01  1.50000000E+00  8.00000000E-01  8.00000000E-01
  1.50000000E+00  8.00000000E-01  8.00000000E-01  1.50000000E+00  8.00000000E-01
  8.00000000E-01  1.50000000E+00  8.00000000E-01  8.00000000E-01  1.50000000E+00
  8.00000000E-01  8.00000000E-01  1.50000000E+00  8.00000000E-01  8.00000000E-01
  1.50000000E+00  8.00000000E-01  8.00000000E-01  1.50000000E+00  8.00000000E-01
  8.00000000E-01  1.50000000E+00  8.00000000E-01  8.00000000E-01  1.50000000E+00
  8.00000000E-01  8.00000000E-01  1.50000000E+00  8.00000000E-01  8.00000000E-01
  1.50000000E+00  8.00000000E-01  8.00000000E-01  1.50000000E+00  8.00000000E-01
  8.00000000E-01  1.50000000E+00  8.00000000E-01  8.00000000E-01  1.50000000E+00
  8.00000000E-01  8.00000000E-01  1.50000000E+00  8.00000000E-01  8.00000000E-01
  1.50000000E+00  8.00000000E-01  8.00000000E-01  1.50000000E+00  8.00000000E-01
  8.00000000E-01  1.50000000E+00  8.00000000E-01  8.00000000E-01  1.50000000E+00
  8.00000000E-01  8.00000000E-01  1.50000000E+00  8.00000000E-01  8.00000000E-01
  1.50000000E+00  8.00000000E-01  8.00000000E-01  1.50000000E+00  8.00000000E-01
  8.00000000E-01  1.50000000E+00  8.00000000E-01  8.00000000E-01  1.50000000E+00
  8.00000000E-01  8.00000000E-01  1.50000000E+00  8.00000000E-01  8.00000000E-01
  1.50000000E+00  8.00000000E-01  8.00000000E-01  1.50000000E+00  8.00000000E-01
  8.00000000E-01  1.50000000E+00  8.00000000E-01  8.00000000E-01  1.50000000E+00
  8.00000000E-01  8.00000000E-01  1.50000000E+00  8.00000000E-01  8.00000000E-01
  1.50000000E+00  8.00000000E-01  8.00000000E-01  1.50000000E+00  8.00000000E-01
  8.00000000E-01  1.50000000E+00  8.00000000E-01  8.00000000E-01  1.50000000E+00
  8.00000000E-01  8.00000000E-01  1.50000000E+00  8.00000000E-01  8.00000000E-01
  1.50000000E+00  8.00000000E-01  8.00000000E-01  1.50000000E+00  8.00000000E-01
  8.00000000E-01  1.50000000E+00  8.00000000E-01  8.00000000E-01  1.50000000E+00
  8.00000000E-01  8.00000000E-01  1.50000000E+00  8.00000000E-01  8.00000000E-01
  1.50000000E+00  8.00000000E-01  8.00000000E-01  1.50000000E+00  8.00000000E-01
  8.00000000E-01  1.50000000E+00  8.00000000E-01  8.00000000E-01  1.50000000E+00
  8.00000000E-01  8.00000000E-01  1.50000000E+00  8.00000000E-01  8.00000000E-01
  1.50000000E+00  8.00000000E-01  8.00000000E-01  1.50000000E+00  8.00000000E-01
  8.00000000E-01  1.50000000E+00  8.00000000E-01  8.00000000E-01  1.50000000E+00
  8.00000000E-01  8.00000000E-01  1.50000000E+00  8.00000000E-01  8.00000000E-01
  1.50000000E+00  8.00000000E-01  8.00000000E-01  1.50000000E+00  8.00000000E-01
  8.00000000E-01  1.50000000E+00  8.00000000E-01  8.00000000E-01  1.50000000E+00
  8.00000000E-01  8.00000000E-01  1.50000000E+00  8.00000000E-01  8.00000000E-01
  1.50000000E+00  8.00000000E-01  8.00000000E-01  1.50000000E+00  8.00000000E-01
  8.00000000E-01  1.50000000E+00  8.00000000E-01  8.00000000E-01  1.50000000E+00
  8.00000000E-01  8.00000000E-01  1.50000000E+00  8.00000000E-01  8.00000000E-01
  1.50000000E+00  8.00000000E-01  8.00000000E-01  1.50000000E+00  8.00000000E-01
  8.00000000E-01  1.50000000E+00  8.00000000E-01  8.00000000E-01  1.50000000E+00
  8.00000000E-01  8.00000000E-01  1.50000000E+00  8.00000000E-01  8.00000000E-01
  1.50000000E+00  8.00000000E-01  8.00000000E-01  1.50000000E+00  8.00000000E-01
  8.00000000E-01  1.50000000E+00  8.00000000E-01  8.00000000E-01  1.50000000E+00
  8.00000000E-01  8.00000000E-01  1.50000000E+00  8.00000000E-01  8.00000000E-01
  1.50000000E+00  8.00000000E-01  8.00000000E-01  1.50000000E+00  8.00000000E-01
  8.00000000E-01  1.50000000E+00  8.00000000E-01  8.00000000E-01  1.50000000E+00
  8.00000000E-01  8.00000000E-01  1.50000000E+00  8.00000000E-01  8.00000000E-01
  1.50000000E+00  8.00000000E-01  8.00000000E-01  1.50000000E+00  8.00000000E-01
  8.00000000E-01  1.50000000E+00  8.00000000E-01  8.00000000E-01  1.50000000E+00
  8.00000000E-01  8.00000000E-01  1.50000000E+00  8.00000000E-01  8.00000000E-01
  1.50000000E+00  8.00000000E-01  8.00000000E-01  1.50000000E+00  8.00000000E-01
  8.00000000E-01  1.50000000E+00  8.00000000E-01  8.00000000E-01  1.50000000E+00
  8.00000000E-01  8.00000000E-01  1.50000000E+00  8.00000000E-01  8.00000000E-01
  1.50000000E+00  8.00000000E-01  8.00000000E-01  1.50000000E+00  8.00000000E-01
  8.00000000E-01  1.50000000E+00  8.00000000E-01  8.00000000E-01  1.50000000E+00
  8.00000000E-01  8.00000000E-01  1.50000000E+00  8.00000000E-01  8.00000000E-01
  1.50000000E+00  8.00000000E-01  8.00000000E-01  1.50000000E+00  8.00000000E-01
  8.00000000E-01  1.50000000E+00  8.00000000E-01  8.00000000E-01  1.50000000E+00
  8.00000000E-01  8.00000000E-01  1.50000000E+00  8.00000000E-01  8.00000000E-01
  1.50000000E+00  8.00000000E-01  8.00000000E-01  1.50000000E+00  8.00000000E-01
  8.00000000E-01  1.50000000E+00  8.00000000E-01  8.00000000E-01  1.50000000E+00
  8.00000000E-01  8.00000000E-01  1.50000000E+00  8.00000000E-01  8.00000000E-01
  1.50000000E+00  8.00000000E-01  8.00000000E-01  1.50000000E+00  8.00000000E-01
  8.00000000E-01  1.50000000E+00  8.00000000E-01  8.00000000E-01  1.50000000E+00
  8.00000000E-01  8.00000000E-01  1.50000000E+00  8.00000000E-01  8.00000000E-01
  1.50000000E+00  8.00000000E-01  8.00000000E-01  1.50000000E+00  8.00000000E-01
  8.00000000E-01  1.50000000E+00  8.00000000E-01  8.00000000E-01  1.50000000E+00
  8.00000000E-01  8.00000000E-01  1.50000000E+00  8.00000000E-01  8.00000000E-01
  1.50000000E+00  8.00000000E-01  8.00000000E-01  1.50000000E+00  8.00000000E-01
  8.00000000E-01  1.50000000E+00  8.00000000E-01  8.00000000E-01  1.50000000E+00
  8.00000000E-01  8.00000000E-01  1.50000000E+00  8.00000000E-01  8.00000000E-01
  1.50000000E+00  8.00000000E-01  8.00000000E-01  1.50000000E+00  8.00000000E-01
  8.00000000E-01  1.50000000E+00  8.00000000E-01  8.00000000E-01  1.50000000E+00
  8.00000000E-01  8.00000000E-01  1.50000000E+00  8.00000000E-01  8.00000000E-01
  1.50000000E+00  8.00000000E-01  8.00000000E-01  1.50000000E+00  8.00000000E-01
  8.00000000E-01  1.50000000E+00  8.00000000E-01  8.00000000E-01  1.50000000E+00
  8.00000000E-01  8.00000000E-01  1.50000000E+00  8.00000000E-01  8.00000000E-01
  1.50000000E+00  8.00000000E-01  8.00000000E-01  1.50000000E+00  8.00000000E-01
  8.00000000E-01  1.50000000E+00  8.00000000E-01  8.00000000E-01  1.50000000E+00
  8.00000000E-01  8.00000000E-01  1.50000000E+00  8.00000000E-01  8.00000000E-01
  1.50000000E+00  8.00000000E-01  8.00000000E-01  1.50000000E+00  8.00000000E-01
  8.00000000E-01  1.50000000E+00  8.00000000E-01  8.00000000E-01  1.50000000E+00
  8.00000000E-01  8.00000000E-01  1.50000000E+00  8.00000000E-01  8.00000000E-01
  1.50000000E+00  8.00000000E-01  8.00000000E-01  1.50000000E+00  8.00000000E-01
  8.00000000E-01  1.50000000E+00  8.00000000E-01  8.00000000E-01  1.50000000E+00
  8.00000000E-01  8.00000000E-01  1.50000000E+00  8.00000000E-01  8.00000000E-01
  1.50000000E+00  8.00000000E-01  8.00000000E-01  1.50000000E+00  8.00000000E-01
  8.00000000E-01  1.50000000E+00  8.00000000E-01  8.00000000E-01  1.50000000E+00
  8.00000000E-01  8.00000000E-01  1.50000000E+00  8.00000000E-01  8.00000000E-01
  1.50000000E+00  8.00000000E-01  8.00000000E-01  1.50000000E+00  8.00000000E-01
  8.00000000E-01  1.50000000E+00  8.00000000E-01  8.00000000E-01  1.50000000E+00
  8.00000000E-01  8.00000000E-01  1.50000000E+00  8.00000000E-01  8.00000000E-01
  1.50000000E+00  8.00000000E-01  8.00000000E-01  1.50000000E+00  8.00000000E-01
  8.00000000E-01  1.50000000E+00  8.00000000E-01  8.00000000E-01  1.50000000E+00
  8.00000000E-01  8.00000000E-01  1.50000000E+00  8.00000000E-01  8.00000000E-01
  1.50000000E+00  8.00000000E-01  8.00000000E-01  1.50000000E+00  8.00000000E-01
  8.00000000E-01  1.50000000E+00  8.00000000E-01  8.00000000E-01  1.50000000E+00
  8.00000000E-01  8.00000000E-01  1.50000000E+00  8.00000000E-01  8.00000000E-01
  1.50000000E+00  8.00000000E-01  8.00000000E-01  1.50000000E+00  8.00000000E-01
  8.00000000E-01  1.50000000E+00  8.00000000E-01  8.00000000E-01  1.50000000E+00
  8.00000000E-01  8.00000000E-01  1.50000000E+00  8.00000000E-01  8.00000000E-01
  1.50000000E+00  8.00000000E-01  8.00000000E-01  1.50000000E+00  8.00000000E-01
  8.00000000E-01  1.50000000E+00  8.00000000E-01  8.00000000E-01  1.50000000E+00
  8.00000000E-01  8.00000000E-01  1.50000000E+00  8.00000000E-01  8.00000000E-01
  1.50000000E+00  8.00000000E-01  8.00000000E-01  1.50000000E+00  8.00000000E-01
  8.00000000E-01  1.50000000E+00  8.00000000E-01  8.00000000E-01  1.50000000E+00
  8.00000000E-01  8.00000000E-01  1.50000000E+00  8.00000000E-01  8.00000000E-01
  1.50000000E+00  8.00000000E-01  8.00000000E-01  1.50000000E+00  8.00000000E-01
  8.00000000E-01  1.50000000E+00  8.00000000E-01  8.00000000E-01  1.50000000E+00
  8.00000000E-01  8.00000000E-01  1.50000000E+00  8.00000000E-01  8.00000000E-01
  1.50000000E+00  8.00000000E-01  8.00000000E-01  1.50000000E+00  8.00000000E-01
  8.00000000E-01  1.50000000E+00  8.00000000E-01  8.00000000E-01  1.50000000E+00
  8.00000000E-01  8.00000000E-01  1.50000000E+00  8.00000000E-01  8.00000000E-01
  1.50000000E+00  8.00000000E-01  8.00000000E-01  1.50000000E+00  8.00000000E-01
  8.00000000E-01  1.50000000E+00  8.00000000E-01  8.00000000E-01  1.50000000E+00
  8.00000000E-01  8.00000000E-01  1.50000000E+00  8.00000000E-01  8.00000000E-01
  1.50000000E+00  8.00000000E-01  8.00000000E-01  1.50000000E+00  8.00000000E-01
  8.00000000E-01  1.50000000E+00  8.00000000E-01  8.00000000E-01  1.50000000E+00
  8.00000000E-01  8.00000000E-01  1.50000000E+00  8.00000000E-01  8.00000000E-01
  1.50000000E+00  8.00000000E-01  8.00000000E-01  1.50000000E+00  8.00000000E-01
  8.00000000E-01  1.50000000E+00  8.00000000E-01  8.00000000E-01  1.50000000E+00
  8.00000000E-01  8.00000000E-01  1.50000000E+00  8.00000000E-01  8.00000000E-01
  1.50000000E+00  8.00000000E-01  8.00000000E-01  1.50000000E+00  8.00000000E-01
  8.00000000E-01  1.50000000E+00  8.00000000E-01  8.00000000E-01  1.50000000E+00
  8.00000000E-01  8.00000000E-01  1.50000000E+00  8.00000000E-01  8.00000000E-01
  1.50000000E+00  8.00000000E-01  8.00000000E-01  1.50000000E+00  8.00000000E-01
  8.00000000E-01  1.50000000E+00  8.00000000E-01  8.00000000E-01  1.50000000E+00
  8.00000000E-01  8.00000000E-01  1.50000000E+00  8.00000000E-01  8.00000000E-01
  1.50000000E+00  8.00000000E-01  8.00000000E-01  1.50000000E+00  8.00000000E-01
  8.00000000E-01  1.50000000E+00  8.00000000E-01  8.00000000E-01  1.50000000E+00
  8.00000000E-01  8.00000000E-01  1.50000000E+00  8.00000000E-01  8.00000000E-01
  1.50000000E+00  8.00000000E-01  8.00000000E-01  1.50000000E+00  8.00000000E-01
  8.00000000E-01  1.50000000E+00  8.00000000E-01  8.00000000E-01  1.50000000E+00
  8.00000000E-01  8.00000000E-01  1.50000000E+00  8.00000000E-01  8.00000000E-01
  1.50000000E+00  8.00000000E-01  8.00000000E-01  1.50000000E+00  8.00000000E-01
  8.00000000E-01  1.50000000E+00  8.00000000E-01  8.00000000E-01  1.50000000E+00
  8.00000000E-01  8.00000000E-01  1.50000000E+00  8.00000000E-01  8.00000000E-01
  1.50000000E+00  8.00000000E-01  8.00000000E-01  1.50000000E+00  8.00000000E-01
  8.00000000E-01  1.50000000E+00  8.00000000E-01  8.00000000E-01  1.50000000E+00
  8.00000000E-01  8.00000000E-01  1.50000000E+00  8.00000000E-01  8.00000000E-01
  1.50000000E+00  8.00000000E-01  8.00000000E-01  1.50000000E+00  8.00000000E-01
  8.00000000E-01  1.50000000E+00  8.00000000E-01  8.00000000E-01  1.50000000E+00
  8.00000000E-01  8.00000000E-01  1.50000000E+00  8.00000000E-01  8.00000000E-01
  1.50000000E+00  8.00000000E-01  8.00000000E-01  1.50000000E+00  8.00000000E-01
  8.00000000E-01  1.50000000E+00  8.00000000E-01  8.00000000E-01  1.50000000E+00
  8.00000000E-01  8.00000000E-01  1.50000000E+00  8.00000000E-01  8.00000000E-01
  1.50000000E+00  8.00000000E-01  8.00000000E-01  1.50000000E+00  8.00000000E-01
  8.00000000E-01  1.50000000E+00  8.00000000E-01  8.00000000E-01  1.50000000E+00
  8.00000000E-01  8.00000000E-01  1.50000000E+00  8.00000000E-01  8.00000000E-01
  1.50000000E+00  8.00000000E-01  8.00000000E-01  1.50000000E+00  8.00000000E-01
  8.00000000E-01  1.50000000E+00  8.00000000E-01  8.00000000E-01  1.50000000E+00
  8.00000000E-01  8.00000000E-01  1.50000000E+00  8.00000000E-01  8.00000000E-01
  1.50000000E+00  8.00000000E-01  8.00000000E-01  1.50000000E+00  8.00000000E-01
  8.00000000E-01  1.50000000E+00  8.00000000E-01  8.00000000E-01  1.50000000E+00
  8.00000000E-01  8.00000000E-01  1.50000000E+00  8.00000000E-01  8.00000000E-01
  1.50000000E+00  8.00000000E-01  8.00000000E-01  1.50000000E+00  8.00000000E-01
  8.00000000E-01  1.50000000E+00  8.00000000E-01  8.00000000E-01  1.50000000E+00
  8.00000000E-01  8.00000000E-01  1.50000000E+00  8.00000000E-01  8.00000000E-01
  1.50000000E+00  8.00000000E-01  8.00000000E-01  1.50000000E+00  8.00000000E-01
  8.00000000E-01  1.50000000E+00  8.00000000E-01  8.00000000E-01  1.50000000E+00
  8.00000000E-01  8.00000000E-01  1.50000000E+00  8.00000000E-01  8.00000000E-01
  1.50000000E+00  8.00000000E-01  8.00000000E-01  1.50000000E+00  8.00000000E-01
  8.00000000E-01  1.50000000E+00  8.00000000E-01  8.00000000E-01  1.50000000E+00
  8.00000000E-01  8.00000000E-01  1.50000000E+00  8.00000000E-01  8.00000000E-01
  1.50000000E+00  8.00000000E-01  8.00000000E-01  1.50000000E+00  8.00000000E-01
  8.00000000E-01  1.50000000E+00  8.00000000E-01  8.00000000E-01  1.50000000E+00
  8.00000000E-01  8.00000000E-01  1.50000000E+00  8.00000000E-01  8.00000000E-01
  1.50000000E+00  8.00000000E-01  8.00000000E-01  1.50000000E+00  8.00000000E-01
  8.00000000E-01  1.50000000E+00  8.00000000E-01  8.00000000E-01  1.50000000E+00
  8.00000000E-01  8.00000000E-01  1.50000000E+00  8.00000000E-01  8.00000000E-01
  1.50000000E+00  8.00000000E-01  8.00000000E-01  1.50000000E+00  8.00000000E-01
  8.00000000E-01  1.50000000E+00  8.00000000E-01  8.00000000E-01  1.50000000E+00
  8.00000000E-01  8.00000000E-01  1.50000000E+00  8.00000000E-01  8.00000000E-01
  1.50000000E+00  8.00000000E-01  8.00000000E-01  1.50000000E+00  8.00000000E-01
  8.00000000E-01  1.50000000E+00  8.00000000E-01  8.00000000E-01  1.50000000E+00
  8.00000000E-01  8.00000000E-01  1.50000000E+00  8.00000000E-01  8.00000000E-01
  1.50000000E+00  8.00000000E-01  8.00000000E-01  1.50000000E+00  8.00000000E-01
  8.00000000E-01  1.50000000E+00  8.00000000E-01  8.00000000E-01  1.50000000E+00
  8.00000000E-01  8.00000000E-01  1.50000000E+00  8.00000000E-01  8.00000000E-01
  1.50000000E+00  8.00000000E-01  8.00000000E-01  1.50000000E+00  8.00000000E-01
  8.00000000E-01  1.50000000E+00  8.00000000E-01  8.00000000E-01  1.50000000E+00
  8.00000000E-01  8.00000000E-01  1.50000000E+00  8.00000000E-01  8.00000000E-01
  1.50000000E+00  8.00000000E-01  8.00000000E-01  1.50000000E+00  8.00000000E-01
  8.00000000E-01  1.50000000E+00  8.00000000E-01  8.00000000E-01  1.50000000E+00
  8.00000000E-01  8.00000000E-01  1.50000000E+00  8.00000000E-01  8.00000000E-01
  1.50000000E+00  8.00000000E-01  8.00000000E-01  1.50000000E+00  8.00000000E-01
  8.00000000E-01  1.50000000E+00  8.00000000E-01  8.00000000E-01  1.50000000E+00
  8.00000000E-01  8.00000000E-01  1.50000000E+00  8.00000000E-01  8.00000000E-01
  1.50000000E+00  8.00000000E-01  8.00000000E-01  1.50000000E+00  8.00000000E-01
  8.00000000E-01  1.50000000E+00  8.00000000E-01  8.00000000E-01  1.50000000E+00
  8.00000000E-01  8.00000000E-01  1.50000000E+00  8.00000000E-01  8.00000000E-01
  1.50000000E+00  8.00000000E-01  8.00000000E-01  1.50000000E+00  8.00000000E-01
  8.00000000E-01  1.50000000E+00  8.00000000E-01  8.00000000E-01  1.50000000E+00
  8.00000000E-01  8.00000000E-01  1.50000000E+00  8.00000000E-01  8.00000000E-01
  1.50000000E+00  8.00000000E-01  8.00000000E-01  1.50000000E+00  8.00000000E-01
  8.00000000E-01  1.50000000E+00  8.00000000E-01  8.00000000E-01  1.50000000E+00
  8.00000000E-01  8.00000000E-01  1.50000000E+00  8.00000000E-01  8.00000000E-01
  1.50000000E+00  8.00000000E-01  8.00000000E-01  1.50000000E+00  8.00000000E-01
  8.00000000E-01  1.50000000E+00  8.00000000E-01  8.00000000E-01  1.50000000E+00
  8.00000000E-01  8.00000000E-01  1.50000000E+00  8.00000000E-01  8.00000000E-01
  1.50000000E+00  8.00000000E-01  8.00000000E-01  1.50000000E+00  8.00000000E-01
  8.00000000E-01  1.50000000E+00  8.00000000E-01  8.00000000E-01  1.50000000E+00
  8.00000000E-01  8.00000000E-01  1.50000000E+00  8.00000000E-01  8.00000000E-01
  1.50000000E+00  8.00000000E-01  8.00000000E-01  1.50000000E+00  8.00000000E-01
  8.00000000E-01  1.50000000E+00  8.00000000E-01  8.00000000E-01  1.50000000E+00
  8.00000000E-01  8.00000000E-01  1.50000000E+00  8.00000000E-01  8.00000000E-01
  1.50000000E+00  8.00000000E-01  8.00000000E-01  1.50000000E+00  8.00000000E-01
  8.00000000E-01  1.50000000E+00  8.00000000E-01  8.00000000E-01  1.50000000E+00
  8.00000000E-01  8.00000000E-01  1.50000000E+00  8.00000000E-01  8.00000000E-01
  1.50000000E+00  8.00000000E-01  8.00000000E-01  1.50000000E+00  8.00000000E-01
  8.00000000E-01  1.50000000E+00  8.00000000E-01  8.00000000E-01  1.50000000E+00
  8.00000000E-01  8.00000000E-01  1.50000000E+00  8.00000000E-01  8.00000000E-01
  1.50000000E+00  8.00000000E-01  8.00000000E-01  1.50000000E+00  8.00000000E-01
  8.00000000E-01  1.50000000E+00  8.00000000E-01  8.00000000E-01  1.50000000E+00
  8.00000000E-01  8.00000000E-01  1.50000000E+00  8.00000000E-01  8.00000000E-01
  1.50000000E+00  8.00000000E-01  8.00000000E-01  1.50000000E+00  8.00000000E-01
  8.00000000E-01  1.50000000E+00  8.00000000E-01  8.00000000E-01  1.50000000E+00
  8.00000000E-01  8.00000000E-01  1.50000000E+00  8.00000000E-01  8.00000000E-01
  1.50000000E+00  8.00000000E-01  8.00000000E-01  1.50000000E+00  8.00000000E-01
  8.00000000E-01  1.50000000E+00  8.00000000E-01  8.00000000E-01  1.50000000E+00
  8.00000000E-01  8.00000000E-01  1.50000000E+00  8.00000000E-01  8.00000000E-01
  1.50000000E+00  8.00000000E-01  8.00000000E-01  1.50000000E+00  8.00000000E-01
  8.00000000E-01  1.50000000E+00  8.00000000E-01  8.00000000E-01  1.50000000E+00
  8.00000000E-01  8.00000000E-01  1.50000000E+00  8.00000000E-01  8.00000000E-01
  1.50000000E+00  8.00000000E-01  8.00000000E-01  1.50000000E+00  8.00000000E-01
  8.00000000E-01  1.50000000E+00  8.00000000E-01  8.00000000E-01  1.50000000E+00
  8.00000000E-01  8.00000000E-01  1.50000000E+00  8.00000000E-01  8.00000000E-01
  1.50000000E+00  8.00000000E-01  8.00000000E-01  1.50000000E+00  8.00000000E-01
  8.00000000E-01  1.50000000E+00  8.00000000E-01  8.00000000E-01  1.50000000E+00
  8.00000000E-01  8.00000000E-01  1.50000000E+00  8.00000000E-01  8.00000000E-01
  1.50000000E+00  8.00000000E-01  8.00000000E-01  1.50000000E+00  8.00000000E-01
  8.00000000E-01  1.50000000E+00  8.00000000E-01  8.00000000E-01  1.50000000E+00
  8.00000000E-01  8.00000000E-01  1.50000000E+00  8.00000000E-01  8.00000000E-01
  1.50000000E+00  8.00000000E-01  8.00000000E-01  1.50000000E+00  8.00000000E-01
  8.00000000E-01  1.50000000E+00  8.00000000E-01  8.00000000E-01  1.50000000E+00
  8.00000000E-01  8.00000000E-01  1.50000000E+00  8.00000000E-01  8.00000000E-01
  1.50000000E+00  8.00000000E-01  8.00000000E-01  1.50000000E+00  8.00000000E-01
  8.00000000E-01  1.50000000E+00  8.00000000E-01  8.00000000E-01  1.50000000E+00
  8.00000000E-01  8.00000000E-01  1.50000000E+00  8.00000000E-01  8.00000000E-01
  1.50000000E+00  8.00000000E-01  8.00000000E-01  1.50000000E+00  8.00000000E-01
  8.00000000E-01  1.50000000E+00  8.00000000E-01  8.00000000E-01  1.50000000E+00
  8.00000000E-01  8.00000000E-01  1.50000000E+00  8.00000000E-01  8.00000000E-01
  1.50000000E+00  8.00000000E-01  8.00000000E-01  1.50000000E+00  8.00000000E-01
  8.00000000E-01  1.50000000E+00  8.00000000E-01  8.00000000E-01  1.50000000E+00
  8.00000000E-01  8.00000000E-01  1.50000000E+00  8.00000000E-01  8.00000000E-01
  1.50000000E+00  8.00000000E-01  8.00000000E-01  1.50000000E+00  8.00000000E-01
  8.00000000E-01  1.50000000E+00  8.00000000E-01  8.00000000E-01  1.50000000E+00
  8.00000000E-01  8.00000000E-01  1.50000000E+00  8.00000000E-01  8.00000000E-01
  1.50000000E+00  8.00000000E-01  8.00000000E-01  1.50000000E+00  8.00000000E-01
  8.00000000E-01  1.50000000E+00  8.00000000E-01  8.00000000E-01  1.50000000E+00
  8.00000000E-01  8.00000000E-01  1.50000000E+00  8.00000000E-01  8.00000000E-01
  1.50000000E+00  8.00000000E-01  8.00000000E-01  1.50000000E+00  8.00000000E-01
  8.00000000E-01  1.50000000E+00  8.00000000E-01  8.00000000E-01  1.50000000E+00
  8.00000000E-01  8.00000000E-01  1.50000000E+00  8.00000000E-01  8.00000000E-01
  1.50000000E+00  8.00000000E-01  8.00000000E-01  1.50000000E+00  8.00000000E-01
  8.00000000E-01  1.50000000E+00  8.00000000E-01  8.00000000E-01  1.50000000E+00
  8.00000000E-01  8.00000000E-01  1.50000000E+00  8.00000000E-01  8.00000000E-01
  1.50000000E+00  8.00000000E-01  8.00000000E-01  1.50000000E+00  8.00000000E-01
  8.00000000E-01  1.50000000E+00  8.00000000E-01  8.00000000E-01  1.50000000E+00
  8.00000000E-01  8.00000000E-01  1.50000000E+00  8.00000000E-01  8.00000000E-01
  1.50000000E+00  8.00000000E-01  8.00000000E-01  1.50000000E+00  8.00000000E-01
  8.00000000E-01  1.50000000E+00  8.00000000E-01  8.00000000E-01  1.50000000E+00
  8.00000000E-01  8.00000000E-01  1.50000000E+00  8.00000000E-01  8.00000000E-01
  1.50000000E+00  8.00000000E-01  8.00000000E-01  1.50000000E+00  8.00000000E-01
  8.00000000E-01  1.50000000E+00  8.00000000E-01  8.00000000E-01  1.50000000E+00
  8.00000000E-01  8.00000000E-01  1.50000000E+00  8.00000000E-01  8.00000000E-01
  1.50000000E+00  8.00000000E-01  8.00000000E-01  1.50000000E+00  8.00000000E-01
  8.00000000E-01  1.50000000E+00  8.00000000E-01  8.00000000E-01  1.50000000E+00
  8.00000000E-01  8.00000000E-01  1.50000000E+00  8.00000000E-01  8.00000000E-01
  1.50000000E+00  8.00000000E-01  8.00000000E-01  1.50000000E+00  8.00000000E-01
  8.00000000E-01  1.50000000E+00  8.00000000E-01  8.00000000E-01  1.50000000E+00
  8.00000000E-01  8.00000000E-01  1.50000000E+00  8.00000000E-01  8.00000000E-01
  1.50000000E+00  8.00000000E-01  8.00000000E-01  1.50000000E+00  8.00000000E-01
  8.00000000E-01  1.50000000E+00  8.00000000E-01  8.00000000E-01  1.50000000E+00
  8.00000000E-01  8.00000000E-01  1.50000000E+00  8.00000000E-01  8.00000000E-01
  1.50000000E+00  8.00000000E-01  8.00000000E-01  1.50000000E+00  8.00000000E-01
  8.00000000E-01  1.50000000E+00  8.00000000E-01  8.00000000E-01  1.50000000E+00
  8.00000000E-01  8.00000000E-01  1.50000000E+00  8.00000000E-01  8.00000000E-01
  1.50000000E+00  8.00000000E-01  8.00000000E-01  1.50000000E+00  8.00000000E-01
  8.00000000E-01  1.50000000E+00  8.00000000E-01  8.00000000E-01  1.50000000E+00
  8.00000000E-01  8.00000000E-01  1.50000000E+00  8.00000000E-01  8.00000000E-01
  1.50000000E+00  8.00000000E-01  8.00000000E-01  1.50000000E+00  8.00000000E-01
  8.00000000E-01  1.50000000E+00  8.00000000E-01  8.00000000E-01  1.50000000E+00
  8.00000000E-01  8.00000000E-01  1.50000000E+00  8.00000000E-01  8.00000000E-01
  1.50000000E+00  8.00000000E-01  8.00000000E-01  1.50000000E+00  8.00000000E-01
  8.00000000E-01  1.50000000E+00  8.00000000E-01  8.00000000E-01  1.50000000E+00
  8.00000000E-01  8.00000000E-01  1.50000000E+00  8.00000000E-01  8.00000000E-01
  1.50000000E+00  8.00000000E-01  8.00000000E-01  1.50000000E+00  8.00000000E-01
  8.00000000E-01  1.50000000E+00  8.00000000E-01  8.00000000E-01  1.50000000E+00
  8.00000000E-01  8.00000000E-01  1.50000000E+00  8.00000000E-01  8.00000000E-01
  1.50000000E+00  8.00000000E-01  8.00000000E-01  1.50000000E+00  8.00000000E-01
  8.00000000E-01  1.50000000E+00  8.00000000E-01  8.00000000E-01  1.50000000E+00
  8.00000000E-01  8.00000000E-01  1.50000000E+00  8.00000000E-01  8.00000000E-01
  1.50000000E+00  8.00000000E-01  8.00000000E-01  1.50000000E+00  8.00000000E-01
  8.00000000E-01  1.50000000E+00  8.00000000E-01  8.00000000E-01  1.50000000E+00
  8.00000000E-01  8.00000000E-01  1.50000000E+00  8.00000000E-01  8.00000000E-01
  1.50000000E+00  8.00000000E-01  8.00000000E-01  1.50000000E+00  8.00000000E-01
  8.00000000E-01  1.50000000E+00  8.00000000E-01  8.00000000E-01  1.50000000E+00
  8.00000000E-01  8.00000000E-01  1.50000000E+00  8.00000000E-01  8.00000000E-01
  1.50000000E+00  8.00000000E-01  8.00000000E-01  1.50000000E+00  8.00000000E-01
  8.00000000E-01  1.50000000E+00  8.00000000E-01  8.00000000E-01  1.50000000E+00
  8.00000000E-01  8.00000000E-01  1.50000000E+00  8.00000000E-01  8.00000000E-01
  1.50000000E+00  8.00000000E-01  8.00000000E-01  1.50000000E+00  8.00000000E-01
  8.00000000E-01  1.50000000E+00  8.00000000E-01  8.00000000E-01  1.50000000E+00
  8.00000000E-01  8.00000000E-01  1.50000000E+00  8.00000000E-01  8.00000000E-01
  1.50000000E+00  8.00000000E-01  8.00000000E-01  1.50000000E+00  8.00000000E-01
  8.00000000E-01  1.50000000E+00  8.00000000E-01  8.00000000E-01  1.50000000E+00
  8.00000000E-01  8.00000000E-01  1.50000000E+00  8.00000000E-01  8.00000000E-01
  1.50000000E+00  8.00000000E-01  8.00000000E-01  1.50000000E+00  8.00000000E-01
  8.00000000E-01  1.50000000E+00  8.00000000E-01  8.00000000E-01  1.50000000E+00
  8.00000000E-01  8.00000000E-01  1.50000000E+00  8.00000000E-01  8.00000000E-01
  1.50000000E+00  8.00000000E-01  8.00000000E-01  1.50000000E+00  8.00000000E-01
  8.00000000E-01  1.50000000E+00  8.00000000E-01  8.00000000E-01  1.50000000E+00
  8.00000000E-01  8.00000000E-01  1.50000000E+00  8.00000000E-01  8.00000000E-01
  1.50000000E+00  8.00000000E-01  8.00000000E-01  1.50000000E+00  8.00000000E-01
  8.00000000E-01  1.50000000E+00  8.00000000E-01  8.00000000E-01  1.50000000E+00
  8.00000000E-01  8.00000000E-01  1.50000000E+00  8.00000000E-01  8.00000000E-01
  1.50000000E+00  8.00000000E-01  8.00000000E-01  1.50000000E+00  8.00000000E-01
  8.00000000E-01  1.50000000E+00  8.00000000E-01  8.00000000E-01  1.50000000E+00
  8.00000000E-01  8.00000000E-01  1.50000000E+00  8.00000000E-01  8.00000000E-01
  1.50000000E+00  8.00000000E-01  8.00000000E-01  1.50000000E+00  8.00000000E-01
  8.00000000E-01  1.50000000E+00  8.00000000E-01  8.00000000E-01  1.50000000E+00
  8.00000000E-01  8.00000000E-01  1.50000000E+00  8.00000000E-01  8.00000000E-01
  1.50000000E+00  8.00000000E-01  8.00000000E-01  1.50000000E+00  8.00000000E-01
  8.00000000E-01  1.50000000E+00  8.00000000E-01  8.00000000E-01  1.50000000E+00
  8.00000000E-01  8.00000000E-01  1.50000000E+00  8.00000000E-01  8.00000000E-01
  1.50000000E+00  8.00000000E-01  8.00000000E-01  1.50000000E+00  8.00000000E-01
  8.00000000E-01  1.50000000E+00  8.00000000E-01  8.00000000E-01  1.50000000E+00
  8.00000000E-01  8.00000000E-01  1.50000000E+00  8.00000000E-01  8.00000000E-01
  1.50000000E+00  8.00000000E-01  8.00000000E-01  1.50000000E+00  8.00000000E-01
  8.00000000E-01  1.50000000E+00  8.00000000E-01  8.00000000E-01  1.50000000E+00
  8.00000000E-01  8.00000000E-01  1.50000000E+00  8.00000000E-01  8.00000000E-01
  1.50000000E+00  8.00000000E-01  8.00000000E-01  1.50000000E+00  8.00000000E-01
  8.00000000E-01  1.50000000E+00  8.00000000E-01  8.00000000E-01  1.50000000E+00
  8.00000000E-01  8.00000000E-01  1.50000000E+00  8.00000000E-01  8.00000000E-01
  1.50000000E+00  8.00000000E-01  8.00000000E-01  1.50000000E+00  8.00000000E-01
  8.00000000E-01  1.50000000E+00  8.00000000E-01  8.00000000E-01  1.50000000E+00
  8.00000000E-01  8.00000000E-01  1.50000000E+00  8.00000000E-01  8.00000000E-01
  1.50000000E+00  8.00000000E-01  8.00000000E-01  1.50000000E+00  8.00000000E-01
  8.00000000E-01  1.50000000E+00  8.00000000E-01  8.00000000E-01  1.50000000E+00
  8.00000000E-01  8.00000000E-01  1.50000000E+00  8.00000000E-01  8.00000000E-01
  1.50000000E+00  8.00000000E-01  8.00000000E-01  1.50000000E+00  8.00000000E-01
  8.00000000E-01  1.50000000E+00  8.00000000E-01  8.00000000E-01  1.50000000E+00
  8.00000000E-01  8.00000000E-01  1.50000000E+00  8.00000000E-01  8.00000000E-01
  1.50000000E+00  8.00000000E-01  8.00000000E-01  1.50000000E+00  8.00000000E-01
  8.00000000E-01  1.50000000E+00  8.00000000E-01  8.00000000E-01  1.50000000E+00
  8.00000000E-01  8.00000000E-01  1.50000000E+00  8.00000000E-01  8.00000000E-01
  1.50000000E+00  8.00000000E-01  8.00000000E-01  1.50000000E+00  8.00000000E-01
  8.00000000E-01  1.50000000E+00  8.00000000E-01  8.00000000E-01  1.50000000E+00
  8.00000000E-01  8.00000000E-01  1.50000000E+00  8.00000000E-01  8.00000000E-01
  1.50000000E+00  8.00000000E-01  8.00000000E-01  1.50000000E+00  8.00000000E-01
  8.00000000E-01  1.50000000E+00  8.00000000E-01  8.00000000E-01  1.50000000E+00
  8.00000000E-01  8.00000000E-01  1.50000000E+00  8.00000000E-01  8.00000000E-01
  1.50000000E+00  8.00000000E-01  8.00000000E-01  1.50000000E+00  8.00000000E-01
  8.00000000E-01  1.50000000E+00  8.00000000E-01  8.00000000E-01  1.50000000E+00
  8.00000000E-01  8.00000000E-01  1.50000000E+00  8.00000000E-01  8.00000000E-01
  1.50000000E+00  8.00000000E-01  8.00000000E-01  1.50000000E+00  8.00000000E-01
  8.00000000E-01  1.50000000E+00  8.00000000E-01  8.00000000E-01  1.50000000E+00
  8.00000000E-01  8.00000000E-01  1.50000000E+00  8.00000000E-01  8.00000000E-01
  1.50000000E+00  8.00000000E-01  8.00000000E-01  1.50000000E+00  8.00000000E-01
  8.00000000E-01  1.50000000E+00  8.00000000E-01  8.00000000E-01  1.50000000E+00
  8.00000000E-01  8.00000000E-01  1.50000000E+00  8.00000000E-01  8.00000000E-01
  1.50000000E+00  8.00000000E-01  8.00000000E-01  1.50000000E+00  8.00000000E-01
  8.00000000E-01  1.50000000E+00  8.00000000E-01  8.00000000E-01  1.50000000E+00
  8.00000000E-01  8.00000000E-01  1.50000000E+00  8.00000000E-01  8.00000000E-01
  1.50000000E+00  8.00000000E-01  8.00000000E-01  1.50000000E+00  8.00000000E-01
  8.00000000E-01  1.50000000E+00  8.00000000E-01  8.00000000E-01  1.50000000E+00
  8.00000000E-01  8.00000000E-01  1.50000000E+00  8.00000000E-01  8.00000000E-01
  1.50000000E+00  8.00000000E-01  8.00000000E-01  1.50000000E+00  8.00000000E-01
  8.00000000E-01  1.50000000E+00  8.00000000E-01  8.00000000E-01  1.50000000E+00
  8.00000000E-01  8.00000000E-01  1.50000000E+00  8.00000000E-01  8.00000000E-01
  1.50000000E+00  8.00000000E-01  8.00000000E-01  1.50000000E+00  8.00000000E-01
  8.00000000E-01  1.50000000E+00  8.00000000E-01  8.00000000E-01  1.50000000E+00
  8.00000000E-01  8.00000000E-01  1.50000000E+00  8.00000000E-01  8.00000000E-01
  1.50000000E+00  8.00000000E-01  8.00000000E-01  1.50000000E+00  8.00000000E-01
  8.00000000E-01  1.50000000E+00  8.00000000E-01  8.00000000E-01  1.50000000E+00
  8.00000000E-01  8.00000000E-01  1.50000000E+00  8.00000000E-01  8.00000000E-01
  1.50000000E+00  8.00000000E-01  8.00000000E-01  1.50000000E+00  8.00000000E-01
  8.00000000E-01  1.50000000E+00  8.00000000E-01  8.00000000E-01  1.50000000E+00
  8.00000000E-01  8.00000000E-01  1.50000000E+00  8.00000000E-01  8.00000000E-01
  1.50000000E+00  8.00000000E-01  8.00000000E-01  1.50000000E+00  8.00000000E-01
  8.00000000E-01  1.50000000E+00  8.00000000E-01  8.00000000E-01  1.50000000E+00
  8.00000000E-01  8.00000000E-01  1.50000000E+00  8.00000000E-01  8.00000000E-01
  1.50000000E+00  8.00000000E-01  8.00000000E-01  1.50000000E+00  8.00000000E-01
  8.00000000E-01  1.50000000E+00  8.00000000E-01  8.00000000E-01  1.50000000E+00
  8.00000000E-01  8.00000000E-01  1.50000000E+00  8.00000000E-01  8.00000000E-01
  1.50000000E+00  8.00000000E-01  8.00000000E-01  1.50000000E+00  8.00000000E-01
  8.00000000E-01  1.50000000E+00  8.00000000E-01  8.00000000E-01  1.50000000E+00
  8.00000000E-01  8.00000000E-01  1.50000000E+00  8.00000000E-01  8.00000000E-01
  1.50000000E+00  8.00000000E-01  8.00000000E-01  1.50000000E+00  8.00000000E-01
  8.00000000E-01  1.50000000E+00  8.00000000E-01  8.00000000E-01  1.50000000E+00
  8.00000000E-01  8.00000000E-01  1.50000000E+00  8.00000000E-01  8.00000000E-01
  1.50000000E+00  8.00000000E-01  8.00000000E-01  1.50000000E+00  8.00000000E-01
  8.00000000E-01  1.50000000E+00  8.00000000E-01  8.00000000E-01  1.50000000E+00
  8.00000000E-01  8.00000000E-01  1.50000000E+00  8.00000000E-01  8.00000000E-01
  1.50000000E+00  8.00000000E-01  8.00000000E-01  1.50000000E+00  8.00000000E-01
  8.00000000E-01  1.50000000E+00  8.00000000E-01  8.00000000E-01  1.50000000E+00
  8.00000000E-01  8.00000000E-01  1.50000000E+00  8.00000000E-01  8.00000000E-01
  1.50000000E+00  8.00000000E-01  8.00000000E-01  1.50000000E+00  8.00000000E-01
  8.00000000E-01  1.50000000E+00  8.00000000E-01  8.00000000E-01  1.50000000E+00
  8.00000000E-01  8.00000000E-01  1.50000000E+00  8.00000000E-01  8.00000000E-01
  1.50000000E+00  8.00000000E-01  8.00000000E-01  1.50000000E+00  8.00000000E-01
  8.00000000E-01  1.50000000E+00  8.00000000E-01  8.00000000E-01  1.50000000E+00
  8.00000000E-01  8.00000000E-01  1.50000000E+00  8.00000000E-01  8.00000000E-01
  1.50000000E+00  8.00000000E-01  8.00000000E-01  1.50000000E+00  8.00000000E-01
  8.00000000E-01  1.50000000E+00  8.00000000E-01  8.00000000E-01  1.50000000E+00
  8.00000000E-01  8.00000000E-01  1.50000000E+00  8.00000000E-01  8.00000000E-01
  1.50000000E+00  8.00000000E-01  8.00000000E-01  1.50000000E+00  8.00000000E-01
  8.00000000E-01  1.50000000E+00  8.00000000E-01  8.00000000E-01  1.50000000E+00
  8.00000000E-01  8.00000000E-01  1.50000000E+00  8.00000000E-01  8.00000000E-01
  1.50000000E+00  8.00000000E-01  8.00000000E-01  1.50000000E+00  8.00000000E-01
  8.00000000E-01  1.50000000E+00  8.00000000E-01  8.00000000E-01  1.50000000E+00
  8.00000000E-01  8.00000000E-01  1.50000000E+00  8.00000000E-01  8.00000000E-01
  1.50000000E+00  8.00000000E-01  8.00000000E-01  1.50000000E+00  8.00000000E-01
  8.00000000E-01  1.50000000E+00  8.00000000E-01  8.00000000E-01  1.50000000E+00
  8.00000000E-01  8.00000000E-01  1.50000000E+00  8.00000000E-01  8.00000000E-01
  1.50000000E+00  8.00000000E-01  8.00000000E-01  1.50000000E+00  8.00000000E-01
  8.00000000E-01  1.50000000E+00  8.00000000E-01  8.00000000E-01  1.50000000E+00
  8.00000000E-01  8.00000000E-01  1.50000000E+00  8.00000000E-01  8.00000000E-01
  1.50000000E+00  8.00000000E-01  8.00000000E-01  1.50000000E+00  8.00000000E-01
  8.00000000E-01  1.50000000E+00  8.00000000E-01  8.00000000E-01  1.50000000E+00
  8.00000000E-01  8.00000000E-01  1.50000000E+00  8.00000000E-01  8.00000000E-01
  1.50000000E+00  8.00000000E-01  8.00000000E-01  1.50000000E+00  8.00000000E-01
  8.00000000E-01  1.50000000E+00  8.00000000E-01  8.00000000E-01  1.50000000E+00
  8.00000000E-01  8.00000000E-01  1.50000000E+00  8.00000000E-01  8.00000000E-01
  1.50000000E+00  8.00000000E-01  8.00000000E-01  1.50000000E+00  8.00000000E-01
  8.00000000E-01  1.50000000E+00  8.00000000E-01  8.00000000E-01  1.50000000E+00
  8.00000000E-01  8.00000000E-01  1.50000000E+00  8.00000000E-01  8.00000000E-01
  1.50000000E+00  8.00000000E-01  8.00000000E-01  1.50000000E+00  8.00000000E-01
  8.00000000E-01  1.50000000E+00  8.00000000E-01  8.00000000E-01  1.50000000E+00
  8.00000000E-01  8.00000000E-01  1.50000000E+00  8.00000000E-01  8.00000000E-01
  1.50000000E+00  8.00000000E-01  8.00000000E-01  1.50000000E+00  8.00000000E-01
  8.00000000E-01  1.50000000E+00  8.00000000E-01  8.00000000E-01  1.50000000E+00
  8.00000000E-01  8.00000000E-01  1.50000000E+00  8.00000000E-01  8.00000000E-01
  1.50000000E+00  8.00000000E-01  8.00000000E-01  1.50000000E+00  8.00000000E-01
  8.00000000E-01  1.50000000E+00  8.00000000E-01  8.00000000E-01  1.50000000E+00
  8.00000000E-01  8.00000000E-01  1.50000000E+00  8.00000000E-01  8.00000000E-01
  1.50000000E+00  8.00000000E-01  8.00000000E-01  1.50000000E+00  8.00000000E-01
  8.00000000E-01  1.50000000E+00  8.00000000E-01  8.00000000E-01  1.50000000E+00
  8.00000000E-01  8.00000000E-01  1.50000000E+00  8.00000000E-01  8.00000000E-01
  1.50000000E+00  8.00000000E-01  8.00000000E-01  1.50000000E+00  8.00000000E-01
  8.00000000E-01  1.50000000E+00  8.00000000E-01  8.00000000E-01  1.50000000E+00
  8.00000000E-01  8.00000000E-01  1.50000000E+00  8.00000000E-01  8.00000000E-01
  1.50000000E+00  8.00000000E-01  8.00000000E-01  1.50000000E+00  8.00000000E-01
  8.00000000E-01  1.50000000E+00  8.00000000E-01  8.00000000E-01  1.50000000E+00
  8.00000000E-01  8.00000000E-01  1.50000000E+00  8.00000000E-01  8.00000000E-01
  1.50000000E+00  8.00000000E-01  8.00000000E-01  1.50000000E+00  8.00000000E-01
  8.00000000E-01  1.50000000E+00  8.00000000E-01  8.00000000E-01  1.50000000E+00
  8.00000000E-01  8.00000000E-01  1.50000000E+00  8.00000000E-01  8.00000000E-01
  1.50000000E+00  8.00000000E-01  8.00000000E-01  1.50000000E+00  8.00000000E-01
  8.00000000E-01  1.50000000E+00  8.00000000E-01  8.00000000E-01  1.50000000E+00
  8.00000000E-01  8.00000000E-01  1.50000000E+00  8.00000000E-01  8.00000000E-01
  1.50000000E+00  8.00000000E-01  8.00000000E-01  1.50000000E+00  8.00000000E-01
  8.00000000E-01  1.50000000E+00  8.00000000E-01  8.00000000E-01  1.50000000E+00
  8.00000000E-01  8.00000000E-01  1.50000000E+00  8.00000000E-01  8.00000000E-01
  1.50000000E+00  8.00000000E-01  8.00000000E-01  1.50000000E+00  8.00000000E-01
  8.00000000E-01  1.50000000E+00  8.00000000E-01  8.00000000E-01  1.50000000E+00
  8.00000000E-01  8.00000000E-01  1.50000000E+00  8.00000000E-01  8.00000000E-01
  1.50000000E+00  8.00000000E-01  8.00000000E-01  1.50000000E+00  8.00000000E-01
  8.00000000E-01  1.50000000E+00  8.00000000E-01  8.00000000E-01  1.50000000E+00
  8.00000000E-01  8.00000000E-01  1.50000000E+00  8.00000000E-01  8.00000000E-01
  1.50000000E+00  8.00000000E-01  8.00000000E-01  1.50000000E+00  8.00000000E-01
  8.00000000E-01  1.50000000E+00  8.00000000E-01  8.00000000E-01  1.50000000E+00
  8.00000000E-01  8.00000000E-01  1.50000000E+00  8.00000000E-01  8.00000000E-01
  1.50000000E+00  8.00000000E-01  8.00000000E-01  1.50000000E+00  8.00000000E-01
  8.00000000E-01  1.50000000E+00  8.00000000E-01  8.00000000E-01  1.50000000E+00
  8.00000000E-01  8.00000000E-01  1.50000000E+00  8.00000000E-01  8.00000000E-01
  1.50000000E+00  8.00000000E-01  8.00000000E-01  1.50000000E+00  8.00000000E-01
  8.00000000E-01  1.50000000E+00  8.00000000E-01  8.00000000E-01  1.50000000E+00
  8.00000000E-01  8.00000000E-01  1.50000000E+00  8.00000000E-01  8.00000000E-01
  1.50000000E+00  8.00000000E-01  8.00000000E-01  1.50000000E+00  8.00000000E-01
  8.00000000E-01  1.50000000E+00  8.00000000E-01  8.00000000E-01  1.50000000E+00
  8.00000000E-01  8.00000000E-01  1.50000000E+00  8.00000000E-01  8.00000000E-01
  1.50000000E+00  8.00000000E-01  8.00000000E-01  1.50000000E+00  8.00000000E-01
  8.00000000E-01  1.50000000E+00  8.00000000E-01  8.00000000E-01  1.50000000E+00
  8.00000000E-01  8.00000000E-01  1.50000000E+00  8.00000000E-01  8.00000000E-01
  1.50000000E+00  8.00000000E-01  8.00000000E-01  1.50000000E+00  8.00000000E-01
  8.00000000E-01  1.50000000E+00  8.00000000E-01  8.00000000E-01  1.50000000E+00
  8.00000000E-01  8.00000000E-01  1.50000000E+00  8.00000000E-01  8.00000000E-01
  1.50000000E+00  8.00000000E-01  8.00000000E-01  1.50000000E+00  8.00000000E-01
  8.00000000E-01  1.50000000E+00  8.00000000E-01  8.00000000E-01  1.50000000E+00
  8.00000000E-01  8.00000000E-01  1.50000000E+00  8.00000000E-01  8.00000000E-01
  1.50000000E+00  8.00000000E-01  8.00000000E-01  1.50000000E+00  8.00000000E-01
  8.00000000E-01  1.50000000E+00  8.00000000E-01  8.00000000E-01  1.50000000E+00
  8.00000000E-01  8.00000000E-01  1.50000000E+00  8.00000000E-01  8.00000000E-01
  1.50000000E+00  8.00000000E-01  8.00000000E-01  1.50000000E+00  8.00000000E-01
  8.00000000E-01  1.50000000E+00  8.00000000E-01  8.00000000E-01  1.50000000E+00
  8.00000000E-01  8.00000000E-01  1.50000000E+00  8.00000000E-01  8.00000000E-01
  1.50000000E+00  8.00000000E-01  8.00000000E-01  1.50000000E+00  8.00000000E-01
  8.00000000E-01  1.50000000E+00  8.00000000E-01  8.00000000E-01  1.50000000E+00
  8.00000000E-01  8.00000000E-01  1.50000000E+00  8.00000000E-01  8.00000000E-01
  1.50000000E+00  8.00000000E-01  8.00000000E-01  1.50000000E+00  8.00000000E-01
  8.00000000E-01  1.50000000E+00  8.00000000E-01  8.00000000E-01  1.50000000E+00
  8.00000000E-01  8.00000000E-01  1.50000000E+00  8.00000000E-01  8.00000000E-01
  1.50000000E+00  8.00000000E-01  8.00000000E-01  1.50000000E+00  8.00000000E-01
  8.00000000E-01  1.50000000E+00  8.00000000E-01  8.00000000E-01  1.50000000E+00
  8.00000000E-01  8.00000000E-01  1.50000000E+00  8.00000000E-01  8.00000000E-01
  1.50000000E+00  8.00000000E-01  8.00000000E-01  1.50000000E+00  8.00000000E-01
  8.00000000E-01  1.50000000E+00  8.00000000E-01  8.00000000E-01  1.50000000E+00
  8.00000000E-01  8.00000000E-01  1.50000000E+00  8.00000000E-01  8.00000000E-01
  1.50000000E+00  8.00000000E-01  8.00000000E-01  1.50000000E+00  8.00000000E-01
  8.00000000E-01  1.50000000E+00  8.00000000E-01  8.00000000E-01  1.50000000E+00
  8.00000000E-01  8.00000000E-01  1.50000000E+00  8.00000000E-01  8.00000000E-01
  1.50000000E+00  8.00000000E-01  8.00000000E-01  1.50000000E+00  8.00000000E-01
  8.00000000E-01  1.50000000E+00  8.00000000E-01  8.00000000E-01  1.50000000E+00
  8.00000000E-01  8.00000000E-01  1.50000000E+00  8.00000000E-01  8.00000000E-01
  1.50000000E+00  8.00000000E-01  8.00000000E-01  1.50000000E+00  8.00000000E-01
  8.00000000E-01  1.50000000E+00  8.00000000E-01  8.00000000E-01  1.50000000E+00
  8.00000000E-01  8.00000000E-01  1.50000000E+00  8.00000000E-01  8.00000000E-01
  1.50000000E+00  8.00000000E-01  8.00000000E-01  1.50000000E+00  8.00000000E-01
  8.00000000E-01  1.50000000E+00  8.00000000E-01  8.00000000E-01  1.50000000E+00
  8.00000000E-01  8.00000000E-01  1.50000000E+00  8.00000000E-01  8.00000000E-01
  1.50000000E+00  8.00000000E-01  8.00000000E-01  1.50000000E+00  8.00000000E-01
  8.00000000E-01  1.50000000E+00  8.00000000E-01  8.00000000E-01  1.50000000E+00
  8.00000000E-01  8.00000000E-01  1.50000000E+00  8.00000000E-01  8.00000000E-01
  1.50000000E+00  8.00000000E-01  8.00000000E-01  1.50000000E+00  8.00000000E-01
  8.00000000E-01  1.50000000E+00  8.00000000E-01  8.00000000E-01  1.50000000E+00
  8.00000000E-01  8.00000000E-01  1.50000000E+00  8.00000000E-01  8.00000000E-01
  1.50000000E+00  8.00000000E-01  8.00000000E-01  1.50000000E+00  8.00000000E-01
  8.00000000E-01  1.50000000E+00  8.00000000E-01  8.00000000E-01  1.50000000E+00
  8.00000000E-01  8.00000000E-01  1.50000000E+00  8.00000000E-01  8.00000000E-01
  1.50000000E+00  8.00000000E-01  8.00000000E-01  1.50000000E+00  8.00000000E-01
  8.00000000E-01  1.50000000E+00  8.00000000E-01  8.00000000E-01  1.50000000E+00
  8.00000000E-01  8.00000000E-01  1.50000000E+00  8.00000000E-01  8.00000000E-01
  1.50000000E+00  8.00000000E-01  8.00000000E-01  1.50000000E+00  8.00000000E-01
  8.00000000E-01  1.50000000E+00  8.00000000E-01  8.00000000E-01  1.50000000E+00
  8.00000000E-01  8.00000000E-01  1.50000000E+00  8.00000000E-01  8.00000000E-01
  1.50000000E+00  8.00000000E-01  8.00000000E-01  1.50000000E+00  8.00000000E-01
  8.00000000E-01  1.50000000E+00  8.00000000E-01  8.00000000E-01  1.50000000E+00
  8.00000000E-01  8.00000000E-01  1.50000000E+00  8.00000000E-01  8.00000000E-01
  1.50000000E+00  8.00000000E-01  8.00000000E-01  1.50000000E+00  8.00000000E-01
  8.00000000E-01  1.50000000E+00  8.00000000E-01  8.00000000E-01  1.50000000E+00
  8.00000000E-01  8.00000000E-01  1.50000000E+00  8.00000000E-01  8.00000000E-01
  1.50000000E+00  8.00000000E-01  8.00000000E-01  1.50000000E+00  8.00000000E-01
  8.00000000E-01  1.50000000E+00  8.00000000E-01  8.00000000E-01  1.50000000E+00
  8.00000000E-01  8.00000000E-01  1.50000000E+00  8.00000000E-01  8.00000000E-01
  1.50000000E+00  8.00000000E-01  8.00000000E-01  1.50000000E+00  8.00000000E-01
  8.00000000E-01  1.50000000E+00  8.00000000E-01  8.00000000E-01  1.50000000E+00
  8.00000000E-01  8.00000000E-01  1.50000000E+00  8.00000000E-01  8.00000000E-01
  1.50000000E+00  8.00000000E-01  8.00000000E-01  1.50000000E+00  8.00000000E-01
  8.00000000E-01  1.50000000E+00  8.00000000E-01  8.00000000E-01  1.50000000E+00
  8.00000000E-01  8.00000000E-01  1.50000000E+00  8.00000000E-01  8.00000000E-01
  1.50000000E+00  8.00000000E-01  8.00000000E-01  1.50000000E+00  8.00000000E-01
  8.00000000E-01  1.50000000E+00  8.00000000E-01  8.00000000E-01  1.50000000E+00
  8.00000000E-01  8.00000000E-01  1.50000000E+00  8.00000000E-01  8.00000000E-01
  1.50000000E+00  8.00000000E-01  8.00000000E-01  1.50000000E+00  8.00000000E-01
  8.00000000E-01  1.50000000E+00  8.00000000E-01  8.00000000E-01  1.50000000E+00
  8.00000000E-01  8.00000000E-01  1.50000000E+00  8.00000000E-01  8.00000000E-01
  1.50000000E+00  8.00000000E-01  8.00000000E-01  1.50000000E+00  8.00000000E-01
  8.00000000E-01  1.50000000E+00  8.00000000E-01  8.00000000E-01  1.50000000E+00
  8.00000000E-01  8.00000000E-01  1.50000000E+00  8.00000000E-01  8.00000000E-01
  1.50000000E+00  8.00000000E-01  8.00000000E-01  1.50000000E+00  8.00000000E-01
  8.00000000E-01  1.50000000E+00  8.00000000E-01  8.00000000E-01  1.50000000E+00
  8.00000000E-01  8.00000000E-01  1.50000000E+00  8.00000000E-01  8.00000000E-01
  1.50000000E+00  8.00000000E-01  8.00000000E-01  1.50000000E+00  8.00000000E-01
  8.00000000E-01  1.50000000E+00  8.00000000E-01  8.00000000E-01  1.50000000E+00
  8.00000000E-01  8.00000000E-01  1.50000000E+00  8.00000000E-01  8.00000000E-01
  1.50000000E+00  8.00000000E-01  8.00000000E-01  1.50000000E+00  8.00000000E-01
  8.00000000E-01  1.50000000E+00  8.00000000E-01  8.00000000E-01  1.50000000E+00
  8.00000000E-01  8.00000000E-01  1.50000000E+00  8.00000000E-01  8.00000000E-01
  1.50000000E+00  8.00000000E-01  8.00000000E-01  1.50000000E+00  8.00000000E-01
  8.00000000E-01  1.50000000E+00  8.00000000E-01  8.00000000E-01  1.50000000E+00
  8.00000000E-01  8.00000000E-01  1.50000000E+00  8.00000000E-01  8.00000000E-01
  1.50000000E+00  8.00000000E-01  8.00000000E-01  1.50000000E+00  8.00000000E-01
  8.00000000E-01  1.50000000E+00  8.00000000E-01  8.00000000E-01  1.50000000E+00
  8.00000000E-01  8.00000000E-01  1.50000000E+00  8.00000000E-01  8.00000000E-01
  1.50000000E+00  8.00000000E-01  8.00000000E-01  1.50000000E+00  8.00000000E-01
  8.00000000E-01  1.50000000E+00  8.00000000E-01  8.00000000E-01  1.50000000E+00
  8.00000000E-01  8.00000000E-01  1.50000000E+00  8.00000000E-01  8.00000000E-01
  1.50000000E+00  8.00000000E-01  8.00000000E-01  1.50000000E+00  8.00000000E-01
  8.00000000E-01  1.50000000E+00  8.00000000E-01  8.00000000E-01  1.50000000E+00
  8.00000000E-01  8.00000000E-01  1.50000000E+00  8.00000000E-01  8.00000000E-01
  1.50000000E+00  8.00000000E-01  8.00000000E-01  1.50000000E+00  8.00000000E-01
  8.00000000E-01  1.50000000E+00  8.00000000E-01  8.00000000E-01  1.50000000E+00
  8.00000000E-01  8.00000000E-01  1.50000000E+00  8.00000000E-01  8.00000000E-01
  1.50000000E+00  8.00000000E-01  8.00000000E-01  1.50000000E+00  8.00000000E-01
  8.00000000E-01  1.50000000E+00  8.00000000E-01  8.00000000E-01  1.50000000E+00
  8.00000000E-01  8.00000000E-01  1.50000000E+00  8.00000000E-01  8.00000000E-01
  1.50000000E+00  8.00000000E-01  8.00000000E-01  1.50000000E+00  8.00000000E-01
  8.00000000E-01  1.50000000E+00  8.00000000E-01  8.00000000E-01  1.50000000E+00
  8.00000000E-01  8.00000000E-01  1.50000000E+00  8.00000000E-01  8.00000000E-01
  1.50000000E+00  8.00000000E-01  8.00000000E-01  1.50000000E+00  8.00000000E-01
  8.00000000E-01  1.50000000E+00  8.00000000E-01  8.00000000E-01  1.50000000E+00
  8.00000000E-01  8.00000000E-01  1.50000000E+00  8.00000000E-01  8.00000000E-01
  1.50000000E+00  8.00000000E-01  8.00000000E-01  1.50000000E+00  8.00000000E-01
  8.00000000E-01  1.50000000E+00  8.00000000E-01  8.00000000E-01  1.50000000E+00
  8.00000000E-01  8.00000000E-01  1.50000000E+00  8.00000000E-01  8.00000000E-01
  1.50000000E+00  8.00000000E-01  8.00000000E-01  1.50000000E+00  8.00000000E-01
  8.00000000E-01  1.50000000E+00  8.00000000E-01  8.00000000E-01  1.50000000E+00
  8.00000000E-01  8.00000000E-01  1.50000000E+00  8.00000000E-01  8.00000000E-01
  1.50000000E+00  8.00000000E-01  8.00000000E-01  1.50000000E+00  8.00000000E-01
  8.00000000E-01  1.50000000E+00  8.00000000E-01  8.00000000E-01  1.50000000E+00
  8.00000000E-01  8.00000000E-01  1.50000000E+00  8.00000000E-01  8.00000000E-01
  1.50000000E+00  8.00000000E-01  8.00000000E-01  1.50000000E+00  8.00000000E-01
  8.00000000E-01  1.50000000E+00  8.00000000E-01  8.00000000E-01  1.50000000E+00
  8.00000000E-01  8.00000000E-01  1.50000000E+00  8.00000000E-01  8.00000000E-01
  1.50000000E+00  8.00000000E-01  8.00000000E-01  1.50000000E+00  8.00000000E-01
  8.00000000E-01  1.50000000E+00  8.00000000E-01  8.00000000E-01  1.50000000E+00
  8.00000000E-01  8.00000000E-01  1.50000000E+00  8.00000000E-01  8.00000000E-01
  1.50000000E+00  8.00000000E-01  8.00000000E-01  1.50000000E+00  8.00000000E-01
  8.00000000E-01  1.50000000E+00  8.00000000E-01  8.00000000E-01  1.50000000E+00
  8.00000000E-01  8.00000000E-01  1.50000000E+00  8.00000000E-01  8.00000000E-01
  1.50000000E+00  8.00000000E-01  8.00000000E-01  1.50000000E+00  8.00000000E-01
  8.00000000E-01  1.50000000E+00  8.00000000E-01  8.00000000E-01  1.50000000E+00
  8.00000000E-01  8.00000000E-01  1.50000000E+00  8.00000000E-01  8.00000000E-01
  1.50000000E+00  8.00000000E-01  8.00000000E-01  1.50000000E+00  8.00000000E-01
  8.00000000E-01  1.50000000E+00  8.00000000E-01  8.00000000E-01  1.50000000E+00
  8.00000000E-01  8.00000000E-01  1.50000000E+00  8.00000000E-01  8.00000000E-01
  1.50000000E+00  8.00000000E-01  8.00000000E-01  1.50000000E+00  8.00000000E-01
  8.00000000E-01  1.50000000E+00  8.00000000E-01  8.00000000E-01  1.50000000E+00
  8.00000000E-01  8.00000000E-01  1.50000000E+00  8.00000000E-01  8.00000000E-01
  1.50000000E+00  8.00000000E-01  8.00000000E-01  1.50000000E+00  8.00000000E-01
  8.00000000E-01  1.50000000E+00  8.00000000E-01  8.00000000E-01  1.50000000E+00
  8.00000000E-01  8.00000000E-01  1.50000000E+00  8.00000000E-01  8.00000000E-01
  1.50000000E+00  8.00000000E-01  8.00000000E-01  1.50000000E+00  8.00000000E-01
  8.00000000E-01  1.50000000E+00  8.00000000E-01  8.00000000E-01  1.50000000E+00
  8.00000000E-01  8.00000000E-01  1.50000000E+00  8.00000000E-01  8.00000000E-01
  1.50000000E+00  8.00000000E-01  8.00000000E-01  1.50000000E+00  8.00000000E-01
  8.00000000E-01  1.50000000E+00  8.00000000E-01  8.00000000E-01  1.50000000E+00
  8.00000000E-01  8.00000000E-01  1.50000000E+00  8.00000000E-01  8.00000000E-01
  1.50000000E+00  8.00000000E-01  8.00000000E-01  1.50000000E+00  8.00000000E-01
  8.00000000E-01  1.50000000E+00  8.00000000E-01  8.00000000E-01  1.50000000E+00
  8.00000000E-01  8.00000000E-01  1.50000000E+00  8.00000000E-01  8.00000000E-01
  1.50000000E+00  8.00000000E-01  8.00000000E-01  1.50000000E+00  8.00000000E-01
  8.00000000E-01  1.50000000E+00  8.00000000E-01  8.00000000E-01  1.50000000E+00
  8.00000000E-01  8.00000000E-01  1.50000000E+00  8.00000000E-01  8.00000000E-01
  1.50000000E+00  8.00000000E-01  8.00000000E-01  1.50000000E+00  8.00000000E-01
  8.00000000E-01  1.50000000E+00  8.00000000E-01  8.00000000E-01  1.50000000E+00
  8.00000000E-01  8.00000000E-01  1.50000000E+00  8.00000000E-01  8.00000000E-01
  1.50000000E+00  8.00000000E-01  8.00000000E-01  1.50000000E+00  8.00000000E-01
  8.00000000E-01  1.50000000E+00  8.00000000E-01  8.00000000E-01  1.50000000E+00
  8.00000000E-01  8.00000000E-01  1.50000000E+00  8.00000000E-01  8.00000000E-01
  1.50000000E+00  8.00000000E-01  8.00000000E-01  1.50000000E+00  8.00000000E-01
  8.00000000E-01  1.50000000E+00  8.00000000E-01  8.00000000E-01  1.50000000E+00
  8.00000000E-01  8.00000000E-01  1.50000000E+00  8.00000000E-01  8.00000000E-01
  1.50000000E+00  8.00000000E-01  8.00000000E-01  1.50000000E+00  8.00000000E-01
  8.00000000E-01  1.50000000E+00  8.00000000E-01  8.00000000E-01  1.50000000E+00
  8.00000000E-01  8.00000000E-01  1.50000000E+00  8.00000000E-01  8.00000000E-01
  1.50000000E+00  8.00000000E-01  8.00000000E-01  1.50000000E+00  8.00000000E-01
  8.00000000E-01  1.50000000E+00  8.00000000E-01  8.00000000E-01  1.50000000E+00
  8.00000000E-01  8.00000000E-01  1.50000000E+00  8.00000000E-01  8.00000000E-01
  1.50000000E+00  8.00000000E-01  8.00000000E-01  1.50000000E+00  8.00000000E-01
  8.00000000E-01  1.50000000E+00  8.00000000E-01  8.00000000E-01  1.50000000E+00
  8.00000000E-01  8.00000000E-01  1.50000000E+00  8.00000000E-01  8.00000000E-01
  1.50000000E+00  8.00000000E-01  8.00000000E-01  1.50000000E+00  8.00000000E-01
  8.00000000E-01  1.50000000E+00  8.00000000E-01  8.00000000E-01  1.50000000E+00
  8.00000000E-01  8.00000000E-01  1.50000000E+00  8.00000000E-01  8.00000000E-01
  1.50000000E+00  8.00000000E-01  8.00000000E-01  1.50000000E+00  8.00000000E-01
  8.00000000E-01  1.50000000E+00  8.00000000E-01  8.00000000E-01  1.50000000E+00
  8.00000000E-01  8.00000000E-01  1.50000000E+00  8.00000000E-01  8.00000000E-01
  1.50000000E+00  8.00000000E-01  8.00000000E-01  1.50000000E+00  8.00000000E-01
  8.00000000E-01  1.50000000E+00  8.00000000E-01  8.00000000E-01  1.50000000E+00
  8.00000000E-01  8.00000000E-01  1.50000000E+00  8.00000000E-01  8.00000000E-01
  1.50000000E+00  8.00000000E-01  8.00000000E-01  1.50000000E+00  8.00000000E-01
  8.00000000E-01  1.50000000E+00  8.00000000E-01  8.00000000E-01  1.50000000E+00
  8.00000000E-01  8.00000000E-01  1.50000000E+00  8.00000000E-01  8.00000000E-01
  1.50000000E+00  8.00000000E-01  8.00000000E-01  1.50000000E+00  8.00000000E-01
  8.00000000E-01  1.50000000E+00  8.00000000E-01  8.00000000E-01  1.50000000E+00
  8.00000000E-01  8.00000000E-01  1.50000000E+00  8.00000000E-01  8.00000000E-01
  1.50000000E+00  8.00000000E-01  8.00000000E-01  1.50000000E+00  8.00000000E-01
  8.00000000E-01  1.50000000E+00  8.00000000E-01  8.00000000E-01  1.50000000E+00
  8.00000000E-01  8.00000000E-01  1.50000000E+00  8.00000000E-01  8.00000000E-01
  1.50000000E+00  8.00000000E-01  8.00000000E-01  1.50000000E+00  8.00000000E-01
  8.00000000E-01  1.50000000E+00  8.00000000E-01  8.00000000E-01  1.50000000E+00
  8.00000000E-01  8.00000000E-01  1.50000000E+00  8.00000000E-01  8.00000000E-01
  1.50000000E+00  8.00000000E-01  8.00000000E-01  1.50000000E+00  8.00000000E-01
  8.00000000E-01  1.50000000E+00  8.00000000E-01  8.00000000E-01  1.50000000E+00
  8.00000000E-01  8.00000000E-01  1.50000000E+00  8.00000000E-01  8.00000000E-01
  1.50000000E+00  8.00000000E-01  8.00000000E-01  1.50000000E+00  8.00000000E-01
  8.00000000E-01  1.50000000E+00  8.00000000E-01  8.00000000E-01  1.50000000E+00
  8.00000000E-01  8.00000000E-01  1.50000000E+00  8.00000000E-01  8.00000000E-01
  1.50000000E+00  8.00000000E-01  8.00000000E-01  1.50000000E+00  8.00000000E-01
  8.00000000E-01  1.50000000E+00  8.00000000E-01  8.00000000E-01  1.50000000E+00
  8.00000000E-01  8.00000000E-01  1.50000000E+00  8.00000000E-01  8.00000000E-01
  1.50000000E+00  8.00000000E-01  8.00000000E-01  1.50000000E+00  8.00000000E-01
  8.00000000E-01  1.50000000E+00  8.00000000E-01  8.00000000E-01
%FLAG SCREEN                                                                    
%FORMAT(5E16.8)                                                                 
  7.20000000E-01  7.20000000E-01  7.20000000E-01  7.20000000E-01  7.20000000E-01
  7.20000000E-01  7.20000000E-01  7.20000000E-01  7.20000000E-01  7.20000000E-01
  7.20000000E-01  7.20000000E-01  7.20000000E-01  7.20000000E-01  7.20000000E-01
  7.20000000E-01  8.50000000E-01  8.50000000E-01  8.50000000E-01  8.50000000E-01
  8.50000000E-01  8.50000000E-01  8.50000000E-01  8.50000000E-01  8.50000000E-01
  8.50000000E-01  7.20000000E-01  8.50000000E-01  8.50000000E-01  8.50000000E-01
  7.20000000E-01  7.20000000E-01  8.50000000E-01  7.20000000E-01  7.20000000E-01
  7.20000000E-01  7.20000000E-01  7.20000000E-01  7.20000000E-01  8.50000000E-01
  7.90000000E-01  7.20000000E-01  7.20000000E-01  7.20000000E-01  7.20000000E-01
  8.50000000E-01  7.20000000E-01  7.20000000E-01  8.50000000E-01  7.20000000E-01
  7.20000000E-01  8.50000000E-01  8.50000000E-01  7.20000000E-01  8.50000000E-01
  7.20000000E-01  8.50000000E-01  7.20000000E-01  8.50000000E-01  8.50000000E-01
  8.50000000E-01  8.50000000E-01  8.50000000E-01  8.50000000E-01  8.50000000E-01
  8.50000000E-01  8.50000000E-01  8.50000000E-01  8.50000000E-01  8.50000000E-01
  8.50000000E-01  8.50000000E-01  8.50000000E-01  8.50000000E-01  8.50000000E-01
  8.50000000E-01  8.50000000E-01  8.50000000E-01  8.50000000E-01  8.50000000E-01
  8.50000000E-01  8.50000000E-01  8.50000000E-01  8.50000000E-01  8.50000000E-01
  7.20000000E-01  7.20000000E-01  8.50000000E-01  7.20000000E-01  7.20000000E-01
  7.20000000E-01  7.20000000E-01  7.20000000E-01  7.20000000E-01  8.50000000E-01
  7.90000000E-01  7.20000000E-01  7.20000000E-01  7.20000000E-01  7.20000000E-01
  8.50000000E-01  7.20000000E-01  7.20000000E-01  8.50000000E-01  7.20000000E-01
  7.20000000E-01  8.50000000E-01  8.50000000E-01  7.20000000E-01  8.50000000E-01
  7.20000000E-01  8.50000000E-01  7.20000000E-01  8.50000000E-01  8.50000000E-01
  8.50000000E-01  8.50000000E-01  8.50000000E-01  8.50000000E-01  8.50000000E-01
  8.50000000E-01  8.50000000E-01  8.50000000E-01  8.50000000E-01  8.50000000E-01
  8.50000000E-01  8.50000000E-01  8.50000000E-01  8.50000000E-01  8.50000000E-01
  8.50000000E-01  8.50000000E-01  8.50000000E-01  8.50000000E-01  8.50000000E-01
  8.50000000E-01  8.50000000E-01  8.50000000E-01  8.50000000E-01  8.50000000E-01
  7.20000000E-01  7.20000000E-01  8.50000000E-01  7.20000000E-01  7.20000000E-01
  7.20000000E-01  7.20000000E-01  7.20000000E-01  7.20000000E-01  8.50000000E-01
  7.90000000E-01  7.20000000E-01  7.20000000E-01  7.20000000E-01  7.20000000E-01
  8.50000000E-01  7.20000000E-01  7.20000000E-01  8.50000000E-01  7.20000000E-01
  7.20000000E-01  8.50000000E-01  8.50000000E-01  7.20000000E-01  8.50000000E-01
  7.20000000E-01  8.50000000E-01  7.20000000E-01  8.50000000E-01  8.50000000E-01
  8.50000000E-01  8.50000000E-01  8.50000000E-01  8.50000000E-01  8.50000000E-01
  8.50000000E-01  8.50000000E-01  8.50000000E-01  8.50000000E-01  8.50000000E-01
  8.50000000E-01  8.50000000E-01  8.50000000E-01  8.50000000E-01  8.50000000E-01
  8.50000000E-01  8.50000000E-01  8.50000000E-01  8.50000000E-01  8.50000000E-01
  8.50000000E-01  8.50000000E-01  8.50000000E-01  8.50000000E-01  8.50000000E-01
  7.20000000E-01  7.20000000E-01  8.50000000E-01  7.20000000E-01  7.20000000E-01
  7.20000000E-01  7.20000000E-01  7.20000000E-01  7.20000000E-01  8.50000000E-01
  7.90000000E-01  7.20000000E-01  7.20000000E-01  7.20000000E-01  7.20000000E-01
  8.50000000E-01  7.20000000E-01  7.20000000E-01  8.50000000E-01  7.20000000E-01
  7.20000000E-01  8.50000000E-01  8.50000000E-01  7.20000000E-01  8.50000000E-01
  7.20000000E-01  8.50000000E-01  7.20000000E-01  8.50000000E-01  8.50000000E-01
  8.50000000E-01  8.50000000E-01  8.50000000E-01  8.50000000E-01  8.50000000E-01
  8.50000000E-01  8.50000000E-01  8.50000000E-01  8.50000000E-01  8.50000000E-01
  8.50000000E-01  8.50000000E-01  8.50000000E-01  8.50000000E-01  8.50000000E-01
  8.50000000E-01  8.50000000E-01  8.50000000E-01  8.50000000E-01  8.50000000E-01
  8.50000000E-01  8.50000000E-01  8.50000000E-01  8.50000000E-01  8.50000000E-01
  7.20000000E-01  7.20000000E-01  8.50000000E-01  7.20000000E-01  7.20000000E-01
  7.20000000E-01  7.20000000E-01  7.20000000E-01  7.20000000E-01  8.50000000E-01
  7.90000000E-01  7.20000000E-01  7.20000000E-01  7.20000000E-01  7.20000000E-01
  8.50000000E-01  7.20000000E-01  7.20000000E-01  8.50000000E-01  7.20000000E-01
  7.20000000E-01  8.50000000E-01  8.50000000E-01  7.20000000E-01  8.50000000E-01
  7.20000000E-01  8.50000000E-01  7.20000000E-01  8.50000000E-01  8.50000000E-01
  8.50000000E-01  8.50000000E-01  8.50000000E-01  8.50000000E-01  8.50000000E-01
  8.50000000E-01  8.50000000E-01  8.50000000E-01  8.50000000E-01  8.50000000E-01
  8.50000000E-01  8.50000000E-01  8.50000000E-01  8.50000000E-01  8.50000000E-01
  8.50000000E-01  8.50000000E-01  8.50000000E-01  8.50000000E-01  8.50000000E-01
  8.50000000E-01  8.50000000E-01  8.50000000E-01  8.50000000E-01  8.50000000E-01
  7.20000000E-01  7.20000000E-01  8.50000000E-01  7.20000000E-01  7.20000000E-01
  7.20000000E-01  7.20000000E-01  7.20000000E-01  7.20000000E-01  8.50000000E-01
  7.90000000E-01  7.20000000E-01  7.20000000E-01  7.20000000E-01  7.20000000E-01
  8.50000000E-01  7.20000000E-01  7.20000000E-01  8.50000000E-01  7.20000000E-01
  7.20000000E-01  8.50000000E-01  8.50000000E-01  7.20000000E-01  8.50000000E-01
  7.20000000E-01  8.50000000E-01  7.20000000E-01  8.50000000E-01  8.50000000E-01
  8.50000000E-01  8.50000000E-01  8.50000000E-01  8.50000000E-01  8.50000000E-01
  8.50000000E-01  8.50000000E-01  8.50000000E-01  8.50000000E-01  8.50000000E-01
  8.50000000E-01  8.50000000E-01  8.50000000E-01  8.50000000E-01  8.50000000E-01
  8.50000000E-01  8.50000000E-01  8.50000000E-01  8.50000000E-01  8.50000000E-01
  8.50000000E-01  8.50000000E-01  8.50000000E-01  8.50000000E-01  8.50000000E-01
  7.20000000E-01  7.20000000E-01  8.50000000E-01  7.20000000E-01  7.20000000E-01
  7.20000000E-01  7.20000000E-01  7.20000000E-01  7.20000000E-01  8.50000000E-01
  7.90000000E-01  7.20000000E-01  7.20000000E-01  7.20000000E-01  7.20000000E-01
  8.50000000E-01  7.20000000E-01  7.20000000E-01  8.50000000E-01  7.20000000E-01
  7.20000000E-01  8.50000000E-01  8.50000000E-01  7.20000000E-01  8.50000000E-01
  7.20000000E-01  8.50000000E-01  7.20000000E-01  8.50000000E-01  8.50000000E-01
  8.50000000E-01  8.50000000E-01  8.50000000E-01  8.50000000E-01  8.50000000E-01
  8.50000000E-01  8.50000000E-01  8.50000000E-01  8.50000000E-01  8.50000000E-01
  8.50000000E-01  8.50000000E-01  8.50000000E-01  8.50000000E-01  8.50000000E-01
  8.50000000E-01  8.50000000E-01  8.50000000E-01  8.50000000E-01  8.50000000E-01
  8.50000000E-01  8.50000000E-01  8.50000000E-01  8.50000000E-01  8.50000000E-01
  7.20000000E-01  7.20000000E-01  8.50000000E-01  7.20000000E-01  7.20000000E-01
  7.20000000E-01  7.20000000E-01  7.20000000E-01  7.20000000E-01  8.50000000E-01
  7.90000000E-01  7.20000000E-01  7.20000000E-01  7.20000000E-01  7.20000000E-01
  8.50000000E-01  7.20000000E-01  7.20000000E-01  8.50000000E-01  7.20000000E-01
  7.20000000E-01  8.50000000E-01  8.50000000E-01  7.20000000E-01  8.50000000E-01
  7.20000000E-01  8.50000000E-01  7.20000000E-01  8.50000000E-01  8.50000000E-01
  8.50000000E-01  8.50000000E-01  8.50000000E-01  8.50000000E-01  8.50000000E-01
  8.50000000E-01  8.50000000E-01  8.50000000E-01  8.50000000E-01  8.50000000E-01
  8.50000000E-01  8.50000000E-01  8.50000000E-01  8.50000000E-01  8.50000000E-01
  8.50000000E-01  8.50000000E-01  8.50000000E-01  8.50000000E-01  8.50000000E-01
  8.50000000E-01  8.50000000E-01  8.50000000E-01  8.50000000E-01  8.50000000E-01
  7.20000000E-01  7.20000000E-01  8.50000000E-01  7.20000000E-01  7.20000000E-01
  7.20000000E-01  7.20000000E-01  7.20000000E-01  7.20000000E-01  8.50000000E-01
  7.90000000E-01  7.20000000E-01  7.20000000E-01  7.20000000E-01  7.20000000E-01
  8.50000000E-01  7.20000000E-01  7.20000000E-01  8.50000000E-01  7.20000000E-01
  7.20000000E-01  8.50000000E-01  8.50000000E-01  7.20000000E-01  8.50000000E-01
  7.20000000E-01  8.50000000E-01  7.20000000E-01  8.50000000E-01  8.50000000E-01
  8.50000000E-01  8.50000000E-01  8.50000000E-01  8.50000000E-01  8.50000000E-01
  8.50000000E-01  8.50000000E-01  8.50000000E-01  8.50000000E-01  8.50000000E-01
  8.50000000E-01  8.50000000E-01  8.50000000E-01  8.50000000E-01  8.50000000E-01
  8.50000000E-01  8.50000000E-01  8.50000000E-01  8.50000000E-01  8.50000000E-01
  8.50000000E-01  8.50000000E-01  8.50000000E-01  8.50000000E-01  8.50000000E-01
  7.20000000E-01  7.20000000E-01  8.50000000E-01  7.20000000E-01  7.20000000E-01
  7.20000000E-01  7.20000000E-01  7.20000000E-01  7.20000000E-01  8.50000000E-01
  7.90000000E-01  7.20000000E-01  7.20000000E-01  7.20000000E-01  7.20000000E-01
  8.50000000E-01  7.20000000E-01  7.20000000E-01  8.50000000E-01  7.20000000E-01
  7.20000000E-01  8.50000000E-01  8.50000000E-01  7.20000000E-01  8.50000000E-01
  7.20000000E-01  8.50000000E-01  7.20000000E-01  8.50000000E-01  8.50000000E-01
  8.50000000E-01  8.50000000E-01  8.50000000E-01  8.50000000E-01  8.50000000E-01
  8.50000000E-01  8.50000000E-01  8.50000000E-01  8.50000000E-01  8.50000000E-01
  8.50000000E-01  8.50000000E-01  8.50000000E-01  8.50000000E-01  8.50000000E-01
  8.50000000E-01  8.50000000E-01  8.50000000E-01  8.50000000E-01  8.50000000E-01
  8.50000000E-01  8.50000000E-01  8.50000000E-01  8.50000000E-01  7.20000000E-01
  8.50000000E-01  8.50000000E-01  7.20000000E-01  8.50000000E-01  8.50000000E-01
  8.50000000E-01  7.20000000E-01  7.20000000E-01  8.50000000E-01  7.20000000E-01
  7.20000000E-01  7.20000000E-01  7.20000000E-01  7.20000000E-01  7.20000000E-01
  8.50000000E-01  7.90000000E-01  7.20000000E-01  7.20000000E-01  7.20000000E-01
  7.20000000E-01  8.50000000E-01  7.20000000E-01  7.20000000E-01  8.50000000E-01
  7.20000000E-01  7.20000000E-01  8.50000000E-01  8.50000000E-01  7.20000000E-01
  8.50000000E-01  7.20000000E-01  8.50000000E-01  7.20000000E-01  8.50000000E-01
  8.50000000E-01  8.50000000E-01  8.50000000E-01  8.50000000E-01  8.50000000E-01
  8.50000000E-01  8.50000000E-01  8.50000000E-01  8.50000000E-01  8.50000000E-01
  8.50000000E-01  8.50000000E-01  8.50000000E-01  8.50000000E-01  8.50000000E-01
  8.50000000E-01  8.50000000E-01  8.50000000E-01  8.50000000E-01  8.50000000E-01
  8.50000000E-01  8.50000000E-01  8.50000000E-01  8.50000000E-01  8.50000000E-01
  8.50000000E-01  7.20000000E-01  7.20000000E-01  8.50000000E-01  7.20000000E-01
  7.20000000E-01  7.20000000E-01  7.20000000E-01  7.20000000E-01  7.20000000E-01
  8.50000000E-01  7.90000000E-01  7.20000000E-01  7.20000000E-01  7.20000000E-01
  7.20000000E-01  8.50000000E-01  7.20000000E-01  7.20000000E-01  8.50000000E-01
  7.20000000E-01  7.20000000E-01  8.50000000E-01  8.50000000E-01  7.20000000E-01
  8.50000000E-01  7.20000000E-01  8.50000000E-01  7.20000000E-01  8.50000000E-01
  8.50000000E-01  8.50000000E-01  8.50000000E-01  8.50000000E-01  8.50000000E-01
  8.50000000E-01  8.50000000E-01  8.50000000E-01  8.50000000E-01  8.50000000E-01
  8.50000000E-01  8.50000000E-01  8.50000000E-01  8.50000000E-01  8.50000000E-01
  8.50000000E-01  8.50000000E-01  8.50000000E-01  8.50000000E-01  8.50000000E-01
  8.50000000E-01  8.50000000E-01  8.50000000E-01  8.50000000E-01  8.50000000E-01
  8.50000000E-01  7.20000000E-01  7.20000000E-01  8.50000000E-01  7.20000000E-01
  7.20000000E-01  7.20000000E-01  7.20000000E-01  7.20000000E-01  7.20000000E-01
  8.50000000E-01  7.90000000E-01  7.20000000E-01  7.20000000E-01  7.20000000E-01
  7.20000000E-01  8.50000000E-01  7.20000000E-01  7.20000000E-01  8.50000000E-01
  7.20000000E-01  7.20000000E-01  8.50000000E-01  8.50000000E-01  7.20000000E-01
  8.50000000E-01  7.20000000E-01  8.50000000E-01  7.20000000E-01  8.50000000E-01
  8.50000000E-01  8.50000000E-01  8.50000000E-01  8.50000000E-01  8.50000000E-01
  8.50000000E-01  8.50000000E-01  8.50000000E-01  8.50000000E-01  8.50000000E-01
  8.50000000E-01  8.50000000E-01  8.50000000E-01  8.50000000E-01  8.50000000E-01
  8.50000000E-01  8.50000000E-01  8.50000000E-01  8.50000000E-01  8.50000000E-01
  8.50000000E-01  8.50000000E-01  8.50000000E-01  8.50000000E-01  8.50000000E-01
  8.50000000E-01  7.20000000E-01  7.20000000E-01  8.50000000E-01  7.20000000E-01
  7.20000000E-01  7.20000000E-01  7.20000000E-01  7.20000000E-01  7.20000000E-01
  8.50000000E-01  7.90000000E-01  7.20000000E-01  7.20000000E-01  7.20000000E-01
  7.20000000E-01  8.50000000E-01  7.20000000E-01  7.20000000E-01  8.50000000E-01
  7.20000000E-01  7.20000000E-01  8.50000000E-01  8.50000000E-01  7.20000000E-01
  8.50000000E-01  7.20000000E-01  8.50000000E-01  7.20000000E-01  8.50000000E-01
  8.50000000E-01  8.50000000E-01  8.50000000E-01  8.50000000E-01  8.50000000E-01
  8.50000000E-01  8.50000000E-01  8.50000000E-01  8.50000000E-01  8.50000000E-01
  8.50000000E-01  8.50000000E-01  8.50000000E-01  8.50000000E-01  8.50000000E-01
  8.50000000E-01  8.50000000E-01  8.50000000E-01  8.50000000E-01  8.50000000E-01
  8.50000000E-01  8.50000000E-01  8.50000000E-01  8.50000000E-01  8.50000000E-01
  8.50000000E-01  7.20000000E-01  7.20000000E-01  8.50000000E-01  7.20000000E-01
  7.20000000E-01  7.20000000E-01  7.20000000E-01  7.20000000E-01  7.20000000E-01
  8.50000000E-01  7.90000000E-01  7.20000000E-01  7.20000000E-01  7.20000000E-01
  7.20000000E-01  8.50000000E-01  7.20000000E-01  7.20000000E-01  8.50000000E-01
  7.20000000E-01  7.20000000E-01  8.50000000E-01  8.50000000E-01  7.20000000E-01
  8.50000000E-01  7.20000000E-01  8.50000000E-01  7.20000000E-01  8.50000000E-01
  8.50000000E-01  8.50000000E-01  8.50000000E-01  8.50000000E-01  8.50000000E-01
  8.50000000E-01  8.50000000E-01  8.50000000E-01  8.50000000E-01  8.50000000E-01
  8.50000000E-01  8.50000000E-01  8.50000000E-01  8.50000000E-01  8.50000000E-01
  8.50000000E-01  8.50000000E-01  8.50000000E-01  8.50000000E-01  8.50000000E-01
  8.50000000E-01  8.50000000E-01  8.50000000E-01  8.50000000E-01  8.50000000E-01
  8.50000000E-01  7.20000000E-01  7.20000000E-01  8.50000000E-01  7.20000000E-01
  7.20000000E-01  7.20000000E-01  7.20000000E-01  7.20000000E-01  7.20000000E-01
  8.50000000E-01  7.90000000E-01  7.20000000E-01  7.20000000E-01  7.20000000E-01
  7.20000000E-01  8.50000000E-01  7.20000000E-01  7.20000000E-01  8.50000000E-01
  7.20000000E-01  7.20000000E-01  8.50000000E-01  8.50000000E-01  7.20000000E-01
  8.50000000E-01  7.20000000E-01  8.50000000E-01  7.20000000E-01  8.50000000E-01
  8.50000000E-01  8.50000000E-01  8.50000000E-01  8.50000000E-01  8.50000000E-01
  8.50000000E-01  8.50000000E-01  8.50000000E-01  8.50000000E-01  8.50000000E-01
  8.50000000E-01  8.50000000E-01  8.50000000E-01  8.50000000E-01  8.50000000E-01
  8.50000000E-01  8.50000000E-01  8.50000000E-01  8.50000000E-01  8.50000000E-01
  8.50000000E-01  8.50000000E-01  8.50000000E-01  8.50000000E-01  8.50000000E-01
  8.50000000E-01  7.20000000E-01  7.20000000E-01  8.50000000E-01  7.20000000E-01
  7.20000000E-01  7.20000000E-01  7.20000000E-01  7.20000000E-01  7.20000000E-01
  8.50000000E-01  7.90000000E-01  7.20000000E-01  7.20000000E-01  7.20000000E-01
  7.20000000E-01  8.50000000E-01  7.20000000E-01  7.20000000E-01  8.50000000E-01
  7.20000000E-01  7.20000000E-01  8.50000000E-01  8.50000000E-01  7.20000000E-01
  8.50000000E-01  7.20000000E-01  8.50000000E-01  7.20000000E-01  8.50000000E-01
  8.50000000E-01  8.50000000E-01  8.50000000E-01  8.50000000E-01  8.50000000E-01
  8.50000000E-01  8.50000000E-01  8.50000000E-01  8.50000000E-01  8.50000000E-01
  8.50000000E-01  8.50000000E-01  8.50000000E-01  8.50000000E-01  8.50000000E-01
  8.50000000E-01  8.50000000E-01  8.50000000E-01  8.50000000E-01  8.50000000E-01
  8.50000000E-01  8.50000000E-01  8.50000000E-01  8.50000000E-01  8.50000000E-01
  8.50000000E-01  7.20000000E-01  7.20000000E-01  8.50000000E-01  7.20000000E-01
  7.20000000E-01  7.20000000E-01  7.20000000E-01  7.20000000E-01  7.20000000E-01
  8.50000000E-01  7.90000000E-01  7.20000000E-01  7.20000000E-01  7.20000000E-01
  7.20000000E-01  8.50000000E-01  7.20000000E-01  7.20000000E-01  8.50000000E-01
  7.20000000E-01  7.20000000E-01  8.50000000E-01  8.50000000E-01  7.20000000E-01
  8.50000000E-01  7.20000000E-01  8.50000000E-01  7.20000000E-01  8.50000000E-01
  8.50000000E-01  8.50000000E-01  8.50000000E-01  8.50000000E-01  8.50000000E-01
  8.50000000E-01  8.50000000E-01  8.50000000E-01  8.50000000E-01  8.50000000E-01
  8.50000000E-01  8.50000000E-01  8.50000000E-01  8.50000000E-01  8.50000000E-01
  8.50000000E-01  8.50000000E-01  8.50000000E-01  8.50000000E-01  8.50000000E-01
  8.50000000E-01  8.50000000E-01  8.50000000E-01  8.50000000E-01  8.50000000E-01
  8.50000000E-01  7.20000000E-01  7.20000000E-01  8.50000000E-01  7.20000000E-01
  7.20000000E-01  7.20000000E-01  7.20000000E-01  7.20000000E-01  7.20000000E-01
  8.50000000E-01  7.90000000E-01  7.20000000E-01  7.20000000E-01  7.20000000E-01
  7.20000000E-01  8.50000000E-01  7.20000000E-01  7.20000000E-01  8.50000000E-01
  7.20000000E-01  7.20000000E-01  8.50000000E-01  8.50000000E-01  7.20000000E-01
  8.50000000E-01  7.20000000E-01  8.50000000E-01  7.20000000E-01  8.50000000E-01
  8.50000000E-01  8.50000000E-01  8.50000000E-01  8.50000000E-01  8.50000000E-01
  8.50000000E-01  8.50000000E-01  8.50000000E-01  8.50000000E-01  8.50000000E-01
  8.50000000E-01  8.50000000E-01  8.50000000E-01  8.50000000E-01  8.50000000E-01
  8.50000000E-01  8.50000000E-01  8.50000000E-01  8.50000000E-01  8.50000000E-01
  8.50000000E-01  8.50000000E-01  8.50000000E-01  8.50000000E-01  8.50000000E-01
  8.50000000E-01  7.20000000E-01  7.20000000E-01  8.50000000E-01  7.20000000E-01
  7.20000000E-01  7.20000000E-01  7.20000000E-01  7.20000000E-01  7.20000000E-01
  8.50000000E-01  7.90000000E-01  7.20000000E-01  7.20000000E-01  7.20000000E-01
  7.20000000E-01  8.50000000E-01  7.20000000E-01  7.20000000E-01  8.50000000E-01
  7.20000000E-01  7.20000000E-01  8.50000000E-01  8.50000000E-01  7.20000000E-01
  8.50000000E-01  7.20000000E-01  8.50000000E-01  7.20000000E-01  8.50000000E-01
  8.50000000E-01  8.50000000E-01  8.50000000E-01  8.50000000E-01  8.50000000E-01
  8.50000000E-01  8.50000000E-01  8.50000000E-01  8.50000000E-01  8.50000000E-01
  8.50000000E-01  8.50000000E-01  8.50000000E-01  8.50000000E-01  8.50000000E-01
  8.50000000E-01  8.50000000E-01  8.50000000E-01  8.50000000E-01  8.50000000E-01
  8.50000000E-01  8.50000000E-01  8.50000000E-01  8.50000000E-01  8.50000000E-01
  7.20000000E-01  8.50000000E-01  8.50000000E-01  8.50000000E-01  8.50000000E-01
  8.50000000E-01  8.50000000E-01  8.50000000E-01  8.50000000E-01  8.50000000E-01
  8.50000000E-01  8.50000000E-01  8.50000000E-01  8.50000000E-01  8.50000000E-01
  8.50000000E-01  8.50000000E-01  8.50000000E-01  8.50000000E-01  8.50000000E-01
  8.50000000E-01  8.50000000E-01  8.50000000E-01  8.50000000E-01  8.50000000E-01
  8.50000000E-01  8.50000000E-01  8.50000000E-01  8.50000000E-01  8.50000000E-01
  8.50000000E-01  8.50000000E-01  8.50000000E-01  8.50000000E-01  8.50000000E-01
  8.50000000E-01  8.50000000E-01  8.50000000E-01  8.50000000E-01  8.50000000E-01
  8.50000000E-01  8.50000000E-01  8.50000000E-01  8.50000000E-01  8.50000000E-01
  8.50000000E-01  8.50000000E-01  8.50000000E-01  8.50000000E-01  8.50000000E-01
  8.50000000E-01  8.50000000E-01  8.50000000E-01  8.50000000E-01  8.50000000E-01
  8.50000000E-01  8.50000000E-01  8.50000000E-01  8.50000000E-01  8.50000000E-01
  8.50000000E-01  8.50000000E-01  8.50000000E-01  8.50000000E-01  8.50000000E-01
  8.50000000E-01  8.50000000E-01  8.50000000E-01  8.50000000E-01  8.50000000E-01
  8.50000000E-01  8.50000000E-01  8.50000000E-01  8.50000000E-01  8.50000000E-01
  8.50000000E-01  8.50000000E-01  8.50000000E-01  8.50000000E-01  8.50000000E-01
  8.50000000E-01  8.50000000E-01  8.50000000E-01  8.50000000E-01  8.50000000E-01
  8.50000000E-01  8.50000000E-01  8.50000000E-01  8.50000000E-01  8.50000000E-01
  8.50000000E-01  8.50000000E-01  8.50000000E-01  8.50000000E-01  8.50000000E-01
  8.50000000E-01  8.50000000E-01  8.50000000E-01  8.50000000E-01  8.50000000E-01
  8.50000000E-01  8.50000000E-01  8.50000000E-01  8.50000000E-01  8.50000000E-01
  8.50000000E-01  8.50000000E-01  8.50000000E-01  8.50000000E-01  8.50000000E-01
  8.50000000E-01  8.50000000E-01  8.50000000E-01  8.50000000E-01  8.50000000E-01
  8.50000000E-01  8.50000000E-01  8.50000000E-01  8.50000000E-01  8.50000000E-01
  8.50000000E-01  8.50000000E-01  8.50000000E-01  8.50000000E-01  8.50000000E-01
  8.50000000E-01  8.50000000E-01  8.50000000E-01  8.50000000E-01  8.50000000E-01
  8.50000000E-01  8.50000000E-01  8.50000000E-01  8.50000000E-01  8.50000000E-01
  8.50000000E-01  8.50000000E-01  8.50000000E-01  8.50000000E-01  8.50000000E-01
  8.50000000E-01  8.50000000E-01  8.50000000E-01  8.50000000E-01  8.50000000E-01
  8.50000000E-01  8.50000000E-01  8.50000000E-01  8.50000000E-01  8.50000000E-01
  8.50000000E-01  8.50000000E-01  8.50000000E-01  8.50000000E-01  8.50000000E-01
  8.50000000E-01  8.50000000E-01  8.50000000E-01  8.50000000E-01  8.50000000E-01
  8.50000000E-01  8.50000000E-01  8.50000000E-01  8.50000000E-01  8.50000000E-01
  8.50000000E-01  8.50000000E-01  8.50000000E-01  8.50000000E-01  8.50000000E-01
  8.50000000E-01  8.50000000E-01  8.50000000E-01  8.50000000E-01  8.50000000E-01
  8.50000000E-01  8.50000000E-01  8.50000000E-01  8.50000000E-01  8.50000000E-01
  8.50000000E-01  8.50000000E-01  8.50000000E-01  8.50000000E-01  8.50000000E-01
  8.50000000E-01  8.50000000E-01  8.50000000E-01  8.50000000E-01  8.50000000E-01
  8.50000000E-01  8.50000000E-01  8.50000000E-01  8.50000000E-01  8.50000000E-01
  8.50000000E-01  8.50000000E-01  8.50000000E-01  8.50000000E-01  8.50000000E-01
  8.50000000E-01  8.50000000E-01  8.50000000E-01  8.50000000E-01  8.50000000E-01
  8.50000000E-01  8.50000000E-01  8.50000000E-01  8.50000000E-01  8.50000000E-01
  8.50000000E-01  8.50000000E-01  8.50000000E-01  8.50000000E-01  8.50000000E-01
  8.50000000E-01  8.50000000E-01  8.50000000E-01  8.50000000E-01  8.50000000E-01
  8.50000000E-01  8.50000000E-01  8.50000000E-01  8.50000000E-01  8.50000000E-01
  8.50000000E-01  8.50000000E-01  8.50000000E-01  8.50000000E-01  8.50000000E-01
  8.50000000E-01  8.50000000E-01  8.50000000E-01  8.50000000E-01  8.50000000E-01
  8.50000000E-01  8.50000000E-01  8.50000000E-01  8.50000000E-01  8.50000000E-01
  8.50000000E-01  8.50000000E-01  8.50000000E-01  8.50000000E-01  8.50000000E-01
  8.50000000E-01  8.50000000E-01  8.50000000E-01  8.50000000E-01  8.50000000E-01
  8.50000000E-01  8.50000000E-01  8.50000000E-01  8.50000000E-01  8.50000000E-01
  8.50000000E-01  8.50000000E-01  8.50000000E-01  8.50000000E-01  8.50000000E-01
  8.50000000E-01  8.50000000E-01  8.50000000E-01  8.50000000E-01  8.50000000E-01
  8.50000000E-01  8.50000000E-01  8.50000000E-01  8.50000000E-01  8.50000000E-01
  8.50000000E-01  8.50000000E-01  8.50000000E-01  8.50000000E-01  8.50000000E-01
  8.50000000E-01  8.50000000E-01  8.50000000E-01  8.50000000E-01  8.50000000E-01
  8.50000000E-01  8.50000000E-01  8.50000000E-01  8.50000000E-01  8.50000000E-01
  8.50000000E-01  8.50000000E-01  8.50000000E-01  8.50000000E-01  8.50000000E-01
  8.50000000E-01  8.50000000E-01  8.50000000E-01  8.50000000E-01  8.50000000E-01
  8.50000000E-01  8.50000000E-01  8.50000000E-01  8.50000000E-01  8.50000000E-01
  8.50000000E-01  8.50000000E-01  8.50000000E-01  8.50000000E-01  8.50000000E-01
  8.50000000E-01  8.50000000E-01  8.50000000E-01  8.50000000E-01  8.50000000E-01
  8.50000000E-01  8.50000000E-01  8.50000000E-01  8.50000000E-01  8.50000000E-01
  8.50000000E-01  8.50000000E-01  8.50000000E-01  8.50000000E-01  8.50000000E-01
  8.50000000E-01  8.50000000E-01  8.50000000E-01  8.50000000E-01  8.50000000E-01
  8.50000000E-01  8.50000000E-01  8.50000000E-01  8.50000000E-01  8.50000000E-01
  8.50000000E-01  8.50000000E-01  8.50000000E-01  8.50000000E-01  8.50000000E-01
  8.50000000E-01  8.50000000E-01  8.50000000E-01  8.50000000E-01  8.50000000E-01
  8.50000000E-01  8.50000000E-01  8.50000000E-01  8.50000000E-01  8.50000000E-01
  8.50000000E-01  8.50000000E-01  8.50000000E-01  8.50000000E-01  8.50000000E-01
  8.50000000E-01  8.50000000E-01  8.50000000E-01  8.50000000E-01  8.50000000E-01
  8.50000000E-01  8.50000000E-01  8.50000000E-01  8.50000000E-01  8.50000000E-01
  8.50000000E-01  8.50000000E-01  8.50000000E-01  8.50000000E-01  8.50000000E-01
  8.50000000E-01  8.50000000E-01  8.50000000E-01  8.50000000E-01  8.50000000E-01
  8.50000000E-01  8.50000000E-01  8.50000000E-01  8.50000000E-01  8.50000000E-01
  8.50000000E-01  8.50000000E-01  8.50000000E-01  8.50000000E-01  8.50000000E-01
  8.50000000E-01  8.50000000E-01  8.50000000E-01  8.50000000E-01  8.50000000E-01
  8.50000000E-01  8.50000000E-01  8.50000000E-01  8.50000000E-01  8.50000000E-01
  8.50000000E-01  8.50000000E-01  8.50000000E-01  8.50000000E-01  8.50000000E-01
  8.50000000E-01  8.50000000E-01  8.50000000E-01  8.50000000E-01  8.50000000E-01
  8.50000000E-01  8.50000000E-01  8.50000000E-01  8.50000000E-01  8.50000000E-01
  8.50000000E-01  8.50000000E-01  8.50000000E-01  8.50000000E-01  8.50000000E-01
  8.50000000E-01  8.50000000E-01  8.50000000E-01  8.50000000E-01  8.50000000E-01
  8.50000000E-01  8.50000000E-01  8.50000000E-01  8.50000000E-01  8.50000000E-01
  8.50000000E-01  8.50000000E-01  8.50000000E-01  8.50000000E-01  8.50000000E-01
  8.50000000E-01  8.50000000E-01  8.50000000E-01  8.50000000E-01  8.50000000E-01
  8.50000000E-01  8.50000000E-01  8.50000000E-01  8.50000000E-01  8.50000000E-01
  8.50000000E-01  8.50000000E-01  8.50000000E-01  8.50000000E-01  8.50000000E-01
  8.50000000E-01  8.50000000E-01  8.50000000E-01  8.50000000E-01  8.50000000E-01
  8.50000000E-01  8.50000000E-01  8.50000000E-01  8.50000000E-01  8.50000000E-01
  8.50000000E-01  8.50000000E-01  8.50000000E-01  8.50000000E-01  8.50000000E-01
  8.50000000E-01  8.50000000E-01  8.50000000E-01  8.50000000E-01  8.50000000E-01
  8.50000000E-01  8.50000000E-01  8.50000000E-01  8.50000000E-01  8.50000000E-01
  8.50000000E-01  8.50000000E-01  8.50000000E-01  8.50000000E-01  8.50000000E-01
  8.50000000E-01  8.50000000E-01  8.50000000E-01  8.50000000E-01  8.50000000E-01
  8.50000000E-01  8.50000000E-01  8.50000000E-01  8.50000000E-01  8.50000000E-01
  8.50000000E-01  8.50000000E-01  8.50000000E-01  8.50000000E-01  8.50000000E-01
  8.50000000E-01  8.50000000E-01  8.50000000E-01  8.50000000E-01  8.50000000E-01
  8.50000000E-01  8.50000000E-01  8.50000000E-01  8.50000000E-01  8.50000000E-01
  8.50000000E-01  8.50000000E-01  8.50000000E-01  8.50000000E-01  8.50000000E-01
  8.50000000E-01  8.50000000E-01  8.50000000E-01  8.50000000E-01  8.50000000E-01
  8.50000000E-01  8.50000000E-01  8.50000000E-01  8.50000000E-01  8.50000000E-01
  8.50000000E-01  8.50000000E-01  8.50000000E-01  8.50000000E-01  8.50000000E-01
  8.50000000E-01  8.50000000E-01  8.50000000E-01  8.50000000E-01  8.50000000E-01
  8.50000000E-01  8.50000000E-01  8.50000000E-01  8.50000000E-01  8.50000000E-01
  8.50000000E-01  8.50000000E-01  8.50000000E-01  8.50000000E-01  8.50000000E-01
  8.50000000E-01  8.50000000E-01  8.50000000E-01  8.50000000E-01  8.50000000E-01
  8.50000000E-01  8.50000000E-01  8.50000000E-01  8.50000000E-01  8.50000000E-01
  8.50000000E-01  8.50000000E-01  8.50000000E-01  8.50000000E-01  8.50000000E-01
  8.50000000E-01  8.50000000E-01  8.50000000E-01  8.50000000E-01  8.50000000E-01
  8.50000000E-01  8.50000000E-01  8.50000000E-01  8.50000000E-01  8.50000000E-01
  8.50000000E-01  8.50000000E-01  8.50000000E-01  8.50000000E-01  8.50000000E-01
  8.50000000E-01  8.50000000E-01  8.50000000E-01  8.50000000E-01  8.50000000E-01
  8.50000000E-01  8.50000000E-01  8.50000000E-01  8.50000000E-01  8.50000000E-01
  8.50000000E-01  8.50000000E-01  8.50000000E-01  8.50000000E-01  8.50000000E-01
  8.50000000E-01  8.50000000E-01  8.50000000E-01  8.50000000E-01  8.50000000E-01
  8.50000000E-01  8.50000000E-01  8.50000000E-01  8.50000000E-01  8.50000000E-01
  8.50000000E-01  8.50000000E-01  8.50000000E-01  8.50000000E-01  8.50000000E-01
  8.50000000E-01  8.50000000E-01  8.50000000E-01  8.50000000E-01  8.50000000E-01
  8.50000000E-01  8.50000000E-01  8.50000000E-01  8.50000000E-01  8.50000000E-01
  8.50000000E-01  8.50000000E-01  8.50000000E-01  8.50000000E-01  8.50000000E-01
  8.50000000E-01  8.50000000E-01  8.50000000E-01  8.50000000E-01  8.50000000E-01
  8.50000000E-01  8.50000000E-01  8.50000000E-01  8.50000000E-01  8.50000000E-01
  8.50000000E-01  8.50000000E-01  8.50000000E-01  8.50000000E-01  8.50000000E-01
  8.50000000E-01  8.50000000E-01  8.50000000E-01  8.50000000E-01  8.50000000E-01
  8.50000000E-01  8.50000000E-01  8.50000000E-01  8.50000000E-01  8.50000000E-01
  8.50000000E-01  8.50000000E-01  8.50000000E-01  8.50000000E-01  8.50000000E-01
  8.50000000E-01  8.50000000E-01  8.50000000E-01  8.50000000E-01  8.50000000E-01
  8.50000000E-01  8.50000000E-01  8.50000000E-01  8.50000000E-01  8.50000000E-01
  8.50000000E-01  8.50000000E-01  8.50000000E-01  8.50000000E-01  8.50000000E-01
  8.50000000E-01  8.50000000E-01  8.50000000E-01  8.50000000E-01  8.50000000E-01
  8.50000000E-01  8.50000000E-01  8.50000000E-01  8.50000000E-01  8.50000000E-01
  8.50000000E-01  8.50000000E-01  8.50000000E-01  8.50000000E-01  8.50000000E-01
  8.50000000E-01  8.50000000E-01  8.50000000E-01  8.50000000E-01  8.50000000E-01
  8.50000000E-01  8.50000000E-01  8.50000000E-01  8.50000000E-01  8.50000000E-01
  8.50000000E-01  8.50000000E-01  8.50000000E-01  8.50000000E-01  8.50000000E-01
  8.50000000E-01  8.50000000E-01  8.50000000E-01  8.50000000E-01  8.50000000E-01
  8.50000000E-01  8.50000000E-01  8.50000000E-01  8.50000000E-01  8.50000000E-01
  8.50000000E-01  8.50000000E-01  8.50000000E-01  8.50000000E-01  8.50000000E-01
  8.50000000E-01  8.50000000E-01  8.50000000E-01  8.50000000E-01  8.50000000E-01
  8.50000000E-01  8.50000000E-01  8.50000000E-01  8.50000000E-01  8.50000000E-01
  8.50000000E-01  8.50000000E-01  8.50000000E-01  8.50000000E-01  8.50000000E-01
  8.50000000E-01  8.50000000E-01  8.50000000E-01  8.50000000E-01  8.50000000E-01
  8.50000000E-01  8.50000000E-01  8.50000000E-01  8.50000000E-01  8.50000000E-01
  8.50000000E-01  8.50000000E-01  8.50000000E-01  8.50000000E-01  8.50000000E-01
  8.50000000E-01  8.50000000E-01  8.50000000E-01  8.50000000E-01  8.50000000E-01
  8.50000000E-01  8.50000000E-01  8.50000000E-01  8.50000000E-01  8.50000000E-01
  8.50000000E-01  8.50000000E-01  8.50000000E-01  8.50000000E-01  8.50000000E-01
  8.50000000E-01  8.50000000E-01  8.50000000E-01  8.50000000E-01  8.50000000E-01
  8.50000000E-01  8.50000000E-01  8.50000000E-01  8.50000000E-01  8.50000000E-01
  8.50000000E-01  8.50000000E-01  8.50000000E-01  8.50000000E-01  8.50000000E-01
  8.50000000E-01  8.50000000E-01  8.50000000E-01  8.50000000E-01  8.50000000E-01
  8.50000000E-01  8.50000000E-01  8.50000000E-01  8.50000000E-01  8.50000000E-01
  8.50000000E-01  8.50000000E-01  8.50000000E-01  8.50000000E-01  8.50000000E-01
  8.50000000E-01  8.50000000E-01  8.50000000E-01  8.50000000E-01  8.50000000E-01
  8.50000000E-01  8.50000000E-01  8.50000000E-01  8.50000000E-01  8.50000000E-01
  8.50000000E-01  8.50000000E-01  8.50000000E-01  8.50000000E-01  8.50000000E-01
  8.50000000E-01  8.50000000E-01  8.50000000E-01  8.50000000E-01  8.50000000E-01
  8.50000000E-01  8.50000000E-01  8.50000000E-01  8.50000000E-01  8.50000000E-01
  8.50000000E-01  8.50000000E-01  8.50000000E-01  8.50000000E-01  8.50000000E-01
  8.50000000E-01  8.50000000E-01  8.50000000E-01  8.50000000E-01  8.50000000E-01
  8.50000000E-01  8.50000000E-01  8.50000000E-01  8.50000000E-01  8.50000000E-01
  8.50000000E-01  8.50000000E-01  8.50000000E-01  8.50000000E-01  8.50000000E-01
  8.50000000E-01  8.50000000E-01  8.50000000E-01  8.50000000E-01  8.50000000E-01
  8.50000000E-01  8.50000000E-01  8.50000000E-01  8.50000000E-01  8.50000000E-01
  8.50000000E-01  8.50000000E-01  8.50000000E-01  8.50000000E-01  8.50000000E-01
  8.50000000E-01  8.50000000E-01  8.50000000E-01  8.50000000E-01  8.50000000E-01
  8.50000000E-01  8.50000000E-01  8.50000000E-01  8.50000000E-01  8.50000000E-01
  8.50000000E-01  8.50000000E-01  8.50000000E-01  8.50000000E-01  8.50000000E-01
  8.50000000E-01  8.50000000E-01  8.50000000E-01  8.50000000E-01  8.50000000E-01
  8.50000000E-01  8.50000000E-01  8.50000000E-01  8.50000000E-01  8.50000000E-01
  8.50000000E-01  8.50000000E-01  8.50000000E-01  8.50000000E-01  8.50000000E-01
  8.50000000E-01  8.50000000E-01  8.50000000E-01  8.50000000E-01  8.50000000E-01
  8.50000000E-01  8.50000000E-01  8.50000000E-01  8.50000000E-01  8.50000000E-01
  8.50000000E-01  8.50000000E-01  8.50000000E-01  8.50000000E-01  8.50000000E-01
  8.50000000E-01  8.50000000E-01  8.50000000E-01  8.50000000E-01  8.50000000E-01
  8.50000000E-01  8.50000000E-01  8.50000000E-01  8.50000000E-01  8.50000000E-01
  8.50000000E-01  8.50000000E-01  8.50000000E-01  8.50000000E-01  8.50000000E-01
  8.50000000E-01  8.50000000E-01  8.50000000E-01  8.50000000E-01  8.50000000E-01
  8.50000000E-01  8.50000000E-01  8.50000000E-01  8.50000000E-01  8.50000000E-01
  8.50000000E-01  8.50000000E-01  8.50000000E-01  8.50000000E-01  8.50000000E-01
  8.50000000E-01  8.50000000E-01  8.50000000E-01  8.50000000E-01  8.50000000E-01
  8.50000000E-01  8.50000000E-01  8.50000000E-01  8.50000000E-01  8.50000000E-01
  8.50000000E-01  8.50000000E-01  8.50000000E-01  8.50000000E-01  8.50000000E-01
  8.50000000E-01  8.50000000E-01  8.50000000E-01  8.50000000E-01  8.50000000E-01
  8.50000000E-01  8.50000000E-01  8.50000000E-01  8.50000000E-01  8.50000000E-01
  8.50000000E-01  8.50000000E-01  8.50000000E-01  8.50000000E-01  8.50000000E-01
  8.50000000E-01  8.50000000E-01  8.50000000E-01  8.50000000E-01  8.50000000E-01
  8.50000000E-01  8.50000000E-01  8.50000000E-01  8.50000000E-01  8.50000000E-01
  8.50000000E-01  8.50000000E-01  8.50000000E-01  8.50000000E-01  8.50000000E-01
  8.50000000E-01  8.50000000E-01  8.50000000E-01  8.50000000E-01  8.50000000E-01
  8.50000000E-01  8.50000000E-01  8.50000000E-01  8.50000000E-01  8.50000000E-01
  8.50000000E-01  8.50000000E-01  8.50000000E-01  8.50000000E-01  8.50000000E-01
  8.50000000E-01  8.50000000E-01  8.50000000E-01  8.50000000E-01  8.50000000E-01
  8.50000000E-01  8.50000000E-01  8.50000000E-01  8.50000000E-01  8.50000000E-01
  8.50000000E-01  8.50000000E-01  8.50000000E-01  8.50000000E-01  8.50000000E-01
  8.50000000E-01  8.50000000E-01  8.50000000E-01  8.50000000E-01  8.50000000E-01
  8.50000000E-01  8.50000000E-01  8.50000000E-01  8.50000000E-01  8.50000000E-01
  8.50000000E-01  8.50000000E-01  8.50000000E-01  8.50000000E-01  8.50000000E-01
  8.50000000E-01  8.50000000E-01  8.50000000E-01  8.50000000E-01  8.50000000E-01
  8.50000000E-01  8.50000000E-01  8.50000000E-01  8.50000000E-01  8.50000000E-01
  8.50000000E-01  8.50000000E-01  8.50000000E-01  8.50000000E-01  8.50000000E-01
  8.50000000E-01  8.50000000E-01  8.50000000E-01  8.50000000E-01  8.50000000E-01
  8.50000000E-01  8.50000000E-01  8.50000000E-01  8.50000000E-01  8.50000000E-01
  8.50000000E-01  8.50000000E-01  8.50000000E-01  8.50000000E-01  8.50000000E-01
  8.50000000E-01  8.50000000E-01  8.50000000E-01  8.50000000E-01  8.50000000E-01
  8.50000000E-01  8.50000000E-01  8.50000000E-01  8.50000000E-01  8.50000000E-01
  8.50000000E-01  8.50000000E-01  8.50000000E-01  8.50000000E-01  8.50000000E-01
  8.50000000E-01  8.50000000E-01  8.50000000E-01  8.50000000E-01  8.50000000E-01
  8.50000000E-01  8.50000000E-01  8.50000000E-01  8.50000000E-01  8.50000000E-01
  8.50000000E-01  8.50000000E-01  8.50000000E-01  8.50000000E-01  8.50000000E-01
  8.50000000E-01  8.50000000E-01  8.50000000E-01  8.50000000E-01  8.50000000E-01
  8.50000000E-01  8.50000000E-01  8.50000000E-01  8.50000000E-01  8.50000000E-01
  8.50000000E-01  8.50000000E-01  8.50000000E-01  8.50000000E-01  8.50000000E-01
  8.50000000E-01  8.50000000E-01  8.50000000E-01  8.50000000E-01  8.50000000E-01
  8.50000000E-01  8.50000000E-01  8.50000000E-01  8.50000000E-01  8.50000000E-01
  8.50000000E-01  8.50000000E-01  8.50000000E-01  8.50000000E-01  8.50000000E-01
  8.50000000E-01  8.50000000E-01  8.50000000E-01  8.50000000E-01  8.50000000E-01
  8.50000000E-01  8.50000000E-01  8.50000000E-01  8.50000000E-01  8.50000000E-01
  8.50000000E-01  8.50000000E-01  8.50000000E-01  8.50000000E-01  8.50000000E-01
  8.50000000E-01  8.50000000E-01  8.50000000E-01  8.50000000E-01  8.50000000E-01
  8.50000000E-01  8.50000000E-01  8.50000000E-01  8.50000000E-01  8.50000000E-01
  8.50000000E-01  8.50000000E-01  8.50000000E-01  8.50000000E-01  8.50000000E-01
  8.50000000E-01  8.50000000E-01  8.50000000E-01  8.50000000E-01  8.50000000E-01
  8.50000000E-01  8.50000000E-01  8.50000000E-01  8.50000000E-01  8.50000000E-01
  8.50000000E-01  8.50000000E-01  8.50000000E-01  8.50000000E-01  8.50000000E-01
  8.50000000E-01  8.50000000E-01  8.50000000E-01  8.50000000E-01  8.50000000E-01
  8.50000000E-01  8.50000000E-01  8.50000000E-01  8.50000000E-01  8.50000000E-01
  8.50000000E-01  8.50000000E-01  8.50000000E-01  8.50000000E-01  8.50000000E-01
  8.50000000E-01  8.50000000E-01  8.50000000E-01  8.50000000E-01  8.50000000E-01
  8.50000000E-01  8.50000000E-01  8.50000000E-01  8.50000000E-01  8.50000000E-01
  8.50000000E-01  8.50000000E-01  8.50000000E-01  8.50000000E-01  8.50000000E-01
  8.50000000E-01  8.50000000E-01  8.50000000E-01  8.50000000E-01  8.50000000E-01
  8.50000000E-01  8.50000000E-01  8.50000000E-01  8.50000000E-01  8.50000000E-01
  8.50000000E-01  8.50000000E-01  8.50000000E-01  8.50000000E-01  8.50000000E-01
  8.50000000E-01  8.50000000E-01  8.50000000E-01  8.50000000E-01  8.50000000E-01
  8.50000000E-01  8.50000000E-01  8.50000000E-01  8.50000000E-01  8.50000000E-01
  8.50000000E-01  8.50000000E-01  8.50000000E-01  8.50000000E-01  8.50000000E-01
  8.50000000E-01  8.50000000E-01  8.50000000E-01  8.50000000E-01  8.50000000E-01
  8.50000000E-01  8.50000000E-01  8.50000000E-01  8.50000000E-01  8.50000000E-01
  8.50000000E-01  8.50000000E-01  8.50000000E-01  8.50000000E-01  8.50000000E-01
  8.50000000E-01  8.50000000E-01  8.50000000E-01  8.50000000E-01  8.50000000E-01
  8.50000000E-01  8.50000000E-01  8.50000000E-01  8.50000000E-01  8.50000000E-01
  8.50000000E-01  8.50000000E-01  8.50000000E-01  8.50000000E-01  8.50000000E-01
  8.50000000E-01  8.50000000E-01  8.50000000E-01  8.50000000E-01  8.50000000E-01
  8.50000000E-01  8.50000000E-01  8.50000000E-01  8.50000000E-01  8.50000000E-01
  8.50000000E-01  8.50000000E-01  8.50000000E-01  8.50000000E-01  8.50000000E-01
  8.50000000E-01  8.50000000E-01  8.50000000E-01  8.50000000E-01  8.50000000E-01
  8.50000000E-01  8.50000000E-01  8.50000000E-01  8.50000000E-01  8.50000000E-01
  8.50000000E-01  8.50000000E-01  8.50000000E-01  8.50000000E-01  8.50000000E-01
  8.50000000E-01  8.50000000E-01  8.50000000E-01  8.50000000E-01  8.50000000E-01
  8.50000000E-01  8.50000000E-01  8.50000000E-01  8.50000000E-01  8.50000000E-01
  8.50000000E-01  8.50000000E-01  8.50000000E-01  8.50000000E-01  8.50000000E-01
  8.50000000E-01  8.50000000E-01  8.50000000E-01  8.50000000E-01  8.50000000E-01
  8.50000000E-01  8.50000000E-01  8.50000000E-01  8.50000000E-01  8.50000000E-01
  8.50000000E-01  8.50000000E-01  8.50000000E-01  8.50000000E-01  8.50000000E-01
  8.50000000E-01  8.50000000E-01  8.50000000E-01  8.50000000E-01  8.50000000E-01
  8.50000000E-01  8.50000000E-01  8.50000000E-01  8.50000000E-01  8.50000000E-01
  8.50000000E-01  8.50000000E-01  8.50000000E-01  8.50000000E-01  8.50000000E-01
  8.50000000E-01  8.50000000E-01  8.50000000E-01  8.50000000E-01  8.50000000E-01
  8.50000000E-01  8.50000000E-01  8.50000000E-01  8.50000000E-01  8.50000000E-01
  8.50000000E-01  8.50000000E-01  8.50000000E-01  8.50000000E-01  8.50000000E-01
  8.50000000E-01  8.50000000E-01  8.50000000E-01  8.50000000E-01  8.50000000E-01
  8.50000000E-01  8.50000000E-01  8.50000000E-01  8.50000000E-01  8.50000000E-01
  8.50000000E-01  8.50000000E-01  8.50000000E-01  8.50000000E-01  8.50000000E-01
  8.50000000E-01  8.50000000E-01  8.50000000E-01  8.50000000E-01  8.50000000E-01
  8.50000000E-01  8.50000000E-01  8.50000000E-01  8.50000000E-01  8.50000000E-01
  8.50000000E-01  8.50000000E-01  8.50000000E-01  8.50000000E-01  8.50000000E-01
  8.50000000E-01  8.50000000E-01  8.50000000E-01  8.50000000E-01  8.50000000E-01
  8.50000000E-01  8.50000000E-01  8.50000000E-01  8.50000000E-01  8.50000000E-01
  8.50000000E-01  8.50000000E-01  8.50000000E-01  8.50000000E-01  8.50000000E-01
  8.50000000E-01  8.50000000E-01  8.50000000E-01  8.50000000E-01  8.50000000E-01
  8.50000000E-01  8.50000000E-01  8.50000000E-01  8.50000000E-01  8.50000000E-01
  8.50000000E-01  8.50000000E-01  8.50000000E-01  8.50000000E-01  8.50000000E-01
  8.50000000E-01  8.50000000E-01  8.50000000E-01  8.50000000E-01  8.50000000E-01
  8.50000000E-01  8.50000000E-01  8.50000000E-01  8.50000000E-01  8.50000000E-01
  8.50000000E-01  8.50000000E-01  8.50000000E-01  8.50000000E-01  8.50000000E-01
  8.50000000E-01  8.50000000E-01  8.50000000E-01  8.50000000E-01  8.50000000E-01
  8.50000000E-01  8.50000000E-01  8.50000000E-01  8.50000000E-01  8.50000000E-01
  8.50000000E-01  8.50000000E-01  8.50000000E-01  8.50000000E-01  8.50000000E-01
  8.50000000E-01  8.50000000E-01  8.50000000E-01  8.50000000E-01  8.50000000E-01
  8.50000000E-01  8.50000000E-01  8.50000000E-01  8.50000000E-01  8.50000000E-01
  8.50000000E-01  8.50000000E-01  8.50000000E-01  8.50000000E-01  8.50000000E-01
  8.50000000E-01  8.50000000E-01  8.50000000E-01  8.50000000E-01  8.50000000E-01
  8.50000000E-01  8.50000000E-01  8.50000000E-01  8.50000000E-01  8.50000000E-01
  8.50000000E-01  8.50000000E-01  8.50000000E-01  8.50000000E-01  8.50000000E-01
  8.50000000E-01  8.50000000E-01  8.50000000E-01  8.50000000E-01  8.50000000E-01
  8.50000000E-01  8.50000000E-01  8.50000000E-01  8.50000000E-01  8.50000000E-01
  8.50000000E-01  8.50000000E-01  8.50000000E-01  8.50000000E-01  8.50000000E-01
  8.50000000E-01  8.50000000E-01  8.50000000E-01  8.50000000E-01  8.50000000E-01
  8.50000000E-01  8.50000000E-01  8.50000000E-01  8.50000000E-01  8.50000000E-01
  8.50000000E-01  8.50000000E-01  8.50000000E-01  8.50000000E-01  8.50000000E-01
  8.50000000E-01  8.50000000E-01  8.50000000E-01  8.50000000E-01  8.50000000E-01
  8.50000000E-01  8.50000000E-01  8.50000000E-01  8.50000000E-01  8.50000000E-01
  8.50000000E-01  8.50000000E-01  8.50000000E-01  8.50000000E-01  8.50000000E-01
  8.50000000E-01  8.50000000E-01  8.50000000E-01  8.50000000E-01  8.50000000E-01
  8.50000000E-01  8.50000000E-01  8.50000000E-01  8.50000000E-01  8.50000000E-01
  8.50000000E-01  8.50000000E-01  8.50000000E-01  8.50000000E-01  8.50000000E-01
  8.50000000E-01  8.50000000E-01  8.50000000E-01  8.50000000E-01  8.50000000E-01
  8.50000000E-01  8.50000000E-01  8.50000000E-01  8.50000000E-01  8.50000000E-01
  8.50000000E-01  8.50000000E-01  8.50000000E-01  8.50000000E-01  8.50000000E-01
  8.50000000E-01  8.50000000E-01  8.50000000E-01  8.50000000E-01  8.50000000E-01
  8.50000000E-01  8.50000000E-01  8.50000000E-01  8.50000000E-01  8.50000000E-01
  8.50000000E-01  8.50000000E-01  8.50000000E-01  8.50000000E-01  8.50000000E-01
  8.50000000E-01  8.50000000E-01  8.50000000E-01  8.50000000E-01  8.50000000E-01
  8.50000000E-01  8.50000000E-01  8.50000000E-01  8.50000000E-01  8.50000000E-01
  8.50000000E-01  8.50000000E-01  8.50000000E-01  8.50000000E-01  8.50000000E-01
  8.50000000E-01  8.50000000E-01  8.50000000E-01  8.50000000E-01  8.50000000E-01
  8.50000000E-01  8.50000000E-01  8.50000000E-01  8.50000000E-01  8.50000000E-01
  8.50000000E-01  8.50000000E-01  8.50000000E-01  8.50000000E-01  8.50000000E-01
  8.50000000E-01  8.50000000E-01  8.50000000E-01  8.50000000E-01  8.50000000E-01
  8.50000000E-01  8.50000000E-01  8.50000000E-01  8.50000000E-01  8.50000000E-01
  8.50000000E-01  8.50000000E-01  8.50000000E-01  8.50000000E-01  8.50000000E-01
  8.50000000E-01  8.50000000E-01  8.50000000E-01  8.50000000E-01  8.50000000E-01
  8.50000000E-01  8.50000000E-01  8.50000000E-01  8.50000000E-01  8.50000000E-01
  8.50000000E-01  8.50000000E-01  8.50000000E-01  8.50000000E-01  8.50000000E-01
  8.50000000E-01  8.50000000E-01  8.50000000E-01  8.50000000E-01  8.50000000E-01
  8.50000000E-01  8.50000000E-01  8.50000000E-01  8.50000000E-01  8.50000000E-01
  8.50000000E-01  8.50000000E-01  8.50000000E-01  8.50000000E-01  8.50000000E-01
  8.50000000E-01  8.50000000E-01  8.50000000E-01  8.50000000E-01  8.50000000E-01
  8.50000000E-01  8.50000000E-01  8.50000000E-01  8.50000000E-01  8.50000000E-01
  8.50000000E-01  8.50000000E-01  8.50000000E-01  8.50000000E-01  8.50000000E-01
  8.50000000E-01  8.50000000E-01  8.50000000E-01  8.50000000E-01  8.50000000E-01
  8.50000000E-01  8.50000000E-01  8.50000000E-01  8.50000000E-01  8.50000000E-01
  8.50000000E-01  8.50000000E-01  8.50000000E-01  8.50000000E-01  8.50000000E-01
  8.50000000E-01  8.50000000E-01  8.50000000E-01  8.50000000E-01  8.50000000E-01
  8.50000000E-01  8.50000000E-01  8.50000000E-01  8.50000000E-01  8.50000000E-01
  8.50000000E-01  8.50000000E-01  8.50000000E-01  8.50000000E-01  8.50000000E-01
  8.50000000E-01  8.50000000E-01  8.50000000E-01  8.50000000E-01  8.50000000E-01
  8.50000000E-01  8.50000000E-01  8.50000000E-01  8.50000000E-01  8.50000000E-01
  8.50000000E-01  8.50000000E-01  8.50000000E-01  8.50000000E-01  8.50000000E-01
  8.50000000E-01  8.50000000E-01  8.50000000E-01  8.50000000E-01  8.50000000E-01
  8.50000000E-01  8.50000000E-01  8.50000000E-01  8.50000000E-01  8.50000000E-01
  8.50000000E-01  8.50000000E-01  8.50000000E-01  8.50000000E-01  8.50000000E-01
  8.50000000E-01  8.50000000E-01  8.50000000E-01  8.50000000E-01  8.50000000E-01
  8.50000000E-01  8.50000000E-01  8.50000000E-01  8.50000000E-01  8.50000000E-01
  8.50000000E-01  8.50000000E-01  8.50000000E-01  8.50000000E-01  8.50000000E-01
  8.50000000E-01  8.50000000E-01  8.50000000E-01  8.50000000E-01  8.50000000E-01
  8.50000000E-01  8.50000000E-01  8.50000000E-01  8.50000000E-01  8.50000000E-01
  8.50000000E-01  8.50000000E-01  8.50000000E-01  8.50000000E-01  8.50000000E-01
  8.50000000E-01  8.50000000E-01  8.50000000E-01  8.50000000E-01  8.50000000E-01
  8.50000000E-01  8.50000000E-01  8.50000000E-01  8.50000000E-01  8.50000000E-01
  8.50000000E-01  8.50000000E-01  8.50000000E-01  8.50000000E-01  8.50000000E-01
  8.50000000E-01  8.50000000E-01  8.50000000E-01  8.50000000E-01  8.50000000E-01
  8.50000000E-01  8.50000000E-01  8.50000000E-01  8.50000000E-01  8.50000000E-01
  8.50000000E-01  8.50000000E-01  8.50000000E-01  8.50000000E-01  8.50000000E-01
  8.50000000E-01  8.50000000E-01  8.50000000E-01  8.50000000E-01  8.50000000E-01
  8.50000000E-01  8.50000000E-01  8.50000000E-01  8.50000000E-01  8.50000000E-01
  8.50000000E-01  8.50000000E-01  8.50000000E-01  8.50000000E-01  8.50000000E-01
  8.50000000E-01  8.50000000E-01  8.50000000E-01  8.50000000E-01  8.50000000E-01
  8.50000000E-01  8.50000000E-01  8.50000000E-01  8.50000000E-01  8.50000000E-01
  8.50000000E-01  8.50000000E-01  8.50000000E-01  8.50000000E-01  8.50000000E-01
  8.50000000E-01  8.50000000E-01  8.50000000E-01  8.50000000E-01  8.50000000E-01
  8.50000000E-01  8.50000000E-01  8.50000000E-01  8.50000000E-01  8.50000000E-01
  8.50000000E-01  8.50000000E-01  8.50000000E-01  8.50000000E-01  8.50000000E-01
  8.50000000E-01  8.50000000E-01  8.50000000E-01  8.50000000E-01  8.50000000E-01
  8.50000000E-01  8.50000000E-01  8.50000000E-01  8.50000000E-01  8.50000000E-01
  8.50000000E-01  8.50000000E-01  8.50000000E-01  8.50000000E-01  8.50000000E-01
  8.50000000E-01  8.50000000E-01  8.50000000E-01  8.50000000E-01  8.50000000E-01
  8.50000000E-01  8.50000000E-01  8.50000000E-01  8.50000000E-01  8.50000000E-01
  8.50000000E-01  8.50000000E-01  8.50000000E-01  8.50000000E-01  8.50000000E-01
  8.50000000E-01  8.50000000E-01  8.50000000E-01  8.50000000E-01  8.50000000E-01
  8.50000000E-01  8.50000000E-01  8.50000000E-01  8.50000000E-01  8.50000000E-01
  8.50000000E-01  8.50000000E-01  8.50000000E-01  8.50000000E-01  8.50000000E-01
  8.50000000E-01  8.50000000E-01  8.50000000E-01  8.50000000E-01  8.50000000E-01
  8.50000000E-01  8.50000000E-01  8.50000000E-01  8.50000000E-01  8.50000000E-01
  8.50000000E-01  8.50000000E-01  8.50000000E-01  8.50000000E-01  8.50000000E-01
  8.50000000E-01  8.50000000E-01  8.50000000E-01  8.50000000E-01  8.50000000E-01
  8.50000000E-01  8.50000000E-01  8.50000000E-01  8.50000000E-01  8.50000000E-01
  8.50000000E-01  8.50000000E-01  8.50000000E-01  8.50000000E-01  8.50000000E-01
  8.50000000E-01  8.50000000E-01  8.50000000E-01  8.50000000E-01  8.50000000E-01
  8.50000000E-01  8.50000000E-01  8.50000000E-01  8.50000000E-01  8.50000000E-01
  8.50000000E-01  8.50000000E-01  8.50000000E-01  8.50000000E-01  8.50000000E-01
  8.50000000E-01  8.50000000E-01  8.50000000E-01  8.50000000E-01  8.50000000E-01
  8.50000000E-01  8.50000000E-01  8.50000000E-01  8.50000000E-01  8.50000000E-01
  8.50000000E-01  8.50000000E-01  8.50000000E-01  8.50000000E-01  8.50000000E-01
  8.50000000E-01  8.50000000E-01  8.50000000E-01  8.50000000E-01  8.50000000E-01
  8.50000000E-01  8.50000000E-01  8.50000000E-01  8.50000000E-01  8.50000000E-01
  8.50000000E-01  8.50000000E-01  8.50000000E-01  8.50000000E-01  8.50000000E-01
  8.50000000E-01  8.50000000E-01  8.50000000E-01  8.50000000E-01  8.50000000E-01
  8.50000000E-01  8.50000000E-01  8.50000000E-01  8.50000000E-01  8.50000000E-01
  8.50000000E-01  8.50000000E-01  8.50000000E-01  8.50000000E-01  8.50000000E-01
  8.50000000E-01  8.50000000E-01  8.50000000E-01  8.50000000E-01  8.50000000E-01
  8.50000000E-01  8.50000000E-01  8.50000000E-01  8.50000000E-01  8.50000000E-01
  8.50000000E-01  8.50000000E-01  8.50000000E-01  8.50000000E-01  8.50000000E-01
  8.50000000E-01  8.50000000E-01  8.50000000E-01  8.50000000E-01  8.50000000E-01
  8.50000000E-01  8.50000000E-01  8.50000000E-01  8.50000000E-01  8.50000000E-01
  8.50000000E-01  8.50000000E-01  8.50000000E-01  8.50000000E-01  8.50000000E-01
  8.50000000E-01  8.50000000E-01  8.50000000E-01  8.50000000E-01  8.50000000E-01
  8.50000000E-01  8.50000000E-01  8.50000000E-01  8.50000000E-01  8.50000000E-01
  8.50000000E-01  8.50000000E-01  8.50000000E-01  8.50000000E-01  8.50000000E-01
  8.50000000E-01  8.50000000E-01  8.50000000E-01  8.50000000E-01  8.50000000E-01
  8.50000000E-01  8.50000000E-01  8.50000000E-01  8.50000000E-01  8.50000000E-01
  8.50000000E-01  8.50000000E-01  8.50000000E-01  8.50000000E-01  8.50000000E-01
  8.50000000E-01  8.50000000E-01  8.50000000E-01  8.50000000E-01  8.50000000E-01
  8.50000000E-01  8.50000000E-01  8.50000000E-01  8.50000000E-01  8.50000000E-01
  8.50000000E-01  8.50000000E-01  8.50000000E-01  8.50000000E-01  8.50000000E-01
  8.50000000E-01  8.50000000E-01  8.50000000E-01  8.50000000E-01  8.50000000E-01
  8.50000000E-01  8.50000000E-01  8.50000000E-01  8.50000000E-01  8.50000000E-01
  8.50000000E-01  8.50000000E-01  8.50000000E-01  8.50000000E-01  8.50000000E-01
  8.50000000E-01  8.50000000E-01  8.50000000E-01  8.50000000E-01  8.50000000E-01
  8.50000000E-01  8.50000000E-01  8.50000000E-01  8.50000000E-01  8.50000000E-01
  8.50000000E-01  8.50000000E-01  8.50000000E-01  8.50000000E-01  8.50000000E-01
  8.50000000E-01  8.50000000E-01  8.50000000E-01  8.50000000E-01  8.50000000E-01
  8.50000000E-01  8.50000000E-01  8.50000000E-01  8.50000000E-01  8.50000000E-01
  8.50000000E-01  8.50000000E-01  8.50000000E-01  8.50000000E-01  8.50000000E-01
  8.50000000E-01  8.50000000E-01  8.50000000E-01  8.50000000E-01  8.50000000E-01
  8.50000000E-01  8.50000000E-01  8.50000000E-01  8.50000000E-01  8.50000000E-01
  8.50000000E-01  8.50000000E-01  8.50000000E-01  8.50000000E-01  8.50000000E-01
  8.50000000E-01  8.50000000E-01  8.50000000E-01  8.50000000E-01  8.50000000E-01
  8.50000000E-01  8.50000000E-01  8.50000000E-01  8.50000000E-01  8.50000000E-01
  8.50000000E-01  8.50000000E-01  8.50000000E-01  8.50000000E-01  8.50000000E-01
  8.50000000E-01  8.50000000E-01  8.50000000E-01  8.50000000E-01  8.50000000E-01
  8.50000000E-01  8.50000000E-01  8.50000000E-01  8.50000000E-01  8.50000000E-01
  8.50000000E-01  8.50000000E-01  8.50000000E-01  8.50000000E-01  8.50000000E-01
  8.50000000E-01  8.50000000E-01  8.50000000E-01  8.50000000E-01  8.50000000E-01
  8.50000000E-01  8.50000000E-01  8.50000000E-01  8.50000000E-01  8.50000000E-01
  8.50000000E-01  8.50000000E-01  8.50000000E-01  8.50000000E-01  8.50000000E-01
  8.50000000E-01  8.50000000E-01  8.50000000E-01  8.50000000E-01  8.50000000E-01
  8.50000000E-01  8.50000000E-01  8.50000000E-01  8.50000000E-01  8.50000000E-01
  8.50000000E-01  8.50000000E-01  8.50000000E-01  8.50000000E-01  8.50000000E-01
  8.50000000E-01  8.50000000E-01  8.50000000E-01  8.50000000E-01  8.50000000E-01
  8.50000000E-01  8.50000000E-01  8.50000000E-01  8.50000000E-01  8.50000000E-01
  8.50000000E-01  8.50000000E-01  8.50000000E-01  8.50000000E-01  8.50000000E-01
  8.50000000E-01  8.50000000E-01  8.50000000E-01  8.50000000E-01  8.50000000E-01
  8.50000000E-01  8.50000000E-01  8.50000000E-01  8.50000000E-01  8.50000000E-01
  8.50000000E-01  8.50000000E-01  8.50000000E-01  8.50000000E-01  8.50000000E-01
  8.50000000E-01  8.50000000E-01  8.50000000E-01  8.50000000E-01  8.50000000E-01
  8.50000000E-01  8.50000000E-01  8.50000000E-01  8.50000000E-01  8.50000000E-01
  8.50000000E-01  8.50000000E-01  8.50000000E-01  8.50000000E-01  8.50000000E-01
  8.50000000E-01  8.50000000E-01  8.50000000E-01  8.50000000E-01  8.50000000E-01
  8.50000000E-01  8.50000000E-01  8.50000000E-01  8.50000000E-01  8.50000000E-01
  8.50000000E-01  8.50000000E-01  8.50000000E-01  8.50000000E-01  8.50000000E-01
  8.50000000E-01  8.50000000E-01  8.50000000E-01  8.50000000E-01  8.50000000E-01
  8.50000000E-01  8.50000000E-01  8.50000000E-01  8.50000000E-01  8.50000000E-01
  8.50000000E-01  8.50000000E-01  8.50000000E-01  8.50000000E-01  8.50000000E-01
  8.50000000E-01  8.50000000E-01  8.50000000E-01  8.50000000E-01  8.50000000E-01
  8.50000000E-01  8.50000000E-01  8.50000000E-01  8.50000000E-01  8.50000000E-01
  8.50000000E-01  8.50000000E-01  8.50000000E-01  8.50000000E-01  8.50000000E-01
  8.50000000E-01  8.50000000E-01  8.50000000E-01  8.50000000E-01  8.50000000E-01
  8.50000000E-01  8.50000000E-01  8.50000000E-01  8.50000000E-01  8.50000000E-01
  8.50000000E-01  8.50000000E-01  8.50000000E-01  8.50000000E-01  8.50000000E-01
  8.50000000E-01  8.50000000E-01  8.50000000E-01  8.50000000E-01  8.50000000E-01
  8.50000000E-01  8.50000000E-01  8.50000000E-01  8.50000000E-01  8.50000000E-01
  8.50000000E-01  8.50000000E-01  8.50000000E-01  8.50000000E-01  8.50000000E-01
  8.50000000E-01  8.50000000E-01  8.50000000E-01  8.50000000E-01  8.50000000E-01
  8.50000000E-01  8.50000000E-01  8.50000000E-01  8.50000000E-01  8.50000000E-01
  8.50000000E-01  8.50000000E-01  8.50000000E-01  8.50000000E-01  8.50000000E-01
  8.50000000E-01  8.50000000E-01  8.50000000E-01  8.50000000E-01  8.50000000E-01
  8.50000000E-01  8.50000000E-01  8.50000000E-01  8.50000000E-01  8.50000000E-01
  8.50000000E-01  8.50000000E-01  8.50000000E-01  8.50000000E-01  8.50000000E-01
  8.50000000E-01  8.50000000E-01  8.50000000E-01  8.50000000E-01  8.50000000E-01
  8.50000000E-01  8.50000000E-01  8.50000000E-01  8.50000000E-01  8.50000000E-01
  8.50000000E-01  8.50000000E-01  8.50000000E-01  8.50000000E-01  8.50000000E-01
  8.50000000E-01  8.50000000E-01  8.50000000E-01  8.50000000E-01  8.50000000E-01
  8.50000000E-01  8.50000000E-01  8.50000000E-01  8.50000000E-01  8.50000000E-01
  8.50000000E-01  8.50000000E-01  8.50000000E-01  8.50000000E-01  8.50000000E-01
  8.50000000E-01  8.50000000E-01  8.50000000E-01  8.50000000E-01  8.50000000E-01
  8.50000000E-01  8.50000000E-01  8.50000000E-01  8.50000000E-01  8.50000000E-01
  8.50000000E-01  8.50000000E-01  8.50000000E-01  8.50000000E-01  8.50000000E-01
  8.50000000E-01  8.50000000E-01  8.50000000E-01  8.50000000E-01  8.50000000E-01
  8.50000000E-01  8.50000000E-01  8.50000000E-01  8.50000000E-01  8.50000000E-01
  8.50000000E-01  8.50000000E-01  8.50000000E-01  8.50000000E-01  8.50000000E-01
  8.50000000E-01  8.50000000E-01  8.50000000E-01  8.50000000E-01  8.50000000E-01
  8.50000000E-01  8.50000000E-01  8.50000000E-01  8.50000000E-01  8.50000000E-01
  8.50000000E-01  8.50000000E-01  8.50000000E-01  8.50000000E-01  8.50000000E-01
  8.50000000E-01  8.50000000E-01  8.50000000E-01  8.50000000E-01  8.50000000E-01
  8.50000000E-01  8.50000000E-01  8.50000000E-01  8.50000000E-01  8.50000000E-01
  8.50000000E-01  8.50000000E-01  8.50000000E-01  8.50000000E-01  8.50000000E-01
  8.50000000E-01  8.50000000E-01  8.50000000E-01  8.50000000E-01  8.50000000E-01
  8.50000000E-01  8.50000000E-01  8.50000000E-01  8.50000000E-01  8.50000000E-01
  8.50000000E-01  8.50000000E-01  8.50000000E-01  8.50000000E-01  8.50000000E-01
  8.50000000E-01  8.50000000E-01  8.50000000E-01  8.50000000E-01  8.50000000E-01
  8.50000000E-01  8.50000000E-01  8.50000000E-01  8.50000000E-01  8.50000000E-01
  8.50000000E-01  8.50000000E-01  8.50000000E-01  8.50000000E-01  8.50000000E-01
  8.50000000E-01  8.50000000E-01  8.50000000E-01  8.50000000E-01  8.50000000E-01
  8.50000000E-01  8.50000000E-01  8.50000000E-01  8.50000000E-01  8.50000000E-01
  8.50000000E-01  8.50000000E-01  8.50000000E-01  8.50000000E-01  8.50000000E-01
  8.50000000E-01  8.50000000E-01  8.50000000E-01  8.50000000E-01  8.50000000E-01
  8.50000000E-01  8.50000000E-01  8.50000000E-01  8.50000000E-01  8.50000000E-01
  8.50000000E-01  8.50000000E-01  8.50000000E-01  8.50000000E-01  8.50000000E-01
  8.50000000E-01  8.50000000E-01  8.50000000E-01  8.50000000E-01  8.50000000E-01
  8.50000000E-01  8.50000000E-01  8.50000000E-01  8.50000000E-01  8.50000000E-01
  8.50000000E-01  8.50000000E-01  8.50000000E-01  8.50000000E-01  8.50000000E-01
  8.50000000E-01  8.50000000E-01  8.50000000E-01  8.50000000E-01  8.50000000E-01
  8.50000000E-01  8.50000000E-01  8.50000000E-01  8.50000000E-01  8.50000000E-01
  8.50000000E-01  8.50000000E-01  8.50000000E-01  8.50000000E-01  8.50000000E-01
  8.50000000E-01  8.50000000E-01  8.50000000E-01  8.50000000E-01  8.50000000E-01
  8.50000000E-01  8.50000000E-01  8.50000000E-01  8.50000000E-01  8.50000000E-01
  8.50000000E-01  8.50000000E-01  8.50000000E-01  8.50000000E-01  8.50000000E-01
  8.50000000E-01  8.50000000E-01  8.50000000E-01  8.50000000E-01  8.50000000E-01
  8.50000000E-01  8.50000000E-01  8.50000000E-01  8.50000000E-01  8.50000000E-01
  8.50000000E-01  8.50000000E-01  8.50000000E-01  8.50000000E-01  8.50000000E-01
  8.50000000E-01  8.50000000E-01  8.50000000E-01  8.50000000E-01  8.50000000E-01
  8.50000000E-01  8.50000000E-01  8.50000000E-01  8.50000000E-01  8.50000000E-01
  8.50000000E-01  8.50000000E-01  8.50000000E-01  8.50000000E-01  8.50000000E-01
  8.50000000E-01  8.50000000E-01  8.50000000E-01  8.50000000E-01  8.50000000E-01
  8.50000000E-01  8.50000000E-01  8.50000000E-01  8.50000000E-01  8.50000000E-01
  8.50000000E-01  8.50000000E-01  8.50000000E-01  8.50000000E-01  8.50000000E-01
  8.50000000E-01  8.50000000E-01  8.50000000E-01  8.50000000E-01  8.50000000E-01
  8.50000000E-01  8.50000000E-01  8.50000000E-01  8.50000000E-01  8.50000000E-01
  8.50000000E-01  8.50000000E-01  8.50000000E-01  8.50000000E-01  8.50000000E-01
  8.50000000E-01  8.50000000E-01  8.50000000E-01  8.50000000E-01  8.50000000E-01
  8.50000000E-01  8.50000000E-01  8.50000000E-01  8.50000000E-01  8.50000000E-01
  8.50000000E-01  8.50000000E-01  8.50000000E-01  8.50000000E-01  8.50000000E-01
  8.50000000E-01  8.50000000E-01  8.50000000E-01  8.50000000E-01  8.50000000E-01
  8.50000000E-01  8.50000000E-01  8.50000000E-01  8.50000000E-01  8.50000000E-01
  8.50000000E-01  8.50000000E-01  8.50000000E-01  8.50000000E-01  8.50000000E-01
  8.50000000E-01  8.50000000E-01  8.50000000E-01  8.50000000E-01  8.50000000E-01
  8.50000000E-01  8.50000000E-01  8.50000000E-01  8.50000000E-01  8.50000000E-01
  8.50000000E-01  8.50000000E-01  8.50000000E-01  8.50000000E-01  8.50000000E-01
  8.50000000E-01  8.50000000E-01  8.50000000E-01  8.50000000E-01  8.50000000E-01
  8.50000000E-01  8.50000000E-01  8.50000000E-01  8.50000000E-01  8.50000000E-01
  8.50000000E-01  8.50000000E-01  8.50000000E-01  8.50000000E-01  8.50000000E-01
  8.50000000E-01  8.50000000E-01  8.50000000E-01  8.50000000E-01  8.50000000E-01
  8.50000000E-01  8.50000000E-01  8.50000000E-01  8.50000000E-01  8.50000000E-01
  8.50000000E-01  8.50000000E-01  8.50000000E-01  8.50000000E-01  8.50000000E-01
  8.50000000E-01  8.50000000E-01  8.50000000E-01  8.50000000E-01  8.50000000E-01
  8.50000000E-01  8.50000000E-01  8.50000000E-01  8.50000000E-01  8.50000000E-01
  8.50000000E-01  8.50000000E-01  8.50000000E-01  8.50000000E-01  8.50000000E-01
  8.50000000E-01  8.50000000E-01  8.50000000E-01  8.50000000E-01  8.50000000E-01
  8.50000000E-01  8.50000000E-01  8.50000000E-01  8.50000000E-01  8.50000000E-01
  8.50000000E-01  8.50000000E-01  8.50000000E-01  8.50000000E-01  8.50000000E-01
  8.50000000E-01  8.50000000E-01  8.50000000E-01  8.50000000E-01  8.50000000E-01
  8.50000000E-01  8.50000000E-01  8.50000000E-01  8.50000000E-01  8.50000000E-01
  8.50000000E-01  8.50000000E-01  8.50000000E-01  8.50000000E-01  8.50000000E-01
  8.50000000E-01  8.50000000E-01  8.50000000E-01  8.50000000E-01  8.50000000E-01
  8.50000000E-01  8.50000000E-01  8.50000000E-01  8.50000000E-01  8.50000000E-01
  8.50000000E-01  8.50000000E-01  8.50000000E-01  8.50000000E-01  8.50000000E-01
  8.50000000E-01  8.50000000E-01  8.50000000E-01  8.50000000E-01  8.50000000E-01
  8.50000000E-01  8.50000000E-01  8.50000000E-01  8.50000000E-01  8.50000000E-01
  8.50000000E-01  8.50000000E-01  8.50000000E-01  8.50000000E-01  8.50000000E-01
  8.50000000E-01  8.50000000E-01  8.50000000E-01  8.50000000E-01  8.50000000E-01
  8.50000000E-01  8.50000000E-01  8.50000000E-01  8.50000000E-01  8.50000000E-01
  8.50000000E-01  8.50000000E-01  8.50000000E-01  8.50000000E-01  8.50000000E-01
  8.50000000E-01  8.50000000E-01  8.50000000E-01  8.50000000E-01  8.50000000E-01
  8.50000000E-01  8.50000000E-01  8.50000000E-01  8.50000000E-01  8.50000000E-01
  8.50000000E-01  8.50000000E-01  8.50000000E-01  8.50000000E-01  8.50000000E-01
  8.50000000E-01  8.50000000E-01  8.50000000E-01  8.50000000E-01  8.50000000E-01
  8.50000000E-01  8.50000000E-01  8.50000000E-01  8.50000000E-01  8.50000000E-01
  8.50000000E-01  8.50000000E-01  8.50000000E-01  8.50000000E-01  8.50000000E-01
  8.50000000E-01  8.50000000E-01  8.50000000E-01  8.50000000E-01  8.50000000E-01
  8.50000000E-01  8.50000000E-01  8.50000000E-01  8.50000000E-01  8.50000000E-01
  8.50000000E-01  8.50000000E-01  8.50000000E-01  8.50000000E-01  8.50000000E-01
  8.50000000E-01  8.50000000E-01  8.50000000E-01  8.50000000E-01  8.50000000E-01
  8.50000000E-01  8.50000000E-01  8.50000000E-01  8.50000000E-01  8.50000000E-01
  8.50000000E-01  8.50000000E-01  8.50000000E-01  8.50000000E-01  8.50000000E-01
  8.50000000E-01  8.50000000E-01  8.50000000E-01  8.50000000E-01  8.50000000E-01
  8.50000000E-01  8.50000000E-01  8.50000000E-01  8.50000000E-01  8.50000000E-01
  8.50000000E-01  8.50000000E-01  8.50000000E-01  8.50000000E-01  8.50000000E-01
  8.50000000E-01  8.50000000E-01  8.50000000E-01  8.50000000E-01  8.50000000E-01
  8.50000000E-01  8.50000000E-01  8.50000000E-01  8.50000000E-01  8.50000000E-01
  8.50000000E-01  8.50000000E-01  8.50000000E-01  8.50000000E-01  8.50000000E-01
  8.50000000E-01  8.50000000E-01  8.50000000E-01  8.50000000E-01  8.50000000E-01
  8.50000000E-01  8.50000000E-01  8.50000000E-01  8.50000000E-01  8.50000000E-01
  8.50000000E-01  8.50000000E-01  8.50000000E-01  8.50000000E-01  8.50000000E-01
  8.50000000E-01  8.50000000E-01  8.50000000E-01  8.50000000E-01  8.50000000E-01
  8.50000000E-01  8.50000000E-01  8.50000000E-01  8.50000000E-01  8.50000000E-01
  8.50000000E-01  8.50000000E-01  8.50000000E-01  8.50000000E-01  8.50000000E-01
  8.50000000E-01  8.50000000E-01  8.50000000E-01  8.50000000E-01  8.50000000E-01
  8.50000000E-01  8.50000000E-01  8.50000000E-01  8.50000000E-01  8.50000000E-01
  8.50000000E-01  8.50000000E-01  8.50000000E-01  8.50000000E-01  8.50000000E-01
  8.50000000E-01  8.50000000E-01  8.50000000E-01  8.50000000E-01  8.50000000E-01
  8.50000000E-01  8.50000000E-01  8.50000000E-01  8.50000000E-01  8.50000000E-01
  8.50000000E-01  8.50000000E-01  8.50000000E-01  8.50000000E-01  8.50000000E-01
  8.50000000E-01  8.50000000E-01  8.50000000E-01  8.50000000E-01  8.50000000E-01
  8.50000000E-01  8.50000000E-01  8.50000000E-01  8.50000000E-01  8.50000000E-01
  8.50000000E-01  8.50000000E-01  8.50000000E-01  8.50000000E-01  8.50000000E-01
  8.50000000E-01  8.50000000E-01  8.50000000E-01  8.50000000E-01  8.50000000E-01
  8.50000000E-01  8.50000000E-01  8.50000000E-01  8.50000000E-01  8.50000000E-01
  8.50000000E-01  8.50000000E-01  8.50000000E-01  8.50000000E-01  8.50000000E-01
  8.50000000E-01  8.50000000E-01  8.50000000E-01  8.50000000E-01  8.50000000E-01
  8.50000000E-01  8.50000000E-01  8.50000000E-01  8.50000000E-01  8.50000000E-01
  8.50000000E-01  8.50000000E-01  8.50000000E-01  8.50000000E-01  8.50000000E-01
  8.50000000E-01  8.50000000E-01  8.50000000E-01  8.50000000E-01  8.50000000E-01
  8.50000000E-01  8.50000000E-01  8.50000000E-01  8.50000000E-01  8.50000000E-01
  8.50000000E-01  8.50000000E-01  8.50000000E-01  8.50000000E-01  8.50000000E-01
  8.50000000E-01  8.50000000E-01  8.50000000E-01  8.50000000E-01  8.50000000E-01
  8.50000000E-01  8.50000000E-01  8.50000000E-01  8.50000000E-01  8.50000000E-01
  8.50000000E-01  8.50000000E-01  8.50000000E-01  8.50000000E-01  8.50000000E-01
  8.50000000E-01  8.50000000E-01  8.50000000E-01  8.50000000E-01  8.50000000E-01
  8.50000000E-01  8.50000000E-01  8.50000000E-01  8.50000000E-01  8.50000000E-01
  8.50000000E-01  8.50000000E-01  8.50000000E-01  8.50000000E-01  8.50000000E-01
  8.50000000E-01  8.50000000E-01  8.50000000E-01  8.50000000E-01  8.50000000E-01
  8.50000000E-01  8.50000000E-01  8.50000000E-01  8.50000000E-01  8.50000000E-01
  8.50000000E-01  8.50000000E-01  8.50000000E-01  8.50000000E-01  8.50000000E-01
  8.50000000E-01  8.50000000E-01  8.50000000E-01  8.50000000E-01  8.50000000E-01
  8.50000000E-01  8.50000000E-01  8.50000000E-01  8.50000000E-01  8.50000000E-01
  8.50000000E-01  8.50000000E-01  8.50000000E-01  8.50000000E-01  8.50000000E-01
  8.50000000E-01  8.50000000E-01  8.50000000E-01  8.50000000E-01  8.50000000E-01
  8.50000000E-01  8.50000000E-01  8.50000000E-01  8.50000000E-01  8.50000000E-01
  8.50000000E-01  8.50000000E-01  8.50000000E-01  8.50000000E-01  8.50000000E-01
  8.50000000E-01  8.50000000E-01  8.50000000E-01  8.50000000E-01  8.50000000E-01
  8.50000000E-01  8.50000000E-01  8.50000000E-01  8.50000000E-01  8.50000000E-01
  8.50000000E-01  8.50000000E-01  8.50000000E-01  8.50000000E-01  8.50000000E-01
  8.50000000E-01  8.50000000E-01  8.50000000E-01  8.50000000E-01  8.50000000E-01
  8.50000000E-01  8.50000000E-01  8.50000000E-01  8.50000000E-01  8.50000000E-01
  8.50000000E-01  8.50000000E-01  8.50000000E-01  8.50000000E-01  8.50000000E-01
  8.50000000E-01  8.50000000E-01  8.50000000E-01  8.50000000E-01  8.50000000E-01
  8.50000000E-01  8.50000000E-01  8.50000000E-01  8.50000000E-01  8.50000000E-01
  8.50000000E-01  8.50000000E-01  8.50000000E-01  8.50000000E-01  8.50000000E-01
  8.50000000E-01  8.50000000E-01  8.50000000E-01  8.50000000E-01  8.50000000E-01
  8.50000000E-01  8.50000000E-01  8.50000000E-01  8.50000000E-01  8.50000000E-01
  8.50000000E-01  8.50000000E-01  8.50000000E-01  8.50000000E-01  8.50000000E-01
  8.50000000E-01  8.50000000E-01  8.50000000E-01  8.50000000E-01  8.50000000E-01
  8.50000000E-01  8.50000000E-01  8.50000000E-01  8.50000000E-01  8.50000000E-01
  8.50000000E-01  8.50000000E-01  8.50000000E-01  8.50000000E-01  8.50000000E-01
  8.50000000E-01  8.50000000E-01  8.50000000E-01  8.50000000E-01  8.50000000E-01
  8.50000000E-01  8.50000000E-01  8.50000000E-01  8.50000000E-01  8.50000000E-01
  8.50000000E-01  8.50000000E-01  8.50000000E-01  8.50000000E-01  8.50000000E-01
  8.50000000E-01  8.50000000E-01  8.50000000E-01  8.50000000E-01  8.50000000E-01
  8.50000000E-01  8.50000000E-01  8.50000000E-01  8.50000000E-01  8.50000000E-01
  8.50000000E-01  8.50000000E-01  8.50000000E-01  8.50000000E-01  8.50000000E-01
  8.50000000E-01  8.50000000E-01  8.50000000E-01  8.50000000E-01  8.50000000E-01
  8.50000000E-01  8.50000000E-01  8.50000000E-01  8.50000000E-01  8.50000000E-01
  8.50000000E-01  8.50000000E-01  8.50000000E-01  8.50000000E-01  8.50000000E-01
  8.50000000E-01  8.50000000E-01  8.50000000E-01  8.50000000E-01  8.50000000E-01
  8.50000000E-01  8.50000000E-01  8.50000000E-01  8.50000000E-01  8.50000000E-01
  8.50000000E-01  8.50000000E-01  8.50000000E-01  8.50000000E-01  8.50000000E-01
  8.50000000E-01  8.50000000E-01  8.50000000E-01  8.50000000E-01  8.50000000E-01
  8.50000000E-01  8.50000000E-01  8.50000000E-01  8.50000000E-01  8.50000000E-01
  8.50000000E-01  8.50000000E-01  8.50000000E-01  8.50000000E-01  8.50000000E-01
  8.50000000E-01  8.50000000E-01  8.50000000E-01  8.50000000E-01  8.50000000E-01
  8.50000000E-01  8.50000000E-01  8.50000000E-01  8.50000000E-01  8.50000000E-01
  8.50000000E-01  8.50000000E-01  8.50000000E-01  8.50000000E-01  8.50000000E-01
  8.50000000E-01  8.50000000E-01  8.50000000E-01  8.50000000E-01  8.50000000E-01
  8.50000000E-01  8.50000000E-01  8.50000000E-01  8.50000000E-01  8.50000000E-01
  8.50000000E-01  8.50000000E-01  8.50000000E-01  8.50000000E-01  8.50000000E-01
  8.50000000E-01  8.50000000E-01  8.50000000E-01  8.50000000E-01  8.50000000E-01
  8.50000000E-01  8.50000000E-01  8.50000000E-01  8.50000000E-01  8.50000000E-01
  8.50000000E-01  8.50000000E-01  8.50000000E-01  8.50000000E-01  8.50000000E-01
  8.50000000E-01  8.50000000E-01  8.50000000E-01  8.50000000E-01  8.50000000E-01
  8.50000000E-01  8.50000000E-01  8.50000000E-01  8.50000000E-01  8.50000000E-01
  8.50000000E-01  8.50000000E-01  8.50000000E-01  8.50000000E-01  8.50000000E-01
  8.50000000E-01  8.50000000E-01  8.50000000E-01  8.50000000E-01  8.50000000E-01
  8.50000000E-01  8.50000000E-01  8.50000000E-01  8.50000000E-01  8.50000000E-01
  8.50000000E-01  8.50000000E-01  8.50000000E-01  8.50000000E-01  8.50000000E-01
  8.50000000E-01  8.50000000E-01  8.50000000E-01  8.50000000E-01  8.50000000E-01
  8.50000000E-01  8.50000000E-01  8.50000000E-01  8.50000000E-01  8.50000000E-01
  8.50000000E-01  8.50000000E-01  8.50000000E-01  8.50000000E-01  8.50000000E-01
  8.50000000E-01  8.50000000E-01  8.50000000E-01  8.50000000E-01  8.50000000E-01
  8.50000000E-01  8.50000000E-01  8.50000000E-01  8.50000000E-01  8.50000000E-01
  8.50000000E-01  8.50000000E-01  8.50000000E-01  8.50000000E-01  8.50000000E-01
  8.50000000E-01  8.50000000E-01  8.50000000E-01  8.50000000E-01  8.50000000E-01
  8.50000000E-01  8.50000000E-01  8.50000000E-01  8.50000000E-01  8.50000000E-01
  8.50000000E-01  8.50000000E-01  8.50000000E-01  8.50000000E-01  8.50000000E-01
  8.50000000E-01  8.50000000E-01  8.50000000E-01  8.50000000E-01  8.50000000E-01
  8.50000000E-01  8.50000000E-01  8.50000000E-01  8.50000000E-01  8.50000000E-01
  8.50000000E-01  8.50000000E-01  8.50000000E-01  8.50000000E-01  8.50000000E-01
  8.50000000E-01  8.50000000E-01  8.50000000E-01  8.50000000E-01  8.50000000E-01
  8.50000000E-01  8.50000000E-01  8.50000000E-01  8.50000000E-01  8.50000000E-01
  8.50000000E-01  8.50000000E-01  8.50000000E-01  8.50000000E-01  8.50000000E-01
  8.50000000E-01  8.50000000E-01  8.50000000E-01  8.50000000E-01  8.50000000E-01
  8.50000000E-01  8.50000000E-01  8.50000000E-01  8.50000000E-01  8.50000000E-01
  8.50000000E-01  8.50000000E-01  8.50000000E-01  8.50000000E-01  8.50000000E-01
  8.50000000E-01  8.50000000E-01  8.50000000E-01  8.50000000E-01  8.50000000E-01
  8.50000000E-01  8.50000000E-01  8.50000000E-01  8.50000000E-01  8.50000000E-01
  8.50000000E-01  8.50000000E-01  8.50000000E-01  8.50000000E-01  8.50000000E-01
  8.50000000E-01  8.50000000E-01  8.50000000E-01  8.50000000E-01  8.50000000E-01
  8.50000000E-01  8.50000000E-01  8.50000000E-01  8.50000000E-01  8.50000000E-01
  8.50000000E-01  8.50000000E-01  8.50000000E-01  8.50000000E-01  8.50000000E-01
  8.50000000E-01  8.50000000E-01  8.50000000E-01  8.50000000E-01  8.50000000E-01
  8.50000000E-01  8.50000000E-01  8.50000000E-01  8.50000000E-01  8.50000000E-01
  8.50000000E-01  8.50000000E-01  8.50000000E-01  8.50000000E-01  8.50000000E-01
  8.50000000E-01  8.50000000E-01  8.50000000E-01  8.50000000E-01  8.50000000E-01
  8.50000000E-01  8.50000000E-01  8.50000000E-01  8.50000000E-01  8.50000000E-01
  8.50000000E-01  8.50000000E-01  8.50000000E-01  8.50000000E-01  8.50000000E-01
  8.50000000E-01  8.50000000E-01  8.50000000E-01  8.50000000E-01  8.50000000E-01
  8.50000000E-01  8.50000000E-01  8.50000000E-01  8.50000000E-01  8.50000000E-01
  8.50000000E-01  8.50000000E-01  8.50000000E-01  8.50000000E-01  8.50000000E-01
  8.50000000E-01  8.50000000E-01  8.50000000E-01  8.50000000E-01  8.50000000E-01
  8.50000000E-01  8.50000000E-01  8.50000000E-01  8.50000000E-01  8.50000000E-01
  8.50000000E-01  8.50000000E-01  8.50000000E-01  8.50000000E-01  8.50000000E-01
  8.50000000E-01  8.50000000E-01  8.50000000E-01  8.50000000E-01  8.50000000E-01
  8.50000000E-01  8.50000000E-01  8.50000000E-01  8.50000000E-01  8.50000000E-01
  8.50000000E-01  8.50000000E-01  8.50000000E-01  8.50000000E-01  8.50000000E-01
  8.50000000E-01  8.50000000E-01  8.50000000E-01  8.50000000E-01  8.50000000E-01
  8.50000000E-01  8.50000000E-01  8.50000000E-01  8.50000000E-01  8.50000000E-01
  8.50000000E-01  8.50000000E-01  8.50000000E-01  8.50000000E-01  8.50000000E-01
  8.50000000E-01  8.50000000E-01  8.50000000E-01  8.50000000E-01  8.50000000E-01
  8.50000000E-01  8.50000000E-01  8.50000000E-01  8.50000000E-01  8.50000000E-01
  8.50000000E-01  8.50000000E-01  8.50000000E-01  8.50000000E-01  8.50000000E-01
  8.50000000E-01  8.50000000E-01  8.50000000E-01  8.50000000E-01  8.50000000E-01
  8.50000000E-01  8.50000000E-01  8.50000000E-01  8.50000000E-01  8.50000000E-01
  8.50000000E-01  8.50000000E-01  8.50000000E-01  8.50000000E-01  8.50000000E-01
  8.50000000E-01  8.50000000E-01  8.50000000E-01  8.50000000E-01  8.50000000E-01
  8.50000000E-01  8.50000000E-01  8.50000000E-01  8.50000000E-01  8.50000000E-01
  8.50000000E-01  8.50000000E-01  8.50000000E-01  8.50000000E-01  8.50000000E-01
  8.50000000E-01  8.50000000E-01  8.50000000E-01  8.50000000E-01  8.50000000E-01
  8.50000000E-01  8.50000000E-01  8.50000000E-01  8.50000000E-01  8.50000000E-01
  8.50000000E-01  8.50000000E-01  8.50000000E-01  8.50000000E-01  8.50000000E-01
  8.50000000E-01  8.50000000E-01  8.50000000E-01  8.50000000E-01  8.50000000E-01
  8.50000000E-01  8.50000000E-01  8.50000000E-01  8.50000000E-01  8.50000000E-01
  8.50000000E-01  8.50000000E-01  8.50000000E-01  8.50000000E-01  8.50000000E-01
  8.50000000E-01  8.50000000E-01  8.50000000E-01  8.50000000E-01  8.50000000E-01
  8.50000000E-01  8.50000000E-01  8.50000000E-01  8.50000000E-01  8.50000000E-01
  8.50000000E-01  8.50000000E-01  8.50000000E-01  8.50000000E-01  8.50000000E-01
  8.50000000E-01  8.50000000E-01  8.50000000E-01  8.50000000E-01  8.50000000E-01
  8.50000000E-01  8.50000000E-01  8.50000000E-01  8.50000000E-01  8.50000000E-01
  8.50000000E-01  8.50000000E-01  8.50000000E-01  8.50000000E-01  8.50000000E-01
  8.50000000E-01  8.50000000E-01  8.50000000E-01  8.50000000E-01  8.50000000E-01
  8.50000000E-01  8.50000000E-01  8.50000000E-01  8.50000000E-01  8.50000000E-01
  8.50000000E-01  8.50000000E-01  8.50000000E-01  8.50000000E-01  8.50000000E-01
  8.50000000E-01  8.50000000E-01  8.50000000E-01  8.50000000E-01  8.50000000E-01
  8.50000000E-01  8.50000000E-01  8.50000000E-01  8.50000000E-01  8.50000000E-01
  8.50000000E-01  8.50000000E-01  8.50000000E-01  8.50000000E-01  8.50000000E-01
  8.50000000E-01  8.50000000E-01  8.50000000E-01  8.50000000E-01  8.50000000E-01
  8.50000000E-01  8.50000000E-01  8.50000000E-01  8.50000000E-01  8.50000000E-01
  8.50000000E-01  8.50000000E-01  8.50000000E-01  8.50000000E-01  8.50000000E-01
  8.50000000E-01  8.50000000E-01  8.50000000E-01  8.50000000E-01  8.50000000E-01
  8.50000000E-01  8.50000000E-01  8.50000000E-01  8.50000000E-01  8.50000000E-01
  8.50000000E-01  8.50000000E-01  8.50000000E-01  8.50000000E-01  8.50000000E-01
  8.50000000E-01  8.50000000E-01  8.50000000E-01  8.50000000E-01  8.50000000E-01
  8.50000000E-01  8.50000000E-01  8.50000000E-01  8.50000000E-01  8.50000000E-01
  8.50000000E-01  8.50000000E-01  8.50000000E-01  8.50000000E-01  8.50000000E-01
  8.50000000E-01  8.50000000E-01  8.50000000E-01  8.50000000E-01  8.50000000E-01
  8.50000000E-01  8.50000000E-01  8.50000000E-01  8.50000000E-01  8.50000000E-01
  8.50000000E-01  8.50000000E-01  8.50000000E-01  8.50000000E-01  8.50000000E-01
  8.50000000E-01  8.50000000E-01  8.50000000E-01  8.50000000E-01  8.50000000E-01
  8.50000000E-01  8.50000000E-01  8.50000000E-01  8.50000000E-01  8.50000000E-01
  8.50000000E-01  8.50000000E-01  8.50000000E-01  8.50000000E-01  8.50000000E-01
  8.50000000E-01  8.50000000E-01  8.50000000E-01  8.50000000E-01  8.50000000E-01
  8.50000000E-01  8.50000000E-01  8.50000000E-01  8.50000000E-01  8.50000000E-01
  8.50000000E-01  8.50000000E-01  8.50000000E-01  8.50000000E-01  8.50000000E-01
  8.50000000E-01  8.50000000E-01  8.50000000E-01  8.50000000E-01  8.50000000E-01
  8.50000000E-01  8.50000000E-01  8.50000000E-01  8.50000000E-01  8.50000000E-01
  8.50000000E-01  8.50000000E-01  8.50000000E-01  8.50000000E-01  8.50000000E-01
  8.50000000E-01  8.50000000E-01  8.50000000E-01  8.50000000E-01  8.50000000E-01
  8.50000000E-01  8.50000000E-01  8.50000000E-01  8.50000000E-01  8.50000000E-01
  8.50000000E-01  8.50000000E-01  8.50000000E-01  8.50000000E-01  8.50000000E-01
  8.50000000E-01  8.50000000E-01  8.50000000E-01  8.50000000E-01  8.50000000E-01
  8.50000000E-01  8.50000000E-01  8.50000000E-01  8.50000000E-01  8.50000000E-01
  8.50000000E-01  8.50000000E-01  8.50000000E-01  8.50000000E-01  8.50000000E-01
  8.50000000E-01  8.50000000E-01  8.50000000E-01  8.50000000E-01  8.50000000E-01
  8.50000000E-01  8.50000000E-01  8.50000000E-01  8.50000000E-01  8.50000000E-01
  8.50000000E-01  8.50000000E-01  8.50000000E-01  8.50000000E-01  8.50000000E-01
  8.50000000E-01  8.50000000E-01  8.50000000E-01  8.50000000E-01  8.50000000E-01
  8.50000000E-01  8.50000000E-01  8.50000000E-01  8.50000000E-01  8.50000000E-01
  8.50000000E-01  8.50000000E-01  8.50000000E-01  8.50000000E-01  8.50000000E-01
  8.50000000E-01  8.50000000E-01  8.50000000E-01  8.50000000E-01  8.50000000E-01
  8.50000000E-01  8.50000000E-01  8.50000000E-01  8.50000000E-01  8.50000000E-01
  8.50000000E-01  8.50000000E-01  8.50000000E-01  8.50000000E-01  8.50000000E-01
  8.50000000E-01  8.50000000E-01  8.50000000E-01  8.50000000E-01  8.50000000E-01
  8.50000000E-01  8.50000000E-01  8.50000000E-01  8.50000000E-01  8.50000000E-01
  8.50000000E-01  8.50000000E-01  8.50000000E-01  8.50000000E-01  8.50000000E-01
  8.50000000E-01  8.50000000E-01  8.50000000E-01  8.50000000E-01  8.50000000E-01
  8.50000000E-01  8.50000000E-01  8.50000000E-01  8.50000000E-01  8.50000000E-01
  8.50000000E-01  8.50000000E-01  8.50000000E-01  8.50000000E-01  8.50000000E-01
  8.50000000E-01  8.50000000E-01  8.50000000E-01  8.50000000E-01  8.50000000E-01
  8.50000000E-01  8.50000000E-01  8.50000000E-01  8.50000000E-01  8.50000000E-01
  8.50000000E-01  8.50000000E-01  8.50000000E-01  8.50000000E-01  8.50000000E-01
  8.50000000E-01  8.50000000E-01  8.50000000E-01  8.50000000E-01  8.50000000E-01
  8.50000000E-01  8.50000000E-01  8.50000000E-01  8.50000000E-01  8.50000000E-01
  8.50000000E-01  8.50000000E-01  8.50000000E-01  8.50000000E-01  8.50000000E-01
  8.50000000E-01  8.50000000E-01  8.50000000E-01  8.50000000E-01  8.50000000E-01
  8.50000000E-01  8.50000000E-01  8.50000000E-01  8.50000000E-01  8.50000000E-01
  8.50000000E-01  8.50000000E-01  8.50000000E-01  8.50000000E-01  8.50000000E-01
  8.50000000E-01  8.50000000E-01  8.50000000E-01  8.50000000E-01  8.50000000E-01
  8.50000000E-01  8.50000000E-01  8.50000000E-01  8.50000000E-01  8.50000000E-01
  8.50000000E-01  8.50000000E-01  8.50000000E-01  8.50000000E-01  8.50000000E-01
  8.50000000E-01  8.50000000E-01  8.50000000E-01  8.50000000E-01  8.50000000E-01
  8.50000000E-01  8.50000000E-01  8.50000000E-01  8.50000000E-01  8.50000000E-01
  8.50000000E-01  8.50000000E-01  8.50000000E-01  8.50000000E-01  8.50000000E-01
  8.50000000E-01  8.50000000E-01  8.50000000E-01  8.50000000E-01  8.50000000E-01
  8.50000000E-01  8.50000000E-01  8.50000000E-01  8.50000000E-01  8.50000000E-01
  8.50000000E-01  8.50000000E-01  8.50000000E-01  8.50000000E-01  8.50000000E-01
  8.50000000E-01  8.50000000E-01  8.50000000E-01  8.50000000E-01  8.50000000E-01
  8.50000000E-01  8.50000000E-01  8.50000000E-01  8.50000000E-01  8.50000000E-01
  8.50000000E-01  8.50000000E-01  8.50000000E-01  8.50000000E-01  8.50000000E-01
  8.50000000E-01  8.50000000E-01  8.50000000E-01  8.50000000E-01  8.50000000E-01
  8.50000000E-01  8.50000000E-01  8.50000000E-01  8.50000000E-01  8.50000000E-01
  8.50000000E-01  8.50000000E-01  8.50000000E-01  8.50000000E-01  8.50000000E-01
  8.50000000E-01  8.50000000E-01  8.50000000E-01  8.50000000E-01  8.50000000E-01
  8.50000000E-01  8.50000000E-01  8.50000000E-01  8.50000000E-01  8.50000000E-01
  8.50000000E-01  8.50000000E-01  8.50000000E-01  8.50000000E-01  8.50000000E-01
  8.50000000E-01  8.50000000E-01  8.50000000E-01  8.50000000E-01  8.50000000E-01
  8.50000000E-01  8.50000000E-01  8.50000000E-01  8.50000000E-01  8.50000000E-01
  8.50000000E-01  8.50000000E-01  8.50000000E-01  8.50000000E-01  8.50000000E-01
  8.50000000E-01  8.50000000E-01  8.50000000E-01  8.50000000E-01  8.50000000E-01
  8.50000000E-01  8.50000000E-01  8.50000000E-01  8.50000000E-01  8.50000000E-01
  8.50000000E-01  8.50000000E-01  8.50000000E-01  8.50000000E-01  8.50000000E-01
  8.50000000E-01  8.50000000E-01  8.50000000E-01  8.50000000E-01  8.50000000E-01
  8.50000000E-01  8.50000000E-01  8.50000000E-01  8.50000000E-01  8.50000000E-01
  8.50000000E-01  8.50000000E-01  8.50000000E-01  8.50000000E-01  8.50000000E-01
  8.50000000E-01  8.50000000E-01  8.50000000E-01  8.50000000E-01  8.50000000E-01
  8.50000000E-01  8.50000000E-01  8.50000000E-01  8.50000000E-01  8.50000000E-01
  8.50000000E-01  8.50000000E-01  8.50000000E-01  8.50000000E-01  8.50000000E-01
  8.50000000E-01  8.50000000E-01  8.50000000E-01  8.50000000E-01  8.50000000E-01
  8.50000000E-01  8.50000000E-01  8.50000000E-01  8.50000000E-01  8.50000000E-01
  8.50000000E-01  8.50000000E-01  8.50000000E-01  8.50000000E-01  8.50000000E-01
  8.50000000E-01  8.50000000E-01  8.50000000E-01  8.50000000E-01  8.50000000E-01
  8.50000000E-01  8.50000000E-01  8.50000000E-01  8.50000000E-01  8.50000000E-01
  8.50000000E-01  8.50000000E-01  8.50000000E-01  8.50000000E-01  8.50000000E-01
  8.50000000E-01  8.50000000E-01  8.50000000E-01  8.50000000E-01  8.50000000E-01
  8.50000000E-01  8.50000000E-01  8.50000000E-01  8.50000000E-01  8.50000000E-01
  8.50000000E-01  8.50000000E-01  8.50000000E-01  8.50000000E-01  8.50000000E-01
  8.50000000E-01  8.50000000E-01  8.50000000E-01  8.50000000E-01  8.50000000E-01
  8.50000000E-01  8.50000000E-01  8.50000000E-01  8.50000000E-01  8.50000000E-01
  8.50000000E-01  8.50000000E-01  8.50000000E-01  8.50000000E-01  8.50000000E-01
  8.50000000E-01  8.50000000E-01  8.50000000E-01  8.50000000E-01  8.50000000E-01
  8.50000000E-01  8.50000000E-01  8.50000000E-01  8.50000000E-01  8.50000000E-01
  8.50000000E-01  8.50000000E-01  8.50000000E-01  8.50000000E-01  8.50000000E-01
  8.50000000E-01  8.50000000E-01  8.50000000E-01  8.50000000E-01  8.50000000E-01
  8.50000000E-01  8.50000000E-01  8.50000000E-01  8.50000000E-01  8.50000000E-01
  8.50000000E-01  8.50000000E-01  8.50000000E-01  8.50000000E-01  8.50000000E-01
  8.50000000E-01  8.50000000E-01  8.50000000E-01  8.50000000E-01  8.50000000E-01
  8.50000000E-01  8.50000000E-01  8.50000000E-01  8.50000000E-01  8.50000000E-01
  8.50000000E-01  8.50000000E-01  8.50000000E-01  8.50000000E-01  8.50000000E-01
  8.50000000E-01  8.50000000E-01  8.50000000E-01  8.50000000E-01  8.50000000E-01
  8.50000000E-01  8.50000000E-01  8.50000000E-01  8.50000000E-01  8.50000000E-01
  8.50000000E-01  8.50000000E-01  8.50000000E-01  8.50000000E-01  8.50000000E-01
  8.50000000E-01  8.50000000E-01  8.50000000E-01  8.50000000E-01  8.50000000E-01
  8.50000000E-01  8.50000000E-01  8.50000000E-01  8.50000000E-01  8.50000000E-01
  8.50000000E-01  8.50000000E-01  8.50000000E-01  8.50000000E-01  8.50000000E-01
  8.50000000E-01  8.50000000E-01  8.50000000E-01  8.50000000E-01  8.50000000E-01
  8.50000000E-01  8.50000000E-01  8.50000000E-01  8.50000000E-01  8.50000000E-01
  8.50000000E-01  8.50000000E-01  8.50000000E-01  8.50000000E-01  8.50000000E-01
  8.50000000E-01  8.50000000E-01  8.50000000E-01  8.50000000E-01  8.50000000E-01
  8.50000000E-01  8.50000000E-01  8.50000000E-01  8.50000000E-01  8.50000000E-01
  8.50000000E-01  8.50000000E-01  8.50000000E-01  8.50000000E-01  8.50000000E-01
  8.50000000E-01  8.50000000E-01  8.50000000E-01  8.50000000E-01  8.50000000E-01
  8.50000000E-01  8.50000000E-01  8.50000000E-01  8.50000000E-01  8.50000000E-01
  8.50000000E-01  8.50000000E-01  8.50000000E-01  8.50000000E-01  8.50000000E-01
  8.50000000E-01  8.50000000E-01  8.50000000E-01  8.50000000E-01  8.50000000E-01
  8.50000000E-01  8.50000000E-01  8.50000000E-01  8.50000000E-01  8.50000000E-01
  8.50000000E-01  8.50000000E-01  8.50000000E-01  8.50000000E-01  8.50000000E-01
  8.50000000E-01  8.50000000E-01  8.50000000E-01  8.50000000E-01  8.50000000E-01
  8.50000000E-01  8.50000000E-01  8.50000000E-01  8.50000000E-01  8.50000000E-01
  8.50000000E-01  8.50000000E-01  8.50000000E-01  8.50000000E-01  8.50000000E-01
  8.50000000E-01  8.50000000E-01  8.50000000E-01  8.50000000E-01  8.50000000E-01
  8.50000000E-01  8.50000000E-01  8.50000000E-01  8.50000000E-01  8.50000000E-01
  8.50000000E-01  8.50000000E-01  8.50000000E-01  8.50000000E-01  8.50000000E-01
  8.50000000E-01  8.50000000E-01  8.50000000E-01  8.50000000E-01  8.50000000E-01
  8.50000000E-01  8.50000000E-01  8.50000000E-01  8.50000000E-01  8.50000000E-01
  8.50000000E-01  8.50000000E-01  8.50000000E-01  8.50000000E-01  8.50000000E-01
  8.50000000E-01  8.50000000E-01  8.50000000E-01  8.50000000E-01  8.50000000E-01
  8.50000000E-01  8.50000000E-01  8.50000000E-01  8.50000000E-01  8.50000000E-01
  8.50000000E-01  8.50000000E-01  8.50000000E-01  8.50000000E-01  8.50000000E-01
  8.50000000E-01  8.50000000E-01  8.50000000E-01  8.50000000E-01  8.50000000E-01
  8.50000000E-01  8.50000000E-01  8.50000000E-01  8.50000000E-01  8.50000000E-01
  8.50000000E-01  8.50000000E-01  8.50000000E-01  8.50000000E-01  8.50000000E-01
  8.50000000E-01  8.50000000E-01  8.50000000E-01  8.50000000E-01  8.50000000E-01
  8.50000000E-01  8.50000000E-01  8.50000000E-01  8.50000000E-01  8.50000000E-01
  8.50000000E-01  8.50000000E-01  8.50000000E-01  8.50000000E-01  8.50000000E-01
  8.50000000E-01  8.50000000E-01  8.50000000E-01  8.50000000E-01  8.50000000E-01
  8.50000000E-01  8.50000000E-01  8.50000000E-01  8.50000000E-01  8.50000000E-01
  8.50000000E-01  8.50000000E-01  8.50000000E-01  8.50000000E-01  8.50000000E-01
  8.50000000E-01  8.50000000E-01  8.50000000E-01  8.50000000E-01  8.50000000E-01
  8.50000000E-01  8.50000000E-01  8.50000000E-01  8.50000000E-01  8.50000000E-01
  8.50000000E-01  8.50000000E-01  8.50000000E-01  8.50000000E-01  8.50000000E-01
  8.50000000E-01  8.50000000E-01  8.50000000E-01  8.50000000E-01  8.50000000E-01
  8.50000000E-01  8.50000000E-01  8.50000000E-01  8.50000000E-01  8.50000000E-01
  8.50000000E-01  8.50000000E-01  8.50000000E-01  8.50000000E-01  8.50000000E-01
  8.50000000E-01  8.50000000E-01  8.50000000E-01  8.50000000E-01  8.50000000E-01
  8.50000000E-01  8.50000000E-01  8.50000000E-01  8.50000000E-01  8.50000000E-01
  8.50000000E-01  8.50000000E-01  8.50000000E-01  8.50000000E-01  8.50000000E-01
  8.50000000E-01  8.50000000E-01  8.50000000E-01  8.50000000E-01  8.50000000E-01
  8.50000000E-01  8.50000000E-01  8.50000000E-01  8.50000000E-01  8.50000000E-01
  8.50000000E-01  8.50000000E-01  8.50000000E-01  8.50000000E-01  8.50000000E-01
  8.50000000E-01  8.50000000E-01  8.50000000E-01  8.50000000E-01  8.50000000E-01
  8.50000000E-01  8.50000000E-01  8.50000000E-01  8.50000000E-01  8.50000000E-01
  8.50000000E-01  8.50000000E-01  8.50000000E-01  8.50000000E-01  8.50000000E-01
  8.50000000E-01  8.50000000E-01  8.50000000E-01  8.50000000E-01  8.50000000E-01
  8.50000000E-01  8.50000000E-01  8.50000000E-01  8.50000000E-01  8.50000000E-01
  8.50000000E-01  8.50000000E-01  8.50000000E-01  8.50000000E-01  8.50000000E-01
  8.50000000E-01  8.50000000E-01  8.50000000E-01  8.50000000E-01  8.50000000E-01
  8.50000000E-01  8.50000000E-01  8.50000000E-01  8.50000000E-01  8.50000000E-01
  8.50000000E-01  8.50000000E-01  8.50000000E-01  8.50000000E-01  8.50000000E-01
  8.50000000E-01  8.50000000E-01  8.50000000E-01  8.50000000E-01  8.50000000E-01
  8.50000000E-01  8.50000000E-01  8.50000000E-01  8.50000000E-01  8.50000000E-01
  8.50000000E-01  8.50000000E-01  8.50000000E-01  8.50000000E-01  8.50000000E-01
  8.50000000E-01  8.50000000E-01  8.50000000E-01  8.50000000E-01  8.50000000E-01
  8.50000000E-01  8.50000000E-01  8.50000000E-01  8.50000000E-01  8.50000000E-01
  8.50000000E-01  8.50000000E-01  8.50000000E-01  8.50000000E-01  8.50000000E-01
  8.50000000E-01  8.50000000E-01  8.50000000E-01  8.50000000E-01  8.50000000E-01
  8.50000000E-01  8.50000000E-01  8.50000000E-01  8.50000000E-01  8.50000000E-01
  8.50000000E-01  8.50000000E-01  8.50000000E-01  8.50000000E-01  8.50000000E-01
  8.50000000E-01  8.50000000E-01  8.50000000E-01  8.50000000E-01  8.50000000E-01
  8.50000000E-01  8.50000000E-01  8.50000000E-01  8.50000000E-01  8.50000000E-01
  8.50000000E-01  8.50000000E-01  8.50000000E-01  8.50000000E-01  8.50000000E-01
  8.50000000E-01  8.50000000E-01  8.50000000E-01  8.50000000E-01  8.50000000E-01
  8.50000000E-01  8.50000000E-01  8.50000000E-01  8.50000000E-01  8.50000000E-01
  8.50000000E-01  8.50000000E-01  8.50000000E-01  8.50000000E-01  8.50000000E-01
  8.50000000E-01  8.50000000E-01  8.50000000E-01  8.50000000E-01  8.50000000E-01
  8.50000000E-01  8.50000000E-01  8.50000000E-01  8.50000000E-01  8.50000000E-01
  8.50000000E-01  8.50000000E-01  8.50000000E-01  8.50000000E-01  8.50000000E-01
  8.50000000E-01  8.50000000E-01  8.50000000E-01  8.50000000E-01  8.50000000E-01
  8.50000000E-01  8.50000000E-01  8.50000000E-01  8.50000000E-01  8.50000000E-01
  8.50000000E-01  8.50000000E-01  8.50000000E-01  8.50000000E-01  8.50000000E-01
  8.50000000E-01  8.50000000E-01  8.50000000E-01  8.50000000E-01  8.50000000E-01
  8.50000000E-01  8.50000000E-01  8.50000000E-01  8.50000000E-01  8.50000000E-01
  8.50000000E-01  8.50000000E-01  8.50000000E-01  8.50000000E-01  8.50000000E-01
  8.50000000E-01  8.50000000E-01  8.50000000E-01  8.50000000E-01  8.50000000E-01
  8.50000000E-01  8.50000000E-01  8.50000000E-01  8.50000000E-01  8.50000000E-01
  8.50000000E-01  8.50000000E-01  8.50000000E-01  8.50000000E-01  8.50000000E-01
  8.50000000E-01  8.50000000E-01  8.50000000E-01  8.50000000E-01  8.50000000E-01
  8.50000000E-01  8.50000000E-01  8.50000000E-01  8.50000000E-01  8.50000000E-01
  8.50000000E-01  8.50000000E-01  8.50000000E-01  8.50000000E-01  8.50000000E-01
  8.50000000E-01  8.50000000E-01  8.50000000E-01  8.50000000E-01  8.50000000E-01
  8.50000000E-01  8.50000000E-01  8.50000000E-01  8.50000000E-01  8.50000000E-01
  8.50000000E-01  8.50000000E-01  8.50000000E-01  8.50000000E-01  8.50000000E-01
  8.50000000E-01  8.50000000E-01  8.50000000E-01  8.50000000E-01  8.50000000E-01
  8.50000000E-01  8.50000000E-01  8.50000000E-01  8.50000000E-01  8.50000000E-01
  8.50000000E-01  8.50000000E-01  8.50000000E-01  8.50000000E-01  8.50000000E-01
  8.50000000E-01  8.50000000E-01  8.50000000E-01  8.50000000E-01  8.50000000E-01
  8.50000000E-01  8.50000000E-01  8.50000000E-01  8.50000000E-01  8.50000000E-01
  8.50000000E-01  8.50000000E-01  8.50000000E-01  8.50000000E-01  8.50000000E-01
  8.50000000E-01  8.50000000E-01  8.50000000E-01  8.50000000E-01  8.50000000E-01
  8.50000000E-01  8.50000000E-01  8.50000000E-01  8.50000000E-01  8.50000000E-01
  8.50000000E-01  8.50000000E-01  8.50000000E-01  8.50000000E-01  8.50000000E-01
  8.50000000E-01  8.50000000E-01  8.50000000E-01  8.50000000E-01  8.50000000E-01
  8.50000000E-01  8.50000000E-01  8.50000000E-01  8.50000000E-01  8.50000000E-01
  8.50000000E-01  8.50000000E-01  8.50000000E-01  8.50000000E-01  8.50000000E-01
  8.50000000E-01  8.50000000E-01  8.50000000E-01  8.50000000E-01  8.50000000E-01
  8.50000000E-01  8.50000000E-01  8.50000000E-01  8.50000000E-01  8.50000000E-01
  8.50000000E-01  8.50000000E-01  8.50000000E-01  8.50000000E-01  8.50000000E-01
  8.50000000E-01  8.50000000E-01  8.50000000E-01  8.50000000E-01  8.50000000E-01
  8.50000000E-01  8.50000000E-01  8.50000000E-01  8.50000000E-01  8.50000000E-01
  8.50000000E-01  8.50000000E-01  8.50000000E-01  8.50000000E-01  8.50000000E-01
  8.50000000E-01  8.50000000E-01  8.50000000E-01  8.50000000E-01  8.50000000E-01
  8.50000000E-01  8.50000000E-01  8.50000000E-01  8.50000000E-01  8.50000000E-01
  8.50000000E-01  8.50000000E-01  8.50000000E-01  8.50000000E-01  8.50000000E-01
  8.50000000E-01  8.50000000E-01  8.50000000E-01  8.50000000E-01  8.50000000E-01
  8.50000000E-01  8.50000000E-01  8.50000000E-01  8.50000000E-01  8.50000000E-01
  8.50000000E-01  8.50000000E-01  8.50000000E-01  8.50000000E-01  8.50000000E-01
  8.50000000E-01  8.50000000E-01  8.50000000E-01  8.50000000E-01  8.50000000E-01
  8.50000000E-01  8.50000000E-01  8.50000000E-01  8.50000000E-01  8.50000000E-01
  8.50000000E-01  8.50000000E-01  8.50000000E-01  8.50000000E-01  8.50000000E-01
  8.50000000E-01  8.50000000E-01  8.50000000E-01  8.50000000E-01  8.50000000E-01
  8.50000000E-01  8.50000000E-01  8.50000000E-01  8.50000000E-01  8.50000000E-01
  8.50000000E-01  8.50000000E-01  8.50000000E-01  8.50000000E-01  8.50000000E-01
  8.50000000E-01  8.50000000E-01  8.50000000E-01  8.50000000E-01  8.50000000E-01
  8.50000000E-01  8.50000000E-01  8.50000000E-01  8.50000000E-01  8.50000000E-01
  8.50000000E-01  8.50000000E-01  8.50000000E-01  8.50000000E-01  8.50000000E-01
  8.50000000E-01  8.50000000E-01  8.50000000E-01  8.50000000E-01  8.50000000E-01
  8.50000000E-01  8.50000000E-01  8.50000000E-01  8.50000000E-01  8.50000000E-01
  8.50000000E-01  8.50000000E-01  8.50000000E-01  8.50000000E-01  8.50000000E-01
  8.50000000E-01  8.50000000E-01  8.50000000E-01  8.50000000E-01  8.50000000E-01
  8.50000000E-01  8.50000000E-01  8.50000000E-01  8.50000000E-01  8.50000000E-01
  8.50000000E-01  8.50000000E-01  8.50000000E-01  8.50000000E-01  8.50000000E-01
  8.50000000E-01  8.50000000E-01  8.50000000E-01  8.50000000E-01  8.50000000E-01
  8.50000000E-01  8.50000000E-01  8.50000000E-01  8.50000000E-01  8.50000000E-01
  8.50000000E-01  8.50000000E-01  8.50000000E-01  8.50000000E-01  8.50000000E-01
  8.50000000E-01  8.50000000E-01  8.50000000E-01  8.50000000E-01  8.50000000E-01
  8.50000000E-01  8.50000000E-01  8.50000000E-01  8.50000000E-01  8.50000000E-01
  8.50000000E-01  8.50000000E-01  8.50000000E-01  8.50000000E-01  8.50000000E-01
  8.50000000E-01  8.50000000E-01  8.50000000E-01  8.50000000E-01  8.50000000E-01
  8.50000000E-01  8.50000000E-01  8.50000000E-01  8.50000000E-01  8.50000000E-01
  8.50000000E-01  8.50000000E-01  8.50000000E-01  8.50000000E-01  8.50000000E-01
  8.50000000E-01  8.50000000E-01  8.50000000E-01  8.50000000E-01  8.50000000E-01
  8.50000000E-01  8.50000000E-01  8.50000000E-01  8.50000000E-01  8.50000000E-01
  8.50000000E-01  8.50000000E-01  8.50000000E-01  8.50000000E-01  8.50000000E-01
  8.50000000E-01  8.50000000E-01  8.50000000E-01  8.50000000E-01  8.50000000E-01
  8.50000000E-01  8.50000000E-01  8.50000000E-01  8.50000000E-01  8.50000000E-01
  8.50000000E-01  8.50000000E-01  8.50000000E-01  8.50000000E-01  8.50000000E-01
  8.50000000E-01  8.50000000E-01  8.50000000E-01  8.50000000E-01  8.50000000E-01
  8.50000000E-01  8.50000000E-01  8.50000000E-01  8.50000000E-01  8.50000000E-01
  8.50000000E-01  8.50000000E-01  8.50000000E-01  8.50000000E-01  8.50000000E-01
  8.50000000E-01  8.50000000E-01  8.50000000E-01  8.50000000E-01  8.50000000E-01
  8.50000000E-01  8.50000000E-01  8.50000000E-01  8.50000000E-01  8.50000000E-01
  8.50000000E-01  8.50000000E-01  8.50000000E-01  8.50000000E-01  8.50000000E-01
  8.50000000E-01  8.50000000E-01  8.50000000E-01  8.50000000E-01  8.50000000E-01
  8.50000000E-01  8.50000000E-01  8.50000000E-01  8.50000000E-01  8.50000000E-01
  8.50000000E-01  8.50000000E-01  8.50000000E-01  8.50000000E-01  8.50000000E-01
  8.50000000E-01  8.50000000E-01  8.50000000E-01  8.50000000E-01  8.50000000E-01
  8.50000000E-01  8.50000000E-01  8.50000000E-01  8.50000000E-01  8.50000000E-01
  8.50000000E-01  8.50000000E-01  8.50000000E-01  8.50000000E-01  8.50000000E-01
  8.50000000E-01  8.50000000E-01  8.50000000E-01  8.50000000E-01  8.50000000E-01
  8.50000000E-01  8.50000000E-01  8.50000000E-01  8.50000000E-01  8.50000000E-01
  8.50000000E-01  8.50000000E-01  8.50000000E-01  8.50000000E-01  8.50000000E-01
  8.50000000E-01  8.50000000E-01  8.50000000E-01  8.50000000E-01  8.50000000E-01
  8.50000000E-01  8.50000000E-01  8.50000000E-01  8.50000000E-01  8.50000000E-01
  8.50000000E-01  8.50000000E-01  8.50000000E-01  8.50000000E-01  8.50000000E-01
  8.50000000E-01  8.50000000E-01  8.50000000E-01  8.50000000E-01  8.50000000E-01
  8.50000000E-01  8.50000000E-01  8.50000000E-01  8.50000000E-01  8.50000000E-01
  8.50000000E-01  8.50000000E-01  8.50000000E-01  8.50000000E-01  8.50000000E-01
  8.50000000E-01  8.50000000E-01  8.50000000E-01  8.50000000E-01  8.50000000E-01
  8.50000000E-01  8.50000000E-01  8.50000000E-01  8.50000000E-01  8.50000000E-01
  8.50000000E-01  8.50000000E-01  8.50000000E-01  8.50000000E-01  8.50000000E-01
  8.50000000E-01  8.50000000E-01  8.50000000E-01  8.50000000E-01  8.50000000E-01
  8.50000000E-01  8.50000000E-01  8.50000000E-01  8.50000000E-01  8.50000000E-01
  8.50000000E-01  8.50000000E-01  8.50000000E-01  8.50000000E-01  8.50000000E-01
  8.50000000E-01  8.50000000E-01  8.50000000E-01  8.50000000E-01  8.50000000E-01
  8.50000000E-01  8.50000000E-01  8.50000000E-01  8.50000000E-01  8.50000000E-01
  8.50000000E-01  8.50000000E-01  8.50000000E-01  8.50000000E-01  8.50000000E-01
  8.50000000E-01  8.50000000E-01  8.50000000E-01  8.50000000E-01  8.50000000E-01
  8.50000000E-01  8.50000000E-01  8.50000000E-01  8.50000000E-01  8.50000000E-01
  8.50000000E-01  8.50000000E-01  8.50000000E-01  8.50000000E-01  8.50000000E-01
  8.50000000E-01  8.50000000E-01  8.50000000E-01  8.50000000E-01  8.50000000E-01
  8.50000000E-01  8.50000000E-01  8.50000000E-01  8.50000000E-01  8.50000000E-01
  8.50000000E-01  8.50000000E-01  8.50000000E-01  8.50000000E-01  8.50000000E-01
  8.50000000E-01  8.50000000E-01  8.50000000E-01  8.50000000E-01  8.50000000E-01
  8.50000000E-01  8.50000000E-01  8.50000000E-01  8.50000000E-01  8.50000000E-01
  8.50000000E-01  8.50000000E-01  8.50000000E-01  8.50000000E-01  8.50000000E-01
  8.50000000E-01  8.50000000E-01  8.50000000E-01  8.50000000E-01  8.50000000E-01
  8.50000000E-01  8.50000000E-01  8.50000000E-01  8.50000000E-01  8.50000000E-01
  8.50000000E-01  8.50000000E-01  8.50000000E-01  8.50000000E-01  8.50000000E-01
  8.50000000E-01  8.50000000E-01  8.50000000E-01  8.50000000E-01  8.50000000E-01
  8.50000000E-01  8.50000000E-01  8.50000000E-01  8.50000000E-01  8.50000000E-01
  8.50000000E-01  8.50000000E-01  8.50000000E-01  8.50000000E-01  8.50000000E-01
  8.50000000E-01  8.50000000E-01  8.50000000E-01  8.50000000E-01  8.50000000E-01
  8.50000000E-01  8.50000000E-01  8.50000000E-01  8.50000000E-01  8.50000000E-01
  8.50000000E-01  8.50000000E-01  8.50000000E-01  8.50000000E-01  8.50000000E-01
  8.50000000E-01  8.50000000E-01  8.50000000E-01  8.50000000E-01  8.50000000E-01
  8.50000000E-01  8.50000000E-01  8.50000000E-01  8.50000000E-01  8.50000000E-01
  8.50000000E-01  8.50000000E-01  8.50000000E-01  8.50000000E-01  8.50000000E-01
  8.50000000E-01  8.50000000E-01  8.50000000E-01  8.50000000E-01  8.50000000E-01
  8.50000000E-01  8.50000000E-01  8.50000000E-01  8.50000000E-01  8.50000000E-01
  8.50000000E-01  8.50000000E-01  8.50000000E-01  8.50000000E-01  8.50000000E-01
  8.50000000E-01  8.50000000E-01  8.50000000E-01  8.50000000E-01  8.50000000E-01
  8.50000000E-01  8.50000000E-01  8.50000000E-01  8.50000000E-01  8.50000000E-01
  8.50000000E-01  8.50000000E-01  8.50000000E-01  8.50000000E-01  8.50000000E-01
  8.50000000E-01  8.50000000E-01  8.50000000E-01  8.50000000E-01  8.50000000E-01
  8.50000000E-01  8.50000000E-01  8.50000000E-01  8.50000000E-01  8.50000000E-01
  8.50000000E-01  8.50000000E-01  8.50000000E-01  8.50000000E-01  8.50000000E-01
  8.50000000E-01  8.50000000E-01  8.50000000E-01  8.50000000E-01  8.50000000E-01
  8.50000000E-01  8.50000000E-01  8.50000000E-01  8.50000000E-01  8.50000000E-01
  8.50000000E-01  8.50000000E-01  8.50000000E-01  8.50000000E-01  8.50000000E-01
  8.50000000E-01  8.50000000E-01  8.50000000E-01  8.50000000E-01  8.50000000E-01
  8.50000000E-01  8.50000000E-01  8.50000000E-01  8.50000000E-01  8.50000000E-01
  8.50000000E-01  8.50000000E-01  8.50000000E-01  8.50000000E-01  8.50000000E-01
  8.50000000E-01  8.50000000E-01  8.50000000E-01  8.50000000E-01  8.50000000E-01
  8.50000000E-01  8.50000000E-01  8.50000000E-01  8.50000000E-01  8.50000000E-01
  8.50000000E-01  8.50000000E-01  8.50000000E-01  8.50000000E-01  8.50000000E-01
  8.50000000E-01  8.50000000E-01  8.50000000E-01  8.50000000E-01  8.50000000E-01
  8.50000000E-01  8.50000000E-01  8.50000000E-01  8.50000000E-01  8.50000000E-01
  8.50000000E-01  8.50000000E-01  8.50000000E-01  8.50000000E-01  8.50000000E-01
  8.50000000E-01  8.50000000E-01  8.50000000E-01  8.50000000E-01  8.50000000E-01
  8.50000000E-01  8.50000000E-01  8.50000000E-01  8.50000000E-01  8.50000000E-01
  8.50000000E-01  8.50000000E-01  8.50000000E-01  8.50000000E-01  8.50000000E-01
  8.50000000E-01  8.50000000E-01  8.50000000E-01  8.50000000E-01  8.50000000E-01
  8.50000000E-01  8.50000000E-01  8.50000000E-01  8.50000000E-01  8.50000000E-01
  8.50000000E-01  8.50000000E-01  8.50000000E-01  8.50000000E-01  8.50000000E-01
  8.50000000E-01  8.50000000E-01  8.50000000E-01  8.50000000E-01  8.50000000E-01
  8.50000000E-01  8.50000000E-01  8.50000000E-01  8.50000000E-01  8.50000000E-01
  8.50000000E-01  8.50000000E-01  8.50000000E-01  8.50000000E-01  8.50000000E-01
  8.50000000E-01  8.50000000E-01  8.50000000E-01  8.50000000E-01  8.50000000E-01
  8.50000000E-01  8.50000000E-01  8.50000000E-01  8.50000000E-01  8.50000000E-01
  8.50000000E-01  8.50000000E-01  8.50000000E-01  8.50000000E-01  8.50000000E-01
  8.50000000E-01  8.50000000E-01  8.50000000E-01  8.50000000E-01  8.50000000E-01
  8.50000000E-01  8.50000000E-01  8.50000000E-01  8.50000000E-01  8.50000000E-01
  8.50000000E-01  8.50000000E-01  8.50000000E-01  8.50000000E-01  8.50000000E-01
  8.50000000E-01  8.50000000E-01  8.50000000E-01  8.50000000E-01  8.50000000E-01
  8.50000000E-01  8.50000000E-01  8.50000000E-01  8.50000000E-01  8.50000000E-01
  8.50000000E-01  8.50000000E-01  8.50000000E-01  8.50000000E-01  8.50000000E-01
  8.50000000E-01  8.50000000E-01  8.50000000E-01  8.50000000E-01  8.50000000E-01
  8.50000000E-01  8.50000000E-01  8.50000000E-01  8.50000000E-01  8.50000000E-01
  8.50000000E-01  8.50000000E-01  8.50000000E-01  8.50000000E-01  8.50000000E-01
  8.50000000E-01  8.50000000E-01  8.50000000E-01  8.50000000E-01  8.50000000E-01
  8.50000000E-01  8.50000000E-01  8.50000000E-01  8.50000000E-01  8.50000000E-01
  8.50000000E-01  8.50000000E-01  8.50000000E-01  8.50000000E-01  8.50000000E-01
  8.50000000E-01  8.50000000E-01  8.50000000E-01  8.50000000E-01  8.50000000E-01
  8.50000000E-01  8.50000000E-01  8.50000000E-01  8.50000000E-01  8.50000000E-01
  8.50000000E-01  8.50000000E-01  8.50000000E-01  8.50000000E-01  8.50000000E-01
  8.50000000E-01  8.50000000E-01  8.50000000E-01  8.50000000E-01  8.50000000E-01
  8.50000000E-01  8.50000000E-01  8.50000000E-01  8.50000000E-01  8.50000000E-01
  8.50000000E-01  8.50000000E-01  8.50000000E-01  8.50000000E-01  8.50000000E-01
  8.50000000E-01  8.50000000E-01  8.50000000E-01  8.50000000E-01  8.50000000E-01
  8.50000000E-01  8.50000000E-01  8.50000000E-01  8.50000000E-01  8.50000000E-01
  8.50000000E-01  8.50000000E-01  8.50000000E-01  8.50000000E-01  8.50000000E-01
  8.50000000E-01  8.50000000E-01  8.50000000E-01  8.50000000E-01  8.50000000E-01
  8.50000000E-01  8.50000000E-01  8.50000000E-01  8.50000000E-01  8.50000000E-01
  8.50000000E-01  8.50000000E-01  8.50000000E-01  8.50000000E-01  8.50000000E-01
  8.50000000E-01  8.50000000E-01  8.50000000E-01  8.50000000E-01  8.50000000E-01
  8.50000000E-01  8.50000000E-01  8.50000000E-01  8.50000000E-01  8.50000000E-01
  8.50000000E-01  8.50000000E-01  8.50000000E-01  8.50000000E-01  8.50000000E-01
  8.50000000E-01  8.50000000E-01  8.50000000E-01  8.50000000E-01  8.50000000E-01
  8.50000000E-01  8.50000000E-01  8.50000000E-01  8.50000000E-01  8.50000000E-01
  8.50000000E-01  8.50000000E-01  8.50000000E-01  8.50000000E-01  8.50000000E-01
  8.50000000E-01  8.50000000E-01  8.50000000E-01  8.50000000E-01  8.50000000E-01
  8.50000000E-01  8.50000000E-01  8.50000000E-01  8.50000000E-01  8.50000000E-01
  8.50000000E-01  8.50000000E-01  8.50000000E-01  8.50000000E-01  8.50000000E-01
  8.50000000E-01  8.50000000E-01  8.50000000E-01  8.50000000E-01  8.50000000E-01
  8.50000000E-01  8.50000000E-01  8.50000000E-01  8.50000000E-01  8.50000000E-01
  8.50000000E-01  8.50000000E-01  8.50000000E-01  8.50000000E-01  8.50000000E-01
  8.50000000E-01  8.50000000E-01  8.50000000E-01  8.50000000E-01  8.50000000E-01
  8.50000000E-01  8.50000000E-01  8.50000000E-01  8.50000000E-01  8.50000000E-01
  8.50000000E-01  8.50000000E-01  8.50000000E-01  8.50000000E-01  8.50000000E-01
  8.50000000E-01  8.50000000E-01  8.50000000E-01  8.50000000E-01  8.50000000E-01
  8.50000000E-01  8.50000000E-01  8.50000000E-01  8.50000000E-01  8.50000000E-01
  8.50000000E-01  8.50000000E-01  8.50000000E-01  8.50000000E-01  8.50000000E-01
  8.50000000E-01  8.50000000E-01  8.50000000E-01  8.50000000E-01  8.50000000E-01
  8.50000000E-01  8.50000000E-01  8.50000000E-01  8.50000000E-01  8.50000000E-01
  8.50000000E-01  8.50000000E-01  8.50000000E-01  8.50000000E-01  8.50000000E-01
  8.50000000E-01  8.50000000E-01  8.50000000E-01  8.50000000E-01  8.50000000E-01
  8.50000000E-01  8.50000000E-01  8.50000000E-01  8.50000000E-01  8.50000000E-01
  8.50000000E-01  8.50000000E-01  8.50000000E-01  8.50000000E-01  8.50000000E-01
  8.50000000E-01  8.50000000E-01  8.50000000E-01  8.50000000E-01  8.50000000E-01
  8.50000000E-01  8.50000000E-01  8.50000000E-01  8.50000000E-01  8.50000000E-01
  8.50000000E-01  8.50000000E-01  8.50000000E-01  8.50000000E-01  8.50000000E-01
  8.50000000E-01  8.50000000E-01  8.50000000E-01  8.50000000E-01  8.50000000E-01
  8.50000000E-01  8.50000000E-01  8.50000000E-01  8.50000000E-01  8.50000000E-01
  8.50000000E-01  8.50000000E-01  8.50000000E-01  8.50000000E-01  8.50000000E-01
  8.50000000E-01  8.50000000E-01  8.50000000E-01  8.50000000E-01  8.50000000E-01
  8.50000000E-01  8.50000000E-01  8.50000000E-01  8.50000000E-01  8.50000000E-01
  8.50000000E-01  8.50000000E-01  8.50000000E-01  8.50000000E-01  8.50000000E-01
  8.50000000E-01  8.50000000E-01  8.50000000E-01  8.50000000E-01  8.50000000E-01
  8.50000000E-01  8.50000000E-01  8.50000000E-01  8.50000000E-01  8.50000000E-01
  8.50000000E-01  8.50000000E-01  8.50000000E-01  8.50000000E-01  8.50000000E-01
  8.50000000E-01  8.50000000E-01  8.50000000E-01  8.50000000E-01  8.50000000E-01
  8.50000000E-01  8.50000000E-01  8.50000000E-01  8.50000000E-01  8.50000000E-01
  8.50000000E-01  8.50000000E-01  8.50000000E-01  8.50000000E-01  8.50000000E-01
  8.50000000E-01  8.50000000E-01  8.50000000E-01  8.50000000E-01  8.50000000E-01
  8.50000000E-01  8.50000000E-01  8.50000000E-01  8.50000000E-01  8.50000000E-01
  8.50000000E-01  8.50000000E-01  8.50000000E-01  8.50000000E-01  8.50000000E-01
  8.50000000E-01  8.50000000E-01  8.50000000E-01  8.50000000E-01  8.50000000E-01
  8.50000000E-01  8.50000000E-01  8.50000000E-01  8.50000000E-01  8.50000000E-01
  8.50000000E-01  8.50000000E-01  8.50000000E-01  8.50000000E-01  8.50000000E-01
  8.50000000E-01  8.50000000E-01  8.50000000E-01  8.50000000E-01  8.50000000E-01
  8.50000000E-01  8.50000000E-01  8.50000000E-01  8.50000000E-01  8.50000000E-01
  8.50000000E-01  8.50000000E-01  8.50000000E-01  8.50000000E-01  8.50000000E-01
  8.50000000E-01  8.50000000E-01  8.50000000E-01  8.50000000E-01  8.50000000E-01
  8.50000000E-01  8.50000000E-01  8.50000000E-01  8.50000000E-01  8.50000000E-01
  8.50000000E-01  8.50000000E-01  8.50000000E-01  8.50000000E-01  8.50000000E-01
  8.50000000E-01  8.50000000E-01  8.50000000E-01  8.50000000E-01  8.50000000E-01
  8.50000000E-01  8.50000000E-01  8.50000000E-01  8.50000000E-01  8.50000000E-01
  8.50000000E-01  8.50000000E-01  8.50000000E-01  8.50000000E-01  8.50000000E-01
  8.50000000E-01  8.50000000E-01  8.50000000E-01  8.50000000E-01  8.50000000E-01
  8.50000000E-01  8.50000000E-01  8.50000000E-01  8.50000000E-01  8.50000000E-01
  8.50000000E-01  8.50000000E-01  8.50000000E-01  8.50000000E-01  8.50000000E-01
  8.50000000E-01  8.50000000E-01  8.50000000E-01  8.50000000E-01  8.50000000E-01
  8.50000000E-01  8.50000000E-01  8.50000000E-01  8.50000000E-01  8.50000000E-01
  8.50000000E-01  8.50000000E-01  8.50000000E-01  8.50000000E-01  8.50000000E-01
  8.50000000E-01  8.50000000E-01  8.50000000E-01  8.50000000E-01  8.50000000E-01
  8.50000000E-01  8.50000000E-01  8.50000000E-01  8.50000000E-01  8.50000000E-01
  8.50000000E-01  8.50000000E-01  8.50000000E-01  8.50000000E-01  8.50000000E-01
  8.50000000E-01  8.50000000E-01  8.50000000E-01  8.50000000E-01  8.50000000E-01
  8.50000000E-01  8.50000000E-01  8.50000000E-01  8.50000000E-01  8.50000000E-01
  8.50000000E-01  8.50000000E-01  8.50000000E-01  8.50000000E-01  8.50000000E-01
  8.50000000E-01  8.50000000E-01  8.50000000E-01  8.50000000E-01  8.50000000E-01
  8.50000000E-01  8.50000000E-01  8.50000000E-01  8.50000000E-01  8.50000000E-01
  8.50000000E-01  8.50000000E-01  8.50000000E-01  8.50000000E-01  8.50000000E-01
  8.50000000E-01  8.50000000E-01  8.50000000E-01  8.50000000E-01  8.50000000E-01
  8.50000000E-01  8.50000000E-01  8.50000000E-01  8.50000000E-01  8.50000000E-01
  8.50000000E-01  8.50000000E-01  8.50000000E-01  8.50000000E-01  8.50000000E-01
  8.50000000E-01  8.50000000E-01  8.50000000E-01  8.50000000E-01  8.50000000E-01
  8.50000000E-01  8.50000000E-01  8.50000000E-01  8.50000000E-01  8.50000000E-01
  8.50000000E-01  8.50000000E-01  8.50000000E-01  8.50000000E-01  8.50000000E-01
  8.50000000E-01  8.50000000E-01  8.50000000E-01  8.50000000E-01  8.50000000E-01
  8.50000000E-01  8.50000000E-01  8.50000000E-01  8.50000000E-01  8.50000000E-01
  8.50000000E-01  8.50000000E-01  8.50000000E-01  8.50000000E-01  8.50000000E-01
  8.50000000E-01  8.50000000E-01  8.50000000E-01  8.50000000E-01  8.50000000E-01
  8.50000000E-01  8.50000000E-01  8.50000000E-01  8.50000000E-01  8.50000000E-01
  8.50000000E-01  8.50000000E-01  8.50000000E-01  8.50000000E-01  8.50000000E-01
  8.50000000E-01  8.50000000E-01  8.50000000E-01  8.50000000E-01  8.50000000E-01
  8.50000000E-01  8.50000000E-01  8.50000000E-01  8.50000000E-01  8.50000000E-01
  8.50000000E-01  8.50000000E-01  8.50000000E-01  8.50000000E-01  8.50000000E-01
  8.50000000E-01  8.50000000E-01  8.50000000E-01  8.50000000E-01  8.50000000E-01
  8.50000000E-01  8.50000000E-01  8.50000000E-01  8.50000000E-01  8.50000000E-01
  8.50000000E-01  8.50000000E-01  8.50000000E-01  8.50000000E-01  8.50000000E-01
  8.50000000E-01  8.50000000E-01  8.50000000E-01  8.50000000E-01  8.50000000E-01
  8.50000000E-01  8.50000000E-01  8.50000000E-01  8.50000000E-01  8.50000000E-01
  8.50000000E-01  8.50000000E-01  8.50000000E-01  8.50000000E-01  8.50000000E-01
  8.50000000E-01  8.50000000E-01  8.50000000E-01  8.50000000E-01  8.50000000E-01
  8.50000000E-01  8.50000000E-01  8.50000000E-01  8.50000000E-01  8.50000000E-01
  8.50000000E-01  8.50000000E-01  8.50000000E-01  8.50000000E-01  8.50000000E-01
  8.50000000E-01  8.50000000E-01  8.50000000E-01  8.50000000E-01  8.50000000E-01
  8.50000000E-01  8.50000000E-01  8.50000000E-01  8.50000000E-01  8.50000000E-01
  8.50000000E-01  8.50000000E-01  8.50000000E-01  8.50000000E-01  8.50000000E-01
  8.50000000E-01  8.50000000E-01  8.50000000E-01  8.50000000E-01  8.50000000E-01
  8.50000000E-01  8.50000000E-01  8.50000000E-01  8.50000000E-01  8.50000000E-01
  8.50000000E-01  8.50000000E-01  8.50000000E-01  8.50000000E-01  8.50000000E-01
  8.50000000E-01  8.50000000E-01  8.50000000E-01  8.50000000E-01  8.50000000E-01
  8.50000000E-01  8.50000000E-01  8.50000000E-01  8.50000000E-01  8.50000000E-01
  8.50000000E-01  8.50000000E-01  8.50000000E-01  8.50000000E-01  8.50000000E-01
  8.50000000E-01  8.50000000E-01  8.50000000E-01  8.50000000E-01  8.50000000E-01
  8.50000000E-01  8.50000000E-01  8.50000000E-01  8.50000000E-01  8.50000000E-01
  8.50000000E-01  8.50000000E-01  8.50000000E-01  8.50000000E-01  8.50000000E-01
  8.50000000E-01  8.50000000E-01  8.50000000E-01  8.50000000E-01  8.50000000E-01
  8.50000000E-01  8.50000000E-01  8.50000000E-01  8.50000000E-01  8.50000000E-01
  8.50000000E-01  8.50000000E-01  8.50000000E-01  8.50000000E-01  8.50000000E-01
  8.50000000E-01  8.50000000E-01  8.50000000E-01  8.50000000E-01  8.50000000E-01
  8.50000000E-01  8.50000000E-01  8.50000000E-01  8.50000000E-01  8.50000000E-01
  8.50000000E-01  8.50000000E-01  8.50000000E-01  8.50000000E-01  8.50000000E-01
  8.50000000E-01  8.50000000E-01  8.50000000E-01  8.50000000E-01  8.50000000E-01
  8.50000000E-01  8.50000000E-01  8.50000000E-01  8.50000000E-01  8.50000000E-01
  8.50000000E-01  8.50000000E-01  8.50000000E-01  8.50000000E-01  8.50000000E-01
  8.50000000E-01  8.50000000E-01  8.50000000E-01  8.50000000E-01  8.50000000E-01
  8.50000000E-01  8.50000000E-01  8.50000000E-01  8.50000000E-01  8.50000000E-01
  8.50000000E-01  8.50000000E-01  8.50000000E-01  8.50000000E-01  8.50000000E-01
  8.50000000E-01  8.50000000E-01  8.50000000E-01  8.50000000E-01  8.50000000E-01
  8.50000000E-01  8.50000000E-01  8.50000000E-01  8.50000000E-01  8.50000000E-01
  8.50000000E-01  8.50000000E-01  8.50000000E-01  8.50000000E-01  8.50000000E-01
  8.50000000E-01  8.50000000E-01  8.50000000E-01  8.50000000E-01  8.50000000E-01
  8.50000000E-01  8.50000000E-01  8.50000000E-01  8.50000000E-01  8.50000000E-01
  8.50000000E-01  8.50000000E-01  8.50000000E-01  8.50000000E-01  8.50000000E-01
  8.50000000E-01  8.50000000E-01  8.50000000E-01  8.50000000E-01  8.50000000E-01
  8.50000000E-01  8.50000000E-01  8.50000000E-01  8.50000000E-01  8.50000000E-01
  8.50000000E-01  8.50000000E-01  8.50000000E-01  8.50000000E-01  8.50000000E-01
  8.50000000E-01  8.50000000E-01  8.50000000E-01  8.50000000E-01  8.50000000E-01
  8.50000000E-01  8.50000000E-01  8.50000000E-01  8.50000000E-01  8.50000000E-01
  8.50000000E-01  8.50000000E-01  8.50000000E-01  8.50000000E-01  8.50000000E-01
  8.50000000E-01  8.50000000E-01  8.50000000E-01  8.50000000E-01  8.50000000E-01
  8.50000000E-01  8.50000000E-01  8.50000000E-01  8.50000000E-01  8.50000000E-01
  8.50000000E-01  8.50000000E-01  8.50000000E-01  8.50000000E-01  8.50000000E-01
  8.50000000E-01  8.50000000E-01  8.50000000E-01  8.50000000E-01  8.50000000E-01
  8.50000000E-01  8.50000000E-01  8.50000000E-01  8.50000000E-01  8.50000000E-01
  8.50000000E-01  8.50000000E-01  8.50000000E-01  8.50000000E-01  8.50000000E-01
  8.50000000E-01  8.50000000E-01  8.50000000E-01  8.50000000E-01  8.50000000E-01
  8.50000000E-01  8.50000000E-01  8.50000000E-01  8.50000000E-01  8.50000000E-01
  8.50000000E-01  8.50000000E-01  8.50000000E-01  8.50000000E-01  8.50000000E-01
  8.50000000E-01  8.50000000E-01  8.50000000E-01  8.50000000E-01  8.50000000E-01
  8.50000000E-01  8.50000000E-01  8.50000000E-01  8.50000000E-01  8.50000000E-01
  8.50000000E-01  8.50000000E-01  8.50000000E-01  8.50000000E-01  8.50000000E-01
  8.50000000E-01  8.50000000E-01  8.50000000E-01  8.50000000E-01  8.50000000E-01
  8.50000000E-01  8.50000000E-01  8.50000000E-01  8.50000000E-01  8.50000000E-01
  8.50000000E-01  8.50000000E-01  8.50000000E-01  8.50000000E-01  8.50000000E-01
  8.50000000E-01  8.50000000E-01  8.50000000E-01  8.50000000E-01  8.50000000E-01
  8.50000000E-01  8.50000000E-01  8.50000000E-01  8.50000000E-01  8.50000000E-01
  8.50000000E-01  8.50000000E-01  8.50000000E-01  8.50000000E-01  8.50000000E-01
  8.50000000E-01  8.50000000E-01  8.50000000E-01  8.50000000E-01  8.50000000E-01
  8.50000000E-01  8.50000000E-01  8.50000000E-01  8.50000000E-01  8.50000000E-01
  8.50000000E-01  8.50000000E-01  8.50000000E-01  8.50000000E-01  8.50000000E-01
  8.50000000E-01  8.50000000E-01  8.50000000E-01  8.50000000E-01  8.50000000E-01
  8.50000000E-01  8.50000000E-01  8.50000000E-01  8.50000000E-01  8.50000000E-01
  8.50000000E-01  8.50000000E-01  8.50000000E-01  8.50000000E-01  8.50000000E-01
  8.50000000E-01  8.50000000E-01  8.50000000E-01  8.50000000E-01  8.50000000E-01
  8.50000000E-01  8.50000000E-01  8.50000000E-01  8.50000000E-01  8.50000000E-01
  8.50000000E-01  8.50000000E-01  8.50000000E-01  8.50000000E-01  8.50000000E-01
  8.50000000E-01  8.50000000E-01  8.50000000E-01  8.50000000E-01  8.50000000E-01
  8.50000000E-01  8.50000000E-01  8.50000000E-01  8.50000000E-01  8.50000000E-01
  8.50000000E-01  8.50000000E-01  8.50000000E-01  8.50000000E-01  8.50000000E-01
  8.50000000E-01  8.50000000E-01  8.50000000E-01  8.50000000E-01  8.50000000E-01
  8.50000000E-01  8.50000000E-01  8.50000000E-01  8.50000000E-01  8.50000000E-01
  8.50000000E-01  8.50000000E-01  8.50000000E-01  8.50000000E-01  8.50000000E-01
  8.50000000E-01  8.50000000E-01  8.50000000E-01  8.50000000E-01  8.50000000E-01
  8.50000000E-01  8.50000000E-01  8.50000000E-01  8.50000000E-01  8.50000000E-01
  8.50000000E-01  8.50000000E-01  8.50000000E-01  8.50000000E-01  8.50000000E-01
  8.50000000E-01  8.50000000E-01  8.50000000E-01  8.50000000E-01  8.50000000E-01
  8.50000000E-01  8.50000000E-01  8.50000000E-01  8.50000000E-01  8.50000000E-01
  8.50000000E-01  8.50000000E-01  8.50000000E-01  8.50000000E-01  8.50000000E-01
  8.50000000E-01  8.50000000E-01  8.50000000E-01  8.50000000E-01  8.50000000E-01
  8.50000000E-01  8.50000000E-01  8.50000000E-01  8.50000000E-01  8.50000000E-01
  8.50000000E-01  8.50000000E-01  8.50000000E-01  8.50000000E-01  8.50000000E-01
  8.50000000E-01  8.50000000E-01  8.50000000E-01  8.50000000E-01  8.50000000E-01
  8.50000000E-01  8.50000000E-01  8.50000000E-01  8.50000000E-01  8.50000000E-01
  8.50000000E-01  8.50000000E-01  8.50000000E-01  8.50000000E-01  8.50000000E-01
  8.50000000E-01  8.50000000E-01  8.50000000E-01  8.50000000E-01  8.50000000E-01
  8.50000000E-01  8.50000000E-01  8.50000000E-01  8.50000000E-01  8.50000000E-01
  8.50000000E-01  8.50000000E-01  8.50000000E-01  8.50000000E-01  8.50000000E-01
  8.50000000E-01  8.50000000E-01  8.50000000E-01  8.50000000E-01  8.50000000E-01
  8.50000000E-01  8.50000000E-01  8.50000000E-01  8.50000000E-01  8.50000000E-01
  8.50000000E-01  8.50000000E-01  8.50000000E-01  8.50000000E-01  8.50000000E-01
  8.50000000E-01  8.50000000E-01  8.50000000E-01  8.50000000E-01  8.50000000E-01
  8.50000000E-01  8.50000000E-01  8.50000000E-01  8.50000000E-01  8.50000000E-01
  8.50000000E-01  8.50000000E-01  8.50000000E-01  8.50000000E-01  8.50000000E-01
  8.50000000E-01  8.50000000E-01  8.50000000E-01  8.50000000E-01  8.50000000E-01
  8.50000000E-01  8.50000000E-01  8.50000000E-01  8.50000000E-01  8.50000000E-01
  8.50000000E-01  8.50000000E-01  8.50000000E-01  8.50000000E-01  8.50000000E-01
  8.50000000E-01  8.50000000E-01  8.50000000E-01  8.50000000E-01  8.50000000E-01
  8.50000000E-01  8.50000000E-01  8.50000000E-01  8.50000000E-01  8.50000000E-01
  8.50000000E-01  8.50000000E-01  8.50000000E-01  8.50000000E-01  8.50000000E-01
  8.50000000E-01  8.50000000E-01  8.50000000E-01  8.50000000E-01  8.50000000E-01
  8.50000000E-01  8.50000000E-01  8.50000000E-01  8.50000000E-01  8.50000000E-01
  8.50000000E-01  8.50000000E-01  8.50000000E-01  8.50000000E-01  8.50000000E-01
  8.50000000E-01  8.50000000E-01  8.50000000E-01  8.50000000E-01  8.50000000E-01
  8.50000000E-01  8.50000000E-01  8.50000000E-01  8.50000000E-01  8.50000000E-01
  8.50000000E-01  8.50000000E-01  8.50000000E-01  8.50000000E-01  8.50000000E-01
  8.50000000E-01  8.50000000E-01  8.50000000E-01  8.50000000E-01  8.50000000E-01
  8.50000000E-01  8.50000000E-01  8.50000000E-01  8.50000000E-01  8.50000000E-01
  8.50000000E-01  8.50000000E-01  8.50000000E-01  8.50000000E-01  8.50000000E-01
  8.50000000E-01  8.50000000E-01  8.50000000E-01  8.50000000E-01  8.50000000E-01
  8.50000000E-01  8.50000000E-01  8.50000000E-01  8.50000000E-01  8.50000000E-01
  8.50000000E-01  8.50000000E-01  8.50000000E-01  8.50000000E-01  8.50000000E-01
  8.50000000E-01  8.50000000E-01  8.50000000E-01  8.50000000E-01  8.50000000E-01
  8.50000000E-01  8.50000000E-01  8.50000000E-01  8.50000000E-01  8.50000000E-01
  8.50000000E-01  8.50000000E-01  8.50000000E-01  8.50000000E-01  8.50000000E-01
  8.50000000E-01  8.50000000E-01  8.50000000E-01  8.50000000E-01  8.50000000E-01
  8.50000000E-01  8.50000000E-01  8.50000000E-01  8.50000000E-01  8.50000000E-01
  8.50000000E-01  8.50000000E-01  8.50000000E-01  8.50000000E-01  8.50000000E-01
  8.50000000E-01  8.50000000E-01  8.50000000E-01  8.50000000E-01  8.50000000E-01
  8.50000000E-01  8.50000000E-01  8.50000000E-01  8.50000000E-01  8.50000000E-01
  8.50000000E-01  8.50000000E-01  8.50000000E-01  8.50000000E-01  8.50000000E-01
  8.50000000E-01  8.50000000E-01  8.50000000E-01  8.50000000E-01  8.50000000E-01
  8.50000000E-01  8.50000000E-01  8.50000000E-01  8.50000000E-01  8.50000000E-01
  8.50000000E-01  8.50000000E-01  8.50000000E-01  8.50000000E-01  8.50000000E-01
  8.50000000E-01  8.50000000E-01  8.50000000E-01  8.50000000E-01  8.50000000E-01
  8.50000000E-01  8.50000000E-01  8.50000000E-01  8.50000000E-01  8.50000000E-01
  8.50000000E-01  8.50000000E-01  8.50000000E-01  8.50000000E-01  8.50000000E-01
  8.50000000E-01  8.50000000E-01  8.50000000E-01  8.50000000E-01  8.50000000E-01
  8.50000000E-01  8.50000000E-01  8.50000000E-01  8.50000000E-01  8.50000000E-01
  8.50000000E-01  8.50000000E-01  8.50000000E-01  8.50000000E-01  8.50000000E-01
  8.50000000E-01  8.50000000E-01  8.50000000E-01  8.50000000E-01  8.50000000E-01
  8.50000000E-01  8.50000000E-01  8.50000000E-01  8.50000000E-01  8.50000000E-01
  8.50000000E-01  8.50000000E-01  8.50000000E-01  8.50000000E-01  8.50000000E-01
  8.50000000E-01  8.50000000E-01  8.50000000E-01  8.50000000E-01  8.50000000E-01
  8.50000000E-01  8.50000000E-01  8.50000000E-01  8.50000000E-01  8.50000000E-01
  8.50000000E-01  8.50000000E-01  8.50000000E-01  8.50000000E-01  8.50000000E-01
  8.50000000E-01  8.50000000E-01  8.50000000E-01  8.50000000E-01  8.50000000E-01
  8.50000000E-01  8.50000000E-01  8.50000000E-01  8.50000000E-01  8.50000000E-01
  8.50000000E-01  8.50000000E-01  8.50000000E-01  8.50000000E-01  8.50000000E-01
  8.50000000E-01  8.50000000E-01  8.50000000E-01  8.50000000E-01  8.50000000E-01
  8.50000000E-01  8.50000000E-01  8.50000000E-01  8.50000000E-01  8.50000000E-01
  8.50000000E-01  8.50000000E-01  8.50000000E-01  8.50000000E-01  8.50000000E-01
  8.50000000E-01  8.50000000E-01  8.50000000E-01  8.50000000E-01  8.50000000E-01
  8.50000000E-01  8.50000000E-01  8.50000000E-01  8.50000000E-01  8.50000000E-01
  8.50000000E-01  8.50000000E-01  8.50000000E-01  8.50000000E-01  8.50000000E-01
  8.50000000E-01  8.50000000E-01  8.50000000E-01  8.50000000E-01  8.50000000E-01
  8.50000000E-01  8.50000000E-01  8.50000000E-01  8.50000000E-01  8.50000000E-01
  8.50000000E-01  8.50000000E-01  8.50000000E-01  8.50000000E-01  8.50000000E-01
  8.50000000E-01  8.50000000E-01  8.50000000E-01  8.50000000E-01  8.50000000E-01
  8.50000000E-01  8.50000000E-01  8.50000000E-01  8.50000000E-01  8.50000000E-01
  8.50000000E-01  8.50000000E-01  8.50000000E-01  8.50000000E-01  8.50000000E-01
  8.50000000E-01  8.50000000E-01  8.50000000E-01  8.50000000E-01  8.50000000E-01
  8.50000000E-01  8.50000000E-01  8.50000000E-01  8.50000000E-01  8.50000000E-01
  8.50000000E-01  8.50000000E-01  8.50000000E-01  8.50000000E-01  8.50000000E-01
  8.50000000E-01  8.50000000E-01  8.50000000E-01  8.50000000E-01  8.50000000E-01
  8.50000000E-01  8.50000000E-01  8.50000000E-01  8.50000000E-01  8.50000000E-01
  8.50000000E-01  8.50000000E-01  8.50000000E-01  8.50000000E-01  8.50000000E-01
  8.50000000E-01  8.50000000E-01  8.50000000E-01  8.50000000E-01  8.50000000E-01
  8.50000000E-01  8.50000000E-01  8.50000000E-01  8.50000000E-01  8.50000000E-01
  8.50000000E-01  8.50000000E-01  8.50000000E-01  8.50000000E-01  8.50000000E-01
  8.50000000E-01  8.50000000E-01  8.50000000E-01  8.50000000E-01  8.50000000E-01
  8.50000000E-01  8.50000000E-01  8.50000000E-01  8.50000000E-01  8.50000000E-01
  8.50000000E-01  8.50000000E-01  8.50000000E-01  8.50000000E-01  8.50000000E-01
  8.50000000E-01  8.50000000E-01  8.50000000E-01  8.50000000E-01  8.50000000E-01
  8.50000000E-01  8.50000000E-01  8.50000000E-01  8.50000000E-01  8.50000000E-01
  8.50000000E-01  8.50000000E-01  8.50000000E-01  8.50000000E-01  8.50000000E-01
  8.50000000E-01  8.50000000E-01  8.50000000E-01  8.50000000E-01  8.50000000E-01
  8.50000000E-01  8.50000000E-01  8.50000000E-01  8.50000000E-01  8.50000000E-01
  8.50000000E-01  8.50000000E-01  8.50000000E-01  8.50000000E-01  8.50000000E-01
  8.50000000E-01  8.50000000E-01  8.50000000E-01  8.50000000E-01  8.50000000E-01
  8.50000000E-01  8.50000000E-01  8.50000000E-01  8.50000000E-01  8.50000000E-01
  8.50000000E-01  8.50000000E-01  8.50000000E-01  8.50000000E-01  8.50000000E-01
  8.50000000E-01  8.50000000E-01  8.50000000E-01  8.50000000E-01  8.50000000E-01
  8.50000000E-01  8.50000000E-01  8.50000000E-01  8.50000000E-01  8.50000000E-01
  8.50000000E-01  8.50000000E-01  8.50000000E-01  8.50000000E-01  8.50000000E-01
  8.50000000E-01  8.50000000E-01  8.50000000E-01  8.50000000E-01  8.50000000E-01
  8.50000000E-01  8.50000000E-01  8.50000000E-01  8.50000000E-01  8.50000000E-01
  8.50000000E-01  8.50000000E-01  8.50000000E-01  8.50000000E-01  8.50000000E-01
  8.50000000E-01  8.50000000E-01  8.50000000E-01  8.50000000E-01  8.50000000E-01
  8.50000000E-01  8.50000000E-01  8.50000000E-01  8.50000000E-01  8.50000000E-01
  8.50000000E-01  8.50000000E-01  8.50000000E-01  8.50000000E-01  8.50000000E-01
  8.50000000E-01  8.50000000E-01  8.50000000E-01  8.50000000E-01  8.50000000E-01
  8.50000000E-01  8.50000000E-01  8.50000000E-01  8.50000000E-01  8.50000000E-01
  8.50000000E-01  8.50000000E-01  8.50000000E-01  8.50000000E-01  8.50000000E-01
  8.50000000E-01  8.50000000E-01  8.50000000E-01  8.50000000E-01  8.50000000E-01
  8.50000000E-01  8.50000000E-01  8.50000000E-01  8.50000000E-01  8.50000000E-01
  8.50000000E-01  8.50000000E-01  8.50000000E-01  8.50000000E-01  8.50000000E-01
  8.50000000E-01  8.50000000E-01  8.50000000E-01  8.50000000E-01  8.50000000E-01
  8.50000000E-01  8.50000000E-01  8.50000000E-01  8.50000000E-01  8.50000000E-01
  8.50000000E-01  8.50000000E-01  8.50000000E-01  8.50000000E-01  8.50000000E-01
  8.50000000E-01  8.50000000E-01  8.50000000E-01  8.50000000E-01  8.50000000E-01
  8.50000000E-01  8.50000000E-01  8.50000000E-01  8.50000000E-01  8.50000000E-01
  8.50000000E-01  8.50000000E-01  8.50000000E-01  8.50000000E-01  8.50000000E-01
  8.50000000E-01  8.50000000E-01  8.50000000E-01  8.50000000E-01  8.50000000E-01
  8.50000000E-01  8.50000000E-01  8.50000000E-01  8.50000000E-01  8.50000000E-01
  8.50000000E-01  8.50000000E-01  8.50000000E-01  8.50000000E-01  8.50000000E-01
  8.50000000E-01  8.50000000E-01  8.50000000E-01  8.50000000E-01  8.50000000E-01
  8.50000000E-01  8.50000000E-01  8.50000000E-01  8.50000000E-01  8.50000000E-01
  8.50000000E-01  8.50000000E-01  8.50000000E-01  8.50000000E-01  8.50000000E-01
  8.50000000E-01  8.50000000E-01  8.50000000E-01  8.50000000E-01  8.50000000E-01
  8.50000000E-01  8.50000000E-01  8.50000000E-01  8.50000000E-01  8.50000000E-01
  8.50000000E-01  8.50000000E-01  8.50000000E-01  8.50000000E-01  8.50000000E-01
  8.50000000E-01  8.50000000E-01  8.50000000E-01  8.50000000E-01  8.50000000E-01
  8.50000000E-01  8.50000000E-01  8.50000000E-01  8.50000000E-01  8.50000000E-01
  8.50000000E-01  8.50000000E-01  8.50000000E-01  8.50000000E-01  8.50000000E-01
  8.50000000E-01  8.50000000E-01  8.50000000E-01  8.50000000E-01  8.50000000E-01
  8.50000000E-01  8.50000000E-01  8.50000000E-01  8.50000000E-01  8.50000000E-01
  8.50000000E-01  8.50000000E-01  8.50000000E-01  8.50000000E-01  8.50000000E-01
  8.50000000E-01  8.50000000E-01  8.50000000E-01  8.50000000E-01  8.50000000E-01
  8.50000000E-01  8.50000000E-01  8.50000000E-01  8.50000000E-01  8.50000000E-01
  8.50000000E-01  8.50000000E-01  8.50000000E-01  8.50000000E-01  8.50000000E-01
  8.50000000E-01  8.50000000E-01  8.50000000E-01  8.50000000E-01  8.50000000E-01
  8.50000000E-01  8.50000000E-01  8.50000000E-01  8.50000000E-01  8.50000000E-01
  8.50000000E-01  8.50000000E-01  8.50000000E-01  8.50000000E-01  8.50000000E-01
  8.50000000E-01  8.50000000E-01  8.50000000E-01  8.50000000E-01  8.50000000E-01
  8.50000000E-01  8.50000000E-01  8.50000000E-01  8.50000000E-01  8.50000000E-01
  8.50000000E-01  8.50000000E-01  8.50000000E-01  8.50000000E-01  8.50000000E-01
  8.50000000E-01  8.50000000E-01  8.50000000E-01  8.50000000E-01  8.50000000E-01
  8.50000000E-01  8.50000000E-01  8.50000000E-01  8.50000000E-01  8.50000000E-01
  8.50000000E-01  8.50000000E-01  8.50000000E-01  8.50000000E-01  8.50000000E-01
  8.50000000E-01  8.50000000E-01  8.50000000E-01  8.50000000E-01  8.50000000E-01
  8.50000000E-01  8.50000000E-01  8.50000000E-01  8.50000000E-01  8.50000000E-01
  8.50000000E-01  8.50000000E-01  8.50000000E-01  8.50000000E-01  8.50000000E-01
  8.50000000E-01  8.50000000E-01  8.50000000E-01  8.50000000E-01  8.50000000E-01
  8.50000000E-01  8.50000000E-01  8.50000000E-01  8.50000000E-01  8.50000000E-01
  8.50000000E-01  8.50000000E-01  8.50000000E-01  8.50000000E-01  8.50000000E-01
  8.50000000E-01  8.50000000E-01  8.50000000E-01  8.50000000E-01  8.50000000E-01
  8.50000000E-01  8.50000000E-01  8.50000000E-01  8.50000000E-01  8.50000000E-01
  8.50000000E-01  8.50000000E-01  8.50000000E-01  8.50000000E-01  8.50000000E-01
  8.50000000E-01  8.50000000E-01  8.50000000E-01  8.50000000E-01  8.50000000E-01
  8.50000000E-01  8.50000000E-01  8.50000000E-01  8.50000000E-01  8.50000000E-01
  8.50000000E-01  8.50000000E-01  8.50000000E-01  8.50000000E-01  8.50000000E-01
  8.50000000E-01  8.50000000E-01  8.50000000E-01  8.50000000E-01  8.50000000E-01
  8.50000000E-01  8.50000000E-01  8.50000000E-01  8.50000000E-01  8.50000000E-01
  8.50000000E-01  8.50000000E-01  8.50000000E-01  8.50000000E-01  8.50000000E-01
  8.50000000E-01  8.50000000E-01  8.50000000E-01  8.50000000E-01  8.50000000E-01
  8.50000000E-01  8.50000000E-01  8.50000000E-01  8.50000000E-01  8.50000000E-01
  8.50000000E-01  8.50000000E-01  8.50000000E-01  8.50000000E-01  8.50000000E-01
  8.50000000E-01  8.50000000E-01  8.50000000E-01  8.50000000E-01  8.50000000E-01
  8.50000000E-01  8.50000000E-01  8.50000000E-01  8.50000000E-01  8.50000000E-01
  8.50000000E-01  8.50000000E-01  8.50000000E-01  8.50000000E-01  8.50000000E-01
  8.50000000E-01  8.50000000E-01  8.50000000E-01  8.50000000E-01  8.50000000E-01
  8.50000000E-01  8.50000000E-01  8.50000000E-01  8.50000000E-01  8.50000000E-01
  8.50000000E-01  8.50000000E-01  8.50000000E-01  8.50000000E-01  8.50000000E-01
  8.50000000E-01  8.50000000E-01  8.50000000E-01  8.50000000E-01  8.50000000E-01
  8.50000000E-01  8.50000000E-01  8.50000000E-01  8.50000000E-01  8.50000000E-01
  8.50000000E-01  8.50000000E-01  8.50000000E-01  8.50000000E-01  8.50000000E-01
  8.50000000E-01  8.50000000E-01  8.50000000E-01  8.50000000E-01  8.50000000E-01
  8.50000000E-01  8.50000000E-01  8.50000000E-01  8.50000000E-01  8.50000000E-01
  8.50000000E-01  8.50000000E-01  8.50000000E-01  8.50000000E-01  8.50000000E-01
  8.50000000E-01  8.50000000E-01  8.50000000E-01  8.50000000E-01  8.50000000E-01
  8.50000000E-01  8.50000000E-01  8.50000000E-01  8.50000000E-01  8.50000000E-01
  8.50000000E-01  8.50000000E-01  8.50000000E-01  8.50000000E-01  8.50000000E-01
  8.50000000E-01  8.50000000E-01  8.50000000E-01  8.50000000E-01  8.50000000E-01
  8.50000000E-01  8.50000000E-01  8.50000000E-01  8.50000000E-01  8.50000000E-01
  8.50000000E-01  8.50000000E-01  8.50000000E-01  8.50000000E-01  8.50000000E-01
  8.50000000E-01  8.50000000E-01  8.50000000E-01  8.50000000E-01  8.50000000E-01
  8.50000000E-01  8.50000000E-01  8.50000000E-01  8.50000000E-01  8.50000000E-01
  8.50000000E-01  8.50000000E-01  8.50000000E-01  8.50000000E-01  8.50000000E-01
  8.50000000E-01  8.50000000E-01  8.50000000E-01  8.50000000E-01  8.50000000E-01
  8.50000000E-01  8.50000000E-01  8.50000000E-01  8.50000000E-01  8.50000000E-01
  8.50000000E-01  8.50000000E-01  8.50000000E-01  8.50000000E-01  8.50000000E-01
  8.50000000E-01  8.50000000E-01  8.50000000E-01  8.50000000E-01  8.50000000E-01
  8.50000000E-01  8.50000000E-01  8.50000000E-01  8.50000000E-01  8.50000000E-01
  8.50000000E-01  8.50000000E-01  8.50000000E-01  8.50000000E-01  8.50000000E-01
  8.50000000E-01  8.50000000E-01  8.50000000E-01  8.50000000E-01  8.50000000E-01
  8.50000000E-01  8.50000000E-01  8.50000000E-01  8.50000000E-01  8.50000000E-01
  8.50000000E-01  8.50000000E-01  8.50000000E-01  8.50000000E-01  8.50000000E-01
  8.50000000E-01  8.50000000E-01  8.50000000E-01  8.50000000E-01  8.50000000E-01
  8.50000000E-01  8.50000000E-01  8.50000000E-01  8.50000000E-01  8.50000000E-01
  8.50000000E-01  8.50000000E-01  8.50000000E-01  8.50000000E-01  8.50000000E-01
  8.50000000E-01  8.50000000E-01  8.50000000E-01  8.50000000E-01  8.50000000E-01
  8.50000000E-01  8.50000000E-01  8.50000000E-01  8.50000000E-01  8.50000000E-01
  8.50000000E-01  8.50000000E-01  8.50000000E-01  8.50000000E-01  8.50000000E-01
  8.50000000E-01  8.50000000E-01  8.50000000E-01  8.50000000E-01  8.50000000E-01
  8.50000000E-01  8.50000000E-01  8.50000000E-01  8.50000000E-01  8.50000000E-01
  8.50000000E-01  8.50000000E-01  8.50000000E-01  8.50000000E-01  8.50000000E-01
  8.50000000E-01  8.50000000E-01  8.50000000E-01  8.50000000E-01  8.50000000E-01
  8.50000000E-01  8.50000000E-01  8.50000000E-01  8.50000000E-01  8.50000000E-01
  8.50000000E-01  8.50000000E-01  8.50000000E-01  8.50000000E-01  8.50000000E-01
  8.50000000E-01  8.50000000E-01  8.50000000E-01  8.50000000E-01  8.50000000E-01
  8.50000000E-01  8.50000000E-01  8.50000000E-01  8.50000000E-01  8.50000000E-01
  8.50000000E-01  8.50000000E-01  8.50000000E-01  8.50000000E-01  8.50000000E-01
  8.50000000E-01  8.50000000E-01  8.50000000E-01  8.50000000E-01  8.50000000E-01
  8.50000000E-01  8.50000000E-01  8.50000000E-01  8.50000000E-01  8.50000000E-01
  8.50000000E-01  8.50000000E-01  8.50000000E-01  8.50000000E-01  8.50000000E-01
  8.50000000E-01  8.50000000E-01  8.50000000E-01  8.50000000E-01  8.50000000E-01
  8.50000000E-01  8.50000000E-01  8.50000000E-01  8.50000000E-01  8.50000000E-01
  8.50000000E-01  8.50000000E-01  8.50000000E-01  8.50000000E-01  8.50000000E-01
  8.50000000E-01  8.50000000E-01  8.50000000E-01  8.50000000E-01  8.50000000E-01
  8.50000000E-01  8.50000000E-01  8.50000000E-01  8.50000000E-01  8.50000000E-01
  8.50000000E-01  8.50000000E-01  8.50000000E-01  8.50000000E-01  8.50000000E-01
  8.50000000E-01  8.50000000E-01  8.50000000E-01  8.50000000E-01  8.50000000E-01
  8.50000000E-01  8.50000000E-01  8.50000000E-01  8.50000000E-01  8.50000000E-01
  8.50000000E-01  8.50000000E-01  8.50000000E-01  8.50000000E-01  8.50000000E-01
  8.50000000E-01  8.50000000E-01  8.50000000E-01  8.50000000E-01  8.50000000E-01
  8.50000000E-01  8.50000000E-01  8.50000000E-01  8.50000000E-01  8.50000000E-01
  8.50000000E-01  8.50000000E-01  8.50000000E-01  8.50000000E-01  8.50000000E-01
  8.50000000E-01  8.50000000E-01  8.50000000E-01  8.50000000E-01  8.50000000E-01
  8.50000000E-01  8.50000000E-01  8.50000000E-01  8.50000000E-01  8.50000000E-01
  8.50000000E-01  8.50000000E-01  8.50000000E-01  8.50000000E-01  8.50000000E-01
  8.50000000E-01  8.50000000E-01  8.50000000E-01  8.50000000E-01  8.50000000E-01
  8.50000000E-01  8.50000000E-01  8.50000000E-01  8.50000000E-01  8.50000000E-01
  8.50000000E-01  8.50000000E-01  8.50000000E-01  8.50000000E-01  8.50000000E-01
  8.50000000E-01  8.50000000E-01  8.50000000E-01  8.50000000E-01  8.50000000E-01
  8.50000000E-01  8.50000000E-01  8.50000000E-01  8.50000000E-01  8.50000000E-01
  8.50000000E-01  8.50000000E-01  8.50000000E-01  8.50000000E-01  8.50000000E-01
  8.50000000E-01  8.50000000E-01  8.50000000E-01  8.50000000E-01  8.50000000E-01
  8.50000000E-01  8.50000000E-01  8.50000000E-01  8.50000000E-01  8.50000000E-01
  8.50000000E-01  8.50000000E-01  8.50000000E-01  8.50000000E-01  8.50000000E-01
  8.50000000E-01  8.50000000E-01  8.50000000E-01  8.50000000E-01  8.50000000E-01
  8.50000000E-01  8.50000000E-01  8.50000000E-01  8.50000000E-01  8.50000000E-01
  8.50000000E-01  8.50000000E-01  8.50000000E-01  8.50000000E-01  8.50000000E-01
  8.50000000E-01  8.50000000E-01  8.50000000E-01  8.50000000E-01  8.50000000E-01
  8.50000000E-01  8.50000000E-01  8.50000000E-01  8.50000000E-01  8.50000000E-01
  8.50000000E-01  8.50000000E-01  8.50000000E-01  8.50000000E-01  8.50000000E-01
  8.50000000E-01  8.50000000E-01  8.50000000E-01  8.50000000E-01  8.50000000E-01
  8.50000000E-01  8.50000000E-01  8.50000000E-01  8.50000000E-01  8.50000000E-01
  8.50000000E-01  8.50000000E-01  8.50000000E-01  8.50000000E-01  8.50000000E-01
  8.50000000E-01  8.50000000E-01  8.50000000E-01  8.50000000E-01  8.50000000E-01
  8.50000000E-01  8.50000000E-01  8.50000000E-01  8.50000000E-01  8.50000000E-01
  8.50000000E-01  8.50000000E-01  8.50000000E-01  8.50000000E-01  8.50000000E-01
  8.50000000E-01  8.50000000E-01  8.50000000E-01  8.50000000E-01  8.50000000E-01
  8.50000000E-01  8.50000000E-01  8.50000000E-01  8.50000000E-01  8.50000000E-01
  8.50000000E-01  8.50000000E-01  8.50000000E-01  8.50000000E-01  8.50000000E-01
  8.50000000E-01  8.50000000E-01  8.50000000E-01  8.50000000E-01  8.50000000E-01
  8.50000000E-01  8.50000000E-01  8.50000000E-01  8.50000000E-01  8.50000000E-01
  8.50000000E-01  8.50000000E-01  8.50000000E-01  8.50000000E-01  8.50000000E-01
  8.50000000E-01  8.50000000E-01  8.50000000E-01  8.50000000E-01  8.50000000E-01
  8.50000000E-01  8.50000000E-01  8.50000000E-01  8.50000000E-01  8.50000000E-01
  8.50000000E-01  8.50000000E-01  8.50000000E-01  8.50000000E-01  8.50000000E-01
  8.50000000E-01  8.50000000E-01  8.50000000E-01  8.50000000E-01  8.50000000E-01
  8.50000000E-01  8.50000000E-01  8.50000000E-01  8.50000000E-01  8.50000000E-01
  8.50000000E-01  8.50000000E-01  8.50000000E-01  8.50000000E-01  8.50000000E-01
  8.50000000E-01  8.50000000E-01  8.50000000E-01  8.50000000E-01  8.50000000E-01
  8.50000000E-01  8.50000000E-01  8.50000000E-01  8.50000000E-01  8.50000000E-01
  8.50000000E-01  8.50000000E-01  8.50000000E-01  8.50000000E-01  8.50000000E-01
  8.50000000E-01  8.50000000E-01  8.50000000E-01  8.50000000E-01  8.50000000E-01
  8.50000000E-01  8.50000000E-01  8.50000000E-01  8.50000000E-01  8.50000000E-01
  8.50000000E-01  8.50000000E-01  8.50000000E-01  8.50000000E-01  8.50000000E-01
  8.50000000E-01  8.50000000E-01  8.50000000E-01  8.50000000E-01  8.50000000E-01
  8.50000000E-01  8.50000000E-01  8.50000000E-01  8.50000000E-01  8.50000000E-01
  8.50000000E-01  8.50000000E-01  8.50000000E-01  8.50000000E-01  8.50000000E-01
  8.50000000E-01  8.50000000E-01  8.50000000E-01  8.50000000E-01  8.50000000E-01
  8.50000000E-01  8.50000000E-01  8.50000000E-01  8.50000000E-01  8.50000000E-01
  8.50000000E-01  8.50000000E-01  8.50000000E-01  8.50000000E-01  8.50000000E-01
  8.50000000E-01  8.50000000E-01  8.50000000E-01  8.50000000E-01  8.50000000E-01
  8.50000000E-01  8.50000000E-01  8.50000000E-01  8.50000000E-01  8.50000000E-01
  8.50000000E-01  8.50000000E-01  8.50000000E-01  8.50000000E-01  8.50000000E-01
  8.50000000E-01  8.50000000E-01  8.50000000E-01  8.50000000E-01  8.50000000E-01
  8.50000000E-01  8.50000000E-01  8.50000000E-01  8.50000000E-01  8.50000000E-01
  8.50000000E-01  8.50000000E-01  8.50000000E-01  8.50000000E-01  8.50000000E-01
  8.50000000E-01  8.50000000E-01  8.50000000E-01  8.50000000E-01  8.50000000E-01
  8.50000000E-01  8.50000000E-01  8.50000000E-01  8.50000000E-01  8.50000000E-01
  8.50000000E-01  8.50000000E-01  8.50000000E-01  8.50000000E-01  8.50000000E-01
  8.50000000E-01  8.50000000E-01  8.50000000E-01  8.50000000E-01  8.50000000E-01
  8.50000000E-01  8.50000000E-01  8.50000000E-01  8.50000000E-01  8.50000000E-01
  8.50000000E-01  8.50000000E-01  8.50000000E-01  8.50000000E-01  8.50000000E-01
  8.50000000E-01  8.50000000E-01  8.50000000E-01  8.50000000E-01  8.50000000E-01
  8.50000000E-01  8.50000000E-01  8.50000000E-01  8.50000000E-01  8.50000000E-01
  8.50000000E-01  8.50000000E-01  8.50000000E-01  8.50000000E-01  8.50000000E-01
  8.50000000E-01  8.50000000E-01  8.50000000E-01  8.50000000E-01  8.50000000E-01
  8.50000000E-01  8.50000000E-01  8.50000000E-01  8.50000000E-01  8.50000000E-01
  8.50000000E-01  8.50000000E-01  8.50000000E-01  8.50000000E-01  8.50000000E-01
  8.50000000E-01  8.50000000E-01  8.50000000E-01  8.50000000E-01  8.50000000E-01
  8.50000000E-01  8.50000000E-01  8.50000000E-01  8.50000000E-01  8.50000000E-01
  8.50000000E-01  8.50000000E-01  8.50000000E-01  8.50000000E-01  8.50000000E-01
  8.50000000E-01  8.50000000E-01  8.50000000E-01  8.50000000E-01  8.50000000E-01
  8.50000000E-01  8.50000000E-01  8.50000000E-01  8.50000000E-01  8.50000000E-01
  8.50000000E-01  8.50000000E-01  8.50000000E-01  8.50000000E-01  8.50000000E-01
  8.50000000E-01  8.50000000E-01  8.50000000E-01  8.50000000E-01  8.50000000E-01
  8.50000000E-01  8.50000000E-01  8.50000000E-01  8.50000000E-01  8.50000000E-01
  8.50000000E-01  8.50000000E-01  8.50000000E-01  8.50000000E-01  8.50000000E-01
  8.50000000E-01  8.50000000E-01  8.50000000E-01  8.50000000E-01  8.50000000E-01
  8.50000000E-01  8.50000000E-01  8.50000000E-01  8.50000000E-01  8.50000000E-01
  8.50000000E-01  8.50000000E-01  8.50000000E-01  8.50000000E-01  8.50000000E-01
  8.50000000E-01  8.50000000E-01  8.50000000E-01  8.50000000E-01  8.50000000E-01
  8.50000000E-01  8.50000000E-01  8.50000000E-01  8.50000000E-01  8.50000000E-01
  8.50000000E-01  8.50000000E-01  8.50000000E-01  8.50000000E-01  8.50000000E-01
  8.50000000E-01  8.50000000E-01  8.50000000E-01  8.50000000E-01  8.50000000E-01
  8.50000000E-01  8.50000000E-01  8.50000000E-01  8.50000000E-01  8.50000000E-01
  8.50000000E-01  8.50000000E-01  8.50000000E-01  8.50000000E-01  8.50000000E-01
  8.50000000E-01  8.50000000E-01  8.50000000E-01  8.50000000E-01  8.50000000E-01
  8.50000000E-01  8.50000000E-01  8.50000000E-01  8.50000000E-01  8.50000000E-01
  8.50000000E-01  8.50000000E-01  8.50000000E-01  8.50000000E-01  8.50000000E-01
  8.50000000E-01  8.50000000E-01  8.50000000E-01  8.50000000E-01  8.50000000E-01
  8.50000000E-01  8.50000000E-01  8.50000000E-01  8.50000000E-01  8.50000000E-01
  8.50000000E-01  8.50000000E-01  8.50000000E-01  8.50000000E-01  8.50000000E-01
  8.50000000E-01  8.50000000E-01  8.50000000E-01  8.50000000E-01  8.50000000E-01
  8.50000000E-01  8.50000000E-01  8.50000000E-01  8.50000000E-01  8.50000000E-01
  8.50000000E-01  8.50000000E-01  8.50000000E-01  8.50000000E-01  8.50000000E-01
  8.50000000E-01  8.50000000E-01  8.50000000E-01  8.50000000E-01  8.50000000E-01
  8.50000000E-01  8.50000000E-01  8.50000000E-01  8.50000000E-01  8.50000000E-01
  8.50000000E-01  8.50000000E-01  8.50000000E-01  8.50000000E-01  8.50000000E-01
  8.50000000E-01  8.50000000E-01  8.50000000E-01  8.50000000E-01  8.50000000E-01
  8.50000000E-01  8.50000000E-01  8.50000000E-01  8.50000000E-01  8.50000000E-01
  8.50000000E-01  8.50000000E-01  8.50000000E-01  8.50000000E-01  8.50000000E-01
  8.50000000E-01  8.50000000E-01  8.50000000E-01  8.50000000E-01  8.50000000E-01
  8.50000000E-01  8.50000000E-01  8.50000000E-01  8.50000000E-01  8.50000000E-01
  8.50000000E-01  8.50000000E-01  8.50000000E-01  8.50000000E-01  8.50000000E-01
  8.50000000E-01  8.50000000E-01  8.50000000E-01  8.50000000E-01  8.50000000E-01
  8.50000000E-01  8.50000000E-01  8.50000000E-01  8.50000000E-01  8.50000000E-01
  8.50000000E-01  8.50000000E-01  8.50000000E-01  8.50000000E-01  8.50000000E-01
  8.50000000E-01  8.50000000E-01  8.50000000E-01  8.50000000E-01  8.50000000E-01
  8.50000000E-01  8.50000000E-01  8.50000000E-01  8.50000000E-01  8.50000000E-01
  8.50000000E-01  8.50000000E-01  8.50000000E-01  8.50000000E-01  8.50000000E-01
  8.50000000E-01  8.50000000E-01  8.50000000E-01  8.50000000E-01  8.50000000E-01
  8.50000000E-01  8.50000000E-01  8.50000000E-01  8.50000000E-01  8.50000000E-01
  8.50000000E-01  8.50000000E-01  8.50000000E-01  8.50000000E-01  8.50000000E-01
  8.50000000E-01  8.50000000E-01  8.50000000E-01  8.50000000E-01  8.50000000E-01
  8.50000000E-01  8.50000000E-01  8.50000000E-01  8.50000000E-01  8.50000000E-01
  8.50000000E-01  8.50000000E-01  8.50000000E-01  8.50000000E-01  8.50000000E-01
  8.50000000E-01  8.50000000E-01  8.50000000E-01  8.50000000E-01  8.50000000E-01
  8.50000000E-01  8.50000000E-01  8.50000000E-01  8.50000000E-01  8.50000000E-01
  8.50000000E-01  8.50000000E-01  8.50000000E-01  8.50000000E-01  8.50000000E-01
  8.50000000E-01  8.50000000E-01  8.50000000E-01  8.50000000E-01  8.50000000E-01
  8.50000000E-01  8.50000000E-01  8.50000000E-01  8.50000000E-01  8.50000000E-01
  8.50000000E-01  8.50000000E-01  8.50000000E-01  8.50000000E-01  8.50000000E-01
  8.50000000E-01  8.50000000E-01  8.50000000E-01  8.50000000E-01  8.50000000E-01
  8.50000000E-01  8.50000000E-01  8.50000000E-01  8.50000000E-01  8.50000000E-01
  8.50000000E-01  8.50000000E-01  8.50000000E-01  8.50000000E-01  8.50000000E-01
  8.50000000E-01  8.50000000E-01  8.50000000E-01  8.50000000E-01  8.50000000E-01
  8.50000000E-01  8.50000000E-01  8.50000000E-01  8.50000000E-01  8.50000000E-01
  8.50000000E-01  8.50000000E-01  8.50000000E-01  8.50000000E-01  8.50000000E-01
  8.50000000E-01  8.50000000E-01  8.50000000E-01  8.50000000E-01  8.50000000E-01
  8.50000000E-01  8.50000000E-01  8.50000000E-01  8.50000000E-01  8.50000000E-01
  8.50000000E-01  8.50000000E-01  8.50000000E-01  8.50000000E-01  8.50000000E-01
  8.50000000E-01  8.50000000E-01  8.50000000E-01  8.50000000E-01  8.50000000E-01
  8.50000000E-01  8.50000000E-01  8.50000000E-01  8.50000000E-01  8.50000000E-01
  8.50000000E-01  8.50000000E-01  8.50000000E-01  8.50000000E-01  8.50000000E-01
  8.50000000E-01  8.50000000E-01  8.50000000E-01  8.50000000E-01  8.50000000E-01
  8.50000000E-01  8.50000000E-01  8.50000000E-01  8.50000000E-01  8.50000000E-01
  8.50000000E-01  8.50000000E-01  8.50000000E-01  8.50000000E-01  8.50000000E-01
  8.50000000E-01  8.50000000E-01  8.50000000E-01  8.50000000E-01  8.50000000E-01
  8.50000000E-01  8.50000000E-01  8.50000000E-01  8.50000000E-01  8.50000000E-01
  8.50000000E-01  8.50000000E-01  8.50000000E-01  8.50000000E-01  8.50000000E-01
  8.50000000E-01  8.50000000E-01  8.50000000E-01  8.50000000E-01  8.50000000E-01
  8.50000000E-01  8.50000000E-01  8.50000000E-01  8.50000000E-01  8.50000000E-01
  8.50000000E-01  8.50000000E-01  8.50000000E-01  8.50000000E-01  8.50000000E-01
  8.50000000E-01  8.50000000E-01  8.50000000E-01  8.50000000E-01  8.50000000E-01
  8.50000000E-01  8.50000000E-01  8.50000000E-01  8.50000000E-01  8.50000000E-01
  8.50000000E-01  8.50000000E-01  8.50000000E-01  8.50000000E-01  8.50000000E-01
  8.50000000E-01  8.50000000E-01  8.50000000E-01  8.50000000E-01  8.50000000E-01
  8.50000000E-01  8.50000000E-01  8.50000000E-01  8.50000000E-01  8.50000000E-01
  8.50000000E-01  8.50000000E-01  8.50000000E-01  8.50000000E-01  8.50000000E-01
  8.50000000E-01  8.50000000E-01  8.50000000E-01  8.50000000E-01  8.50000000E-01
  8.50000000E-01  8.50000000E-01  8.50000000E-01  8.50000000E-01  8.50000000E-01
  8.50000000E-01  8.50000000E-01  8.50000000E-01  8.50000000E-01  8.50000000E-01
  8.50000000E-01  8.50000000E-01  8.50000000E-01  8.50000000E-01  8.50000000E-01
  8.50000000E-01  8.50000000E-01  8.50000000E-01  8.50000000E-01  8.50000000E-01
  8.50000000E-01  8.50000000E-01  8.50000000E-01  8.50000000E-01  8.50000000E-01
  8.50000000E-01  8.50000000E-01  8.50000000E-01  8.50000000E-01  8.50000000E-01
  8.50000000E-01  8.50000000E-01  8.50000000E-01  8.50000000E-01  8.50000000E-01
  8.50000000E-01  8.50000000E-01  8.50000000E-01  8.50000000E-01  8.50000000E-01
  8.50000000E-01  8.50000000E-01  8.50000000E-01  8.50000000E-01  8.50000000E-01
  8.50000000E-01  8.50000000E-01  8.50000000E-01  8.50000000E-01  8.50000000E-01
  8.50000000E-01  8.50000000E-01  8.50000000E-01  8.50000000E-01  8.50000000E-01
  8.50000000E-01  8.50000000E-01  8.50000000E-01  8.50000000E-01  8.50000000E-01
  8.50000000E-01  8.50000000E-01  8.50000000E-01  8.50000000E-01  8.50000000E-01
  8.50000000E-01  8.50000000E-01  8.50000000E-01  8.50000000E-01  8.50000000E-01
  8.50000000E-01  8.50000000E-01  8.50000000E-01  8.50000000E-01  8.50000000E-01
  8.50000000E-01  8.50000000E-01  8.50000000E-01  8.50000000E-01  8.50000000E-01
  8.50000000E-01  8.50000000E-01  8.50000000E-01  8.50000000E-01  8.50000000E-01
  8.50000000E-01  8.50000000E-01  8.50000000E-01  8.50000000E-01  8.50000000E-01
  8.50000000E-01  8.50000000E-01  8.50000000E-01  8.50000000E-01  8.50000000E-01
  8.50000000E-01  8.50000000E-01  8.50000000E-01  8.50000000E-01  8.50000000E-01
  8.50000000E-01  8.50000000E-01  8.50000000E-01  8.50000000E-01  8.50000000E-01
  8.50000000E-01  8.50000000E-01  8.50000000E-01  8.50000000E-01  8.50000000E-01
  8.50000000E-01  8.50000000E-01  8.50000000E-01  8.50000000E-01  8.50000000E-01
  8.50000000E-01  8.50000000E-01  8.50000000E-01  8.50000000E-01  8.50000000E-01
  8.50000000E-01  8.50000000E-01  8.50000000E-01  8.50000000E-01  8.50000000E-01
  8.50000000E-01  8.50000000E-01  8.50000000E-01  8.50000000E-01  8.50000000E-01
  8.50000000E-01  8.50000000E-01  8.50000000E-01  8.50000000E-01  8.50000000E-01
  8.50000000E-01  8.50000000E-01  8.50000000E-01  8.50000000E-01  8.50000000E-01
  8.50000000E-01  8.50000000E-01  8.50000000E-01  8.50000000E-01  8.50000000E-01
  8.50000000E-01  8.50000000E-01  8.50000000E-01  8.50000000E-01  8.50000000E-01
  8.50000000E-01  8.50000000E-01  8.50000000E-01  8.50000000E-01  8.50000000E-01
  8.50000000E-01  8.50000000E-01  8.50000000E-01  8.50000000E-01  8.50000000E-01
  8.50000000E-01  8.50000000E-01  8.50000000E-01  8.50000000E-01  8.50000000E-01
  8.50000000E-01  8.50000000E-01  8.50000000E-01  8.50000000E-01  8.50000000E-01
  8.50000000E-01  8.50000000E-01  8.50000000E-01  8.50000000E-01  8.50000000E-01
  8.50000000E-01  8.50000000E-01  8.50000000E-01  8.50000000E-01  8.50000000E-01
  8.50000000E-01  8.50000000E-01  8.50000000E-01  8.50000000E-01  8.50000000E-01
  8.50000000E-01  8.50000000E-01  8.50000000E-01  8.50000000E-01  8.50000000E-01
  8.50000000E-01  8.50000000E-01  8.50000000E-01  8.50000000E-01  8.50000000E-01
  8.50000000E-01  8.50000000E-01  8.50000000E-01  8.50000000E-01  8.50000000E-01
  8.50000000E-01  8.50000000E-01  8.50000000E-01  8.50000000E-01  8.50000000E-01
  8.50000000E-01  8.50000000E-01  8.50000000E-01  8.50000000E-01  8.50000000E-01
  8.50000000E-01  8.50000000E-01  8.50000000E-01  8.50000000E-01  8.50000000E-01
  8.50000000E-01  8.50000000E-01  8.50000000E-01  8.50000000E-01  8.50000000E-01
  8.50000000E-01  8.50000000E-01  8.50000000E-01  8.50000000E-01  8.50000000E-01
  8.50000000E-01  8.50000000E-01  8.50000000E-01  8.50000000E-01  8.50000000E-01
  8.50000000E-01  8.50000000E-01  8.50000000E-01  8.50000000E-01  8.50000000E-01
  8.50000000E-01  8.50000000E-01  8.50000000E-01  8.50000000E-01  8.50000000E-01
  8.50000000E-01  8.50000000E-01  8.50000000E-01  8.50000000E-01  8.50000000E-01
  8.50000000E-01  8.50000000E-01  8.50000000E-01  8.50000000E-01  8.50000000E-01
  8.50000000E-01  8.50000000E-01  8.50000000E-01  8.50000000E-01  8.50000000E-01
  8.50000000E-01  8.50000000E-01  8.50000000E-01  8.50000000E-01  8.50000000E-01
  8.50000000E-01  8.50000000E-01  8.50000000E-01  8.50000000E-01  8.50000000E-01
  8.50000000E-01  8.50000000E-01  8.50000000E-01  8.50000000E-01  8.50000000E-01
  8.50000000E-01  8.50000000E-01  8.50000000E-01  8.50000000E-01  8.50000000E-01
  8.50000000E-01  8.50000000E-01  8.50000000E-01  8.50000000E-01  8.50000000E-01
  8.50000000E-01  8.50000000E-01  8.50000000E-01  8.50000000E-01  8.50000000E-01
  8.50000000E-01  8.50000000E-01  8.50000000E-01  8.50000000E-01  8.50000000E-01
  8.50000000E-01  8.50000000E-01  8.50000000E-01  8.50000000E-01  8.50000000E-01
  8.50000000E-01  8.50000000E-01  8.50000000E-01  8.50000000E-01  8.50000000E-01
  8.50000000E-01  8.50000000E-01  8.50000000E-01  8.50000000E-01  8.50000000E-01
  8.50000000E-01  8.50000000E-01  8.50000000E-01  8.50000000E-01  8.50000000E-01
  8.50000000E-01  8.50000000E-01  8.50000000E-01  8.50000000E-01  8.50000000E-01
  8.50000000E-01  8.50000000E-01  8.50000000E-01  8.50000000E-01  8.50000000E-01
  8.50000000E-01  8.50000000E-01  8.50000000E-01  8.50000000E-01  8.50000000E-01
  8.50000000E-01  8.50000000E-01  8.50000000E-01  8.50000000E-01  8.50000000E-01
  8.50000000E-01  8.50000000E-01  8.50000000E-01  8.50000000E-01  8.50000000E-01
  8.50000000E-01  8.50000000E-01  8.50000000E-01  8.50000000E-01  8.50000000E-01
  8.50000000E-01  8.50000000E-01  8.50000000E-01  8.50000000E-01  8.50000000E-01
  8.50000000E-01  8.50000000E-01  8.50000000E-01  8.50000000E-01  8.50000000E-01
  8.50000000E-01  8.50000000E-01  8.50000000E-01  8.50000000E-01  8.50000000E-01
  8.50000000E-01  8.50000000E-01  8.50000000E-01  8.50000000E-01  8.50000000E-01
  8.50000000E-01  8.50000000E-01  8.50000000E-01  8.50000000E-01  8.50000000E-01
  8.50000000E-01  8.50000000E-01  8.50000000E-01  8.50000000E-01  8.50000000E-01
  8.50000000E-01  8.50000000E-01  8.50000000E-01  8.50000000E-01  8.50000000E-01
  8.50000000E-01  8.50000000E-01  8.50000000E-01  8.50000000E-01  8.50000000E-01
  8.50000000E-01  8.50000000E-01  8.50000000E-01  8.50000000E-01  8.50000000E-01
  8.50000000E-01  8.50000000E-01  8.50000000E-01  8.50000000E-01  8.50000000E-01
  8.50000000E-01  8.50000000E-01  8.50000000E-01  8.50000000E-01  8.50000000E-01
  8.50000000E-01  8.50000000E-01  8.50000000E-01  8.50000000E-01  8.50000000E-01
  8.50000000E-01  8.50000000E-01  8.50000000E-01  8.50000000E-01  8.50000000E-01
  8.50000000E-01  8.50000000E-01  8.50000000E-01  8.50000000E-01  8.50000000E-01
  8.50000000E-01  8.50000000E-01  8.50000000E-01  8.50000000E-01  8.50000000E-01
  8.50000000E-01  8.50000000E-01  8.50000000E-01  8.50000000E-01  8.50000000E-01
  8.50000000E-01  8.50000000E-01  8.50000000E-01  8.50000000E-01  8.50000000E-01
  8.50000000E-01  8.50000000E-01  8.50000000E-01  8.50000000E-01  8.50000000E-01
  8.50000000E-01  8.50000000E-01  8.50000000E-01  8.50000000E-01  8.50000000E-01
  8.50000000E-01  8.50000000E-01  8.50000000E-01  8.50000000E-01  8.50000000E-01
  8.50000000E-01  8.50000000E-01  8.50000000E-01  8.50000000E-01  8.50000000E-01
  8.50000000E-01  8.50000000E-01  8.50000000E-01  8.50000000E-01  8.50000000E-01
  8.50000000E-01  8.50000000E-01  8.50000000E-01  8.50000000E-01  8.50000000E-01
  8.50000000E-01  8.50000000E-01  8.50000000E-01  8.50000000E-01  8.50000000E-01
  8.50000000E-01  8.50000000E-01  8.50000000E-01  8.50000000E-01  8.50000000E-01
  8.50000000E-01  8.50000000E-01  8.50000000E-01  8.50000000E-01  8.50000000E-01
  8.50000000E-01  8.50000000E-01  8.50000000E-01  8.50000000E-01  8.50000000E-01
  8.50000000E-01  8.50000000E-01  8.50000000E-01  8.50000000E-01  8.50000000E-01
  8.50000000E-01  8.50000000E-01  8.50000000E-01  8.50000000E-01  8.50000000E-01
  8.50000000E-01  8.50000000E-01  8.50000000E-01  8.50000000E-01  8.50000000E-01
  8.50000000E-01  8.50000000E-01  8.50000000E-01  8.50000000E-01  8.50000000E-01
  8.50000000E-01  8.50000000E-01  8.50000000E-01  8.50000000E-01  8.50000000E-01
  8.50000000E-01  8.50000000E-01  8.50000000E-01  8.50000000E-01  8.50000000E-01
  8.50000000E-01  8.50000000E-01  8.50000000E-01  8.50000000E-01  8.50000000E-01
  8.50000000E-01  8.50000000E-01  8.50000000E-01  8.50000000E-01  8.50000000E-01
  8.50000000E-01  8.50000000E-01  8.50000000E-01  8.50000000E-01  8.50000000E-01
  8.50000000E-01  8.50000000E-01  8.50000000E-01  8.50000000E-01  8.50000000E-01
  8.50000000E-01  8.50000000E-01  8.50000000E-01  8.50000000E-01  8.50000000E-01
  8.50000000E-01  8.50000000E-01  8.50000000E-01  8.50000000E-01  8.50000000E-01
  8.50000000E-01  8.50000000E-01  8.50000000E-01  8.50000000E-01  8.50000000E-01
  8.50000000E-01  8.50000000E-01  8.50000000E-01  8.50000000E-01  8.50000000E-01
  8.50000000E-01  8.50000000E-01  8.50000000E-01  8.50000000E-01  8.50000000E-01
  8.50000000E-01  8.50000000E-01  8.50000000E-01  8.50000000E-01  8.50000000E-01
  8.50000000E-01  8.50000000E-01  8.50000000E-01  8.50000000E-01  8.50000000E-01
  8.50000000E-01  8.50000000E-01  8.50000000E-01  8.50000000E-01  8.50000000E-01
  8.50000000E-01  8.50000000E-01  8.50000000E-01  8.50000000E-01  8.50000000E-01
  8.50000000E-01  8.50000000E-01  8.50000000E-01  8.50000000E-01  8.50000000E-01
  8.50000000E-01  8.50000000E-01  8.50000000E-01  8.50000000E-01  8.50000000E-01
  8.50000000E-01  8.50000000E-01  8.50000000E-01  8.50000000E-01  8.50000000E-01
  8.50000000E-01  8.50000000E-01  8.50000000E-01  8.50000000E-01  8.50000000E-01
  8.50000000E-01  8.50000000E-01  8.50000000E-01  8.50000000E-01  8.50000000E-01
  8.50000000E-01  8.50000000E-01  8.50000000E-01  8.50000000E-01  8.50000000E-01
  8.50000000E-01  8.50000000E-01  8.50000000E-01  8.50000000E-01  8.50000000E-01
  8.50000000E-01  8.50000000E-01  8.50000000E-01  8.50000000E-01  8.50000000E-01
  8.50000000E-01  8.50000000E-01  8.50000000E-01  8.50000000E-01  8.50000000E-01
  8.50000000E-01  8.50000000E-01  8.50000000E-01  8.50000000E-01  8.50000000E-01
  8.50000000E-01  8.50000000E-01  8.50000000E-01  8.50000000E-01  8.50000000E-01
  8.50000000E-01  8.50000000E-01  8.50000000E-01  8.50000000E-01  8.50000000E-01
  8.50000000E-01  8.50000000E-01  8.50000000E-01  8.50000000E-01  8.50000000E-01
  8.50000000E-01  8.50000000E-01  8.50000000E-01  8.50000000E-01  8.50000000E-01
  8.50000000E-01  8.50000000E-01  8.50000000E-01  8.50000000E-01  8.50000000E-01
  8.50000000E-01  8.50000000E-01  8.50000000E-01  8.50000000E-01  8.50000000E-01
  8.50000000E-01  8.50000000E-01  8.50000000E-01  8.50000000E-01  8.50000000E-01
  8.50000000E-01  8.50000000E-01  8.50000000E-01  8.50000000E-01  8.50000000E-01
  8.50000000E-01  8.50000000E-01  8.50000000E-01  8.50000000E-01  8.50000000E-01
  8.50000000E-01  8.50000000E-01  8.50000000E-01  8.50000000E-01  8.50000000E-01
  8.50000000E-01  8.50000000E-01  8.50000000E-01  8.50000000E-01  8.50000000E-01
  8.50000000E-01  8.50000000E-01  8.50000000E-01  8.50000000E-01  8.50000000E-01
  8.50000000E-01  8.50000000E-01  8.50000000E-01  8.50000000E-01  8.50000000E-01
  8.50000000E-01  8.50000000E-01  8.50000000E-01  8.50000000E-01  8.50000000E-01
  8.50000000E-01  8.50000000E-01  8.50000000E-01  8.50000000E-01  8.50000000E-01
  8.50000000E-01  8.50000000E-01  8.50000000E-01  8.50000000E-01  8.50000000E-01
  8.50000000E-01  8.50000000E-01  8.50000000E-01  8.50000000E-01  8.50000000E-01
  8.50000000E-01  8.50000000E-01  8.50000000E-01  8.50000000E-01  8.50000000E-01
  8.50000000E-01  8.50000000E-01  8.50000000E-01  8.50000000E-01  8.50000000E-01
  8.50000000E-01  8.50000000E-01  8.50000000E-01  8.50000000E-01  8.50000000E-01
  8.50000000E-01  8.50000000E-01  8.50000000E-01  8.50000000E-01  8.50000000E-01
  8.50000000E-01  8.50000000E-01  8.50000000E-01  8.50000000E-01  8.50000000E-01
  8.50000000E-01  8.50000000E-01  8.50000000E-01  8.50000000E-01  8.50000000E-01
  8.50000000E-01  8.50000000E-01  8.50000000E-01  8.50000000E-01  8.50000000E-01
  8.50000000E-01  8.50000000E-01  8.50000000E-01  8.50000000E-01  8.50000000E-01
  8.50000000E-01  8.50000000E-01  8.50000000E-01  8.50000000E-01  8.50000000E-01
  8.50000000E-01  8.50000000E-01  8.50000000E-01  8.50000000E-01  8.50000000E-01
  8.50000000E-01  8.50000000E-01  8.50000000E-01  8.50000000E-01  8.50000000E-01
  8.50000000E-01  8.50000000E-01  8.50000000E-01  8.50000000E-01  8.50000000E-01
  8.50000000E-01  8.50000000E-01  8.50000000E-01  8.50000000E-01  8.50000000E-01
  8.50000000E-01  8.50000000E-01  8.50000000E-01  8.50000000E-01  8.50000000E-01
  8.50000000E-01  8.50000000E-01  8.50000000E-01  8.50000000E-01  8.50000000E-01
  8.50000000E-01  8.50000000E-01  8.50000000E-01  8.50000000E-01  8.50000000E-01
  8.50000000E-01  8.50000000E-01  8.50000000E-01  8.50000000E-01  8.50000000E-01
  8.50000000E-01  8.50000000E-01  8.50000000E-01  8.50000000E-01  8.50000000E-01
  8.50000000E-01  8.50000000E-01  8.50000000E-01  8.50000000E-01  8.50000000E-01
  8.50000000E-01  8.50000000E-01  8.50000000E-01  8.50000000E-01  8.50000000E-01
  8.50000000E-01  8.50000000E-01  8.50000000E-01  8.50000000E-01  8.50000000E-01
  8.50000000E-01  8.50000000E-01  8.50000000E-01  8.50000000E-01  8.50000000E-01
  8.50000000E-01  8.50000000E-01  8.50000000E-01  8.50000000E-01  8.50000000E-01
  8.50000000E-01  8.50000000E-01  8.50000000E-01  8.50000000E-01  8.50000000E-01
  8.50000000E-01  8.50000000E-01  8.50000000E-01  8.50000000E-01  8.50000000E-01
  8.50000000E-01  8.50000000E-01  8.50000000E-01  8.50000000E-01  8.50000000E-01
  8.50000000E-01  8.50000000E-01  8.50000000E-01  8.50000000E-01  8.50000000E-01
  8.50000000E-01  8.50000000E-01  8.50000000E-01  8.50000000E-01  8.50000000E-01
  8.50000000E-01  8.50000000E-01  8.50000000E-01  8.50000000E-01  8.50000000E-01
  8.50000000E-01  8.50000000E-01  8.50000000E-01  8.50000000E-01  8.50000000E-01
  8.50000000E-01  8.50000000E-01  8.50000000E-01  8.50000000E-01  8.50000000E-01
  8.50000000E-01  8.50000000E-01  8.50000000E-01  8.50000000E-01  8.50000000E-01
  8.50000000E-01  8.50000000E-01  8.50000000E-01  8.50000000E-01  8.50000000E-01
  8.50000000E-01  8.50000000E-01  8.50000000E-01  8.50000000E-01  8.50000000E-01
  8.50000000E-01  8.50000000E-01  8.50000000E-01  8.50000000E-01  8.50000000E-01
  8.50000000E-01  8.50000000E-01  8.50000000E-01  8.50000000E-01  8.50000000E-01
  8.50000000E-01  8.50000000E-01  8.50000000E-01  8.50000000E-01  8.50000000E-01
  8.50000000E-01  8.50000000E-01  8.50000000E-01  8.50000000E-01  8.50000000E-01
  8.50000000E-01  8.50000000E-01  8.50000000E-01  8.50000000E-01  8.50000000E-01
  8.50000000E-01  8.50000000E-01  8.50000000E-01  8.50000000E-01  8.50000000E-01
  8.50000000E-01  8.50000000E-01  8.50000000E-01  8.50000000E-01  8.50000000E-01
  8.50000000E-01  8.50000000E-01  8.50000000E-01  8.50000000E-01  8.50000000E-01
  8.50000000E-01  8.50000000E-01  8.50000000E-01  8.50000000E-01  8.50000000E-01
  8.50000000E-01  8.50000000E-01  8.50000000E-01  8.50000000E-01  8.50000000E-01
  8.50000000E-01  8.50000000E-01  8.50000000E-01  8.50000000E-01  8.50000000E-01
  8.50000000E-01  8.50000000E-01  8.50000000E-01  8.50000000E-01  8.50000000E-01
  8.50000000E-01  8.50000000E-01  8.50000000E-01  8.50000000E-01  8.50000000E-01
  8.50000000E-01  8.50000000E-01  8.50000000E-01  8.50000000E-01  8.50000000E-01
  8.50000000E-01  8.50000000E-01  8.50000000E-01  8.50000000E-01  8.50000000E-01
  8.50000000E-01  8.50000000E-01  8.50000000E-01  8.50000000E-01  8.50000000E-01
  8.50000000E-01  8.50000000E-01  8.50000000E-01  8.50000000E-01  8.50000000E-01
  8.50000000E-01  8.50000000E-01  8.50000000E-01  8.50000000E-01  8.50000000E-01
  8.50000000E-01  8.50000000E-01  8.50000000E-01  8.50000000E-01  8.50000000E-01
  8.50000000E-01  8.50000000E-01  8.50000000E-01  8.50000000E-01  8.50000000E-01
  8.50000000E-01  8.50000000E-01  8.50000000E-01  8.50000000E-01  8.50000000E-01
  8.50000000E-01  8.50000000E-01  8.50000000E-01  8.50000000E-01  8.50000000E-01
  8.50000000E-01  8.50000000E-01  8.50000000E-01  8.50000000E-01  8.50000000E-01
  8.50000000E-01  8.50000000E-01  8.50000000E-01  8.50000000E-01  8.50000000E-01
  8.50000000E-01  8.50000000E-01  8.50000000E-01  8.50000000E-01  8.50000000E-01
  8.50000000E-01  8.50000000E-01  8.50000000E-01  8.50000000E-01  8.50000000E-01
  8.50000000E-01  8.50000000E-01  8.50000000E-01  8.50000000E-01  8.50000000E-01
  8.50000000E-01  8.50000000E-01  8.50000000E-01  8.50000000E-01  8.50000000E-01
  8.50000000E-01  8.50000000E-01  8.50000000E-01  8.50000000E-01  8.50000000E-01
  8.50000000E-01  8.50000000E-01  8.50000000E-01  8.50000000E-01  8.50000000E-01
  8.50000000E-01  8.50000000E-01  8.50000000E-01  8.50000000E-01  8.50000000E-01
  8.50000000E-01  8.50000000E-01  8.50000000E-01  8.50000000E-01  8.50000000E-01
  8.50000000E-01  8.50000000E-01  8.50000000E-01  8.50000000E-01  8.50000000E-01
  8.50000000E-01  8.50000000E-01  8.50000000E-01  8.50000000E-01  8.50000000E-01
  8.50000000E-01  8.50000000E-01  8.50000000E-01  8.50000000E-01  8.50000000E-01
  8.50000000E-01  8.50000000E-01  8.50000000E-01  8.50000000E-01  8.50000000E-01
  8.50000000E-01  8.50000000E-01  8.50000000E-01  8.50000000E-01  8.50000000E-01
  8.50000000E-01  8.50000000E-01  8.50000000E-01  8.50000000E-01  8.50000000E-01
  8.50000000E-01  8.50000000E-01  8.50000000E-01  8.50000000E-01  8.50000000E-01
  8.50000000E-01  8.50000000E-01  8.50000000E-01  8.50000000E-01  8.50000000E-01
  8.50000000E-01  8.50000000E-01  8.50000000E-01  8.50000000E-01  8.50000000E-01
  8.50000000E-01  8.50000000E-01  8.50000000E-01  8.50000000E-01  8.50000000E-01
  8.50000000E-01  8.50000000E-01  8.50000000E-01  8.50000000E-01  8.50000000E-01
  8.50000000E-01  8.50000000E-01  8.50000000E-01  8.50000000E-01  8.50000000E-01
  8.50000000E-01  8.50000000E-01  8.50000000E-01  8.50000000E-01  8.50000000E-01
  8.50000000E-01  8.50000000E-01  8.50000000E-01  8.50000000E-01  8.50000000E-01
  8.50000000E-01  8.50000000E-01  8.50000000E-01  8.50000000E-01  8.50000000E-01
  8.50000000E-01  8.50000000E-01  8.50000000E-01  8.50000000E-01  8.50000000E-01
  8.50000000E-01  8.50000000E-01  8.50000000E-01  8.50000000E-01  8.50000000E-01
  8.50000000E-01  8.50000000E-01  8.50000000E-01  8.50000000E-01  8.50000000E-01
  8.50000000E-01  8.50000000E-01  8.50000000E-01  8.50000000E-01  8.50000000E-01
  8.50000000E-01  8.50000000E-01  8.50000000E-01  8.50000000E-01  8.50000000E-01
  8.50000000E-01  8.50000000E-01  8.50000000E-01  8.50000000E-01  8.50000000E-01
  8.50000000E-01  8.50000000E-01  8.50000000E-01  8.50000000E-01  8.50000000E-01
  8.50000000E-01  8.50000000E-01  8.50000000E-01  8.50000000E-01  8.50000000E-01
  8.50000000E-01  8.50000000E-01  8.50000000E-01  8.50000000E-01  8.50000000E-01
  8.50000000E-01  8.50000000E-01  8.50000000E-01  8.50000000E-01  8.50000000E-01
  8.50000000E-01  8.50000000E-01  8.50000000E-01  8.50000000E-01  8.50000000E-01
  8.50000000E-01  8.50000000E-01  8.50000000E-01  8.50000000E-01  8.50000000E-01
  8.50000000E-01  8.50000000E-01  8.50000000E-01  8.50000000E-01  8.50000000E-01
  8.50000000E-01  8.50000000E-01  8.50000000E-01  8.50000000E-01  8.50000000E-01
  8.50000000E-01  8.50000000E-01  8.50000000E-01  8.50000000E-01  8.50000000E-01
  8.50000000E-01  8.50000000E-01  8.50000000E-01  8.50000000E-01  8.50000000E-01
  8.50000000E-01  8.50000000E-01  8.50000000E-01  8.50000000E-01  8.50000000E-01
  8.50000000E-01  8.50000000E-01  8.50000000E-01  8.50000000E-01  8.50000000E-01
  8.50000000E-01  8.50000000E-01  8.50000000E-01  8.50000000E-01  8.50000000E-01
  8.50000000E-01  8.50000000E-01  8.50000000E-01  8.50000000E-01  8.50000000E-01
  8.50000000E-01  8.50000000E-01  8.50000000E-01  8.50000000E-01  8.50000000E-01
  8.50000000E-01  8.50000000E-01  8.50000000E-01  8.50000000E-01  8.50000000E-01
  8.50000000E-01  8.50000000E-01  8.50000000E-01  8.50000000E-01  8.50000000E-01
  8.50000000E-01  8.50000000E-01  8.50000000E-01  8.50000000E-01  8.50000000E-01
  8.50000000E-01  8.50000000E-01  8.50000000E-01  8.50000000E-01  8.50000000E-01
  8.50000000E-01  8.50000000E-01  8.50000000E-01  8.50000000E-01  8.50000000E-01
  8.50000000E-01  8.50000000E-01  8.50000000E-01  8.50000000E-01  8.50000000E-01
  8.50000000E-01  8.50000000E-01  8.50000000E-01  8.50000000E-01  8.50000000E-01
  8.50000000E-01  8.50000000E-01  8.50000000E-01  8.50000000E-01  8.50000000E-01
  8.50000000E-01  8.50000000E-01  8.50000000E-01  8.50000000E-01  8.50000000E-01
  8.50000000E-01  8.50000000E-01  8.50000000E-01  8.50000000E-01  8.50000000E-01
  8.50000000E-01  8.50000000E-01  8.50000000E-01  8.50000000E-01  8.50000000E-01
  8.50000000E-01  8.50000000E-01  8.50000000E-01  8.50000000E-01  8.50000000E-01
  8.50000000E-01  8.50000000E-01  8.50000000E-01  8.50000000E-01  8.50000000E-01
  8.50000000E-01  8.50000000E-01  8.50000000E-01  8.50000000E-01  8.50000000E-01
  8.50000000E-01  8.50000000E-01  8.50000000E-01  8.50000000E-01  8.50000000E-01
  8.50000000E-01  8.50000000E-01  8.50000000E-01  8.50000000E-01  8.50000000E-01
  8.50000000E-01  8.50000000E-01  8.50000000E-01  8.50000000E-01  8.50000000E-01
  8.50000000E-01  8.50000000E-01  8.50000000E-01  8.50000000E-01  8.50000000E-01
  8.50000000E-01  8.50000000E-01  8.50000000E-01  8.50000000E-01  8.50000000E-01
  8.50000000E-01  8.50000000E-01  8.50000000E-01  8.50000000E-01  8.50000000E-01
  8.50000000E-01  8.50000000E-01  8.50000000E-01  8.50000000E-01  8.50000000E-01
  8.50000000E-01  8.50000000E-01  8.50000000E-01  8.50000000E-01  8.50000000E-01
  8.50000000E-01  8.50000000E-01  8.50000000E-01  8.50000000E-01  8.50000000E-01
  8.50000000E-01  8.50000000E-01  8.50000000E-01  8.50000000E-01  8.50000000E-01
  8.50000000E-01  8.50000000E-01  8.50000000E-01  8.50000000E-01  8.50000000E-01
  8.50000000E-01  8.50000000E-01  8.50000000E-01  8.50000000E-01  8.50000000E-01
  8.50000000E-01  8.50000000E-01  8.50000000E-01  8.50000000E-01  8.50000000E-01
  8.50000000E-01  8.50000000E-01  8.50000000E-01  8.50000000E-01  8.50000000E-01
  8.50000000E-01  8.50000000E-01  8.50000000E-01  8.50000000E-01  8.50000000E-01
  8.50000000E-01  8.50000000E-01  8.50000000E-01  8.50000000E-01  8.50000000E-01
  8.50000000E-01  8.50000000E-01  8.50000000E-01  8.50000000E-01  8.50000000E-01
  8.50000000E-01  8.50000000E-01  8.50000000E-01  8.50000000E-01  8.50000000E-01
  8.50000000E-01  8.50000000E-01  8.50000000E-01  8.50000000E-01  8.50000000E-01
  8.50000000E-01  8.50000000E-01  8.50000000E-01  8.50000000E-01  8.50000000E-01
  8.50000000E-01  8.50000000E-01  8.50000000E-01  8.50000000E-01  8.50000000E-01
  8.50000000E-01  8.50000000E-01  8.50000000E-01  8.50000000E-01  8.50000000E-01
  8.50000000E-01  8.50000000E-01  8.50000000E-01  8.50000000E-01  8.50000000E-01
  8.50000000E-01  8.50000000E-01  8.50000000E-01  8.50000000E-01  8.50000000E-01
  8.50000000E-01  8.50000000E-01  8.50000000E-01  8.50000000E-01  8.50000000E-01
  8.50000000E-01  8.50000000E-01  8.50000000E-01  8.50000000E-01  8.50000000E-01
  8.50000000E-01  8.50000000E-01  8.50000000E-01  8.50000000E-01  8.50000000E-01
  8.50000000E-01  8.50000000E-01  8.50000000E-01  8.50000000E-01  8.50000000E-01
  8.50000000E-01  8.50000000E-01  8.50000000E-01  8.50000000E-01  8.50000000E-01
  8.50000000E-01  8.50000000E-01  8.50000000E-01  8.50000000E-01  8.50000000E-01
  8.50000000E-01  8.50000000E-01  8.50000000E-01  8.50000000E-01  8.50000000E-01
  8.50000000E-01  8.50000000E-01  8.50000000E-01  8.50000000E-01  8.50000000E-01
  8.50000000E-01  8.50000000E-01  8.50000000E-01  8.50000000E-01  8.50000000E-01
  8.50000000E-01  8.50000000E-01  8.50000000E-01  8.50000000E-01  8.50000000E-01
  8.50000000E-01  8.50000000E-01  8.50000000E-01  8.50000000E-01  8.50000000E-01
  8.50000000E-01  8.50000000E-01  8.50000000E-01  8.50000000E-01  8.50000000E-01
  8.50000000E-01  8.50000000E-01  8.50000000E-01  8.50000000E-01  8.50000000E-01
  8.50000000E-01  8.50000000E-01  8.50000000E-01  8.50000000E-01  8.50000000E-01
  8.50000000E-01  8.50000000E-01  8.50000000E-01  8.50000000E-01  8.50000000E-01
  8.50000000E-01  8.50000000E-01  8.50000000E-01  8.50000000E-01  8.50000000E-01
  8.50000000E-01  8.50000000E-01  8.50000000E-01  8.50000000E-01  8.50000000E-01
  8.50000000E-01  8.50000000E-01  8.50000000E-01  8.50000000E-01  8.50000000E-01
  8.50000000E-01  8.50000000E-01  8.50000000E-01  8.50000000E-01  8.50000000E-01
  8.50000000E-01  8.50000000E-01  8.50000000E-01  8.50000000E-01  8.50000000E-01
  8.50000000E-01  8.50000000E-01  8.50000000E-01  8.50000000E-01  8.50000000E-01
  8.50000000E-01  8.50000000E-01  8.50000000E-01  8.50000000E-01  8.50000000E-01
  8.50000000E-01  8.50000000E-01  8.50000000E-01  8.50000000E-01  8.50000000E-01
  8.50000000E-01  8.50000000E-01  8.50000000E-01  8.50000000E-01  8.50000000E-01
  8.50000000E-01  8.50000000E-01  8.50000000E-01  8.50000000E-01  8.50000000E-01
  8.50000000E-01  8.50000000E-01  8.50000000E-01  8.50000000E-01  8.50000000E-01
  8.50000000E-01  8.50000000E-01  8.50000000E-01  8.50000000E-01  8.50000000E-01
  8.50000000E-01  8.50000000E-01  8.50000000E-01  8.50000000E-01  8.50000000E-01
  8.50000000E-01  8.50000000E-01  8.50000000E-01  8.50000000E-01  8.50000000E-01
  8.50000000E-01  8.50000000E-01  8.50000000E-01  8.50000000E-01  8.50000000E-01
  8.50000000E-01  8.50000000E-01  8.50000000E-01  8.50000000E-01  8.50000000E-01
  8.50000000E-01  8.50000000E-01  8.50000000E-01  8.50000000E-01  8.50000000E-01
  8.50000000E-01  8.50000000E-01  8.50000000E-01  8.50000000E-01  8.50000000E-01
  8.50000000E-01  8.50000000E-01  8.50000000E-01  8.50000000E-01  8.50000000E-01
  8.50000000E-01  8.50000000E-01  8.50000000E-01  8.50000000E-01  8.50000000E-01
  8.50000000E-01  8.50000000E-01  8.50000000E-01  8.50000000E-01  8.50000000E-01
  8.50000000E-01  8.50000000E-01  8.50000000E-01  8.50000000E-01  8.50000000E-01
  8.50000000E-01  8.50000000E-01  8.50000000E-01  8.50000000E-01  8.50000000E-01
  8.50000000E-01  8.50000000E-01  8.50000000E-01  8.50000000E-01  8.50000000E-01
  8.50000000E-01  8.50000000E-01  8.50000000E-01  8.50000000E-01  8.50000000E-01
  8.50000000E-01  8.50000000E-01  8.50000000E-01  8.50000000E-01  8.50000000E-01
  8.50000000E-01  8.50000000E-01  8.50000000E-01  8.50000000E-01  8.50000000E-01
  8.50000000E-01  8.50000000E-01  8.50000000E-01  8.50000000E-01  8.50000000E-01
  8.50000000E-01  8.50000000E-01  8.50000000E-01  8.50000000E-01  8.50000000E-01
  8.50000000E-01  8.50000000E-01  8.50000000E-01  8.50000000E-01  8.50000000E-01
  8.50000000E-01  8.50000000E-01  8.50000000E-01  8.50000000E-01  8.50000000E-01
  8.50000000E-01  8.50000000E-01  8.50000000E-01  8.50000000E-01  8.50000000E-01
  8.50000000E-01  8.50000000E-01  8.50000000E-01  8.50000000E-01  8.50000000E-01
  8.50000000E-01  8.50000000E-01  8.50000000E-01  8.50000000E-01  8.50000000E-01
  8.50000000E-01  8.50000000E-01  8.50000000E-01  8.50000000E-01  8.50000000E-01
  8.50000000E-01  8.50000000E-01  8.50000000E-01  8.50000000E-01  8.50000000E-01
  8.50000000E-01  8.50000000E-01  8.50000000E-01  8.50000000E-01  8.50000000E-01
  8.50000000E-01  8.50000000E-01  8.50000000E-01  8.50000000E-01  8.50000000E-01
  8.50000000E-01  8.50000000E-01  8.50000000E-01  8.50000000E-01  8.50000000E-01
  8.50000000E-01  8.50000000E-01  8.50000000E-01  8.50000000E-01  8.50000000E-01
  8.50000000E-01  8.50000000E-01  8.50000000E-01  8.50000000E-01  8.50000000E-01
  8.50000000E-01  8.50000000E-01  8.50000000E-01  8.50000000E-01  8.50000000E-01
  8.50000000E-01  8.50000000E-01  8.50000000E-01  8.50000000E-01  8.50000000E-01
  8.50000000E-01  8.50000000E-01  8.50000000E-01  8.50000000E-01  8.50000000E-01
  8.50000000E-01  8.50000000E-01  8.50000000E-01  8.50000000E-01  8.50000000E-01
  8.50000000E-01  8.50000000E-01  8.50000000E-01  8.50000000E-01  8.50000000E-01
  8.50000000E-01  8.50000000E-01  8.50000000E-01  8.50000000E-01  8.50000000E-01
  8.50000000E-01  8.50000000E-01  8.50000000E-01  8.50000000E-01  8.50000000E-01
  8.50000000E-01  8.50000000E-01  8.50000000E-01  8.50000000E-01  8.50000000E-01
  8.50000000E-01  8.50000000E-01  8.50000000E-01  8.50000000E-01  8.50000000E-01
  8.50000000E-01  8.50000000E-01  8.50000000E-01  8.50000000E-01  8.50000000E-01
  8.50000000E-01  8.50000000E-01  8.50000000E-01  8.50000000E-01  8.50000000E-01
  8.50000000E-01  8.50000000E-01  8.50000000E-01  8.50000000E-01  8.50000000E-01
  8.50000000E-01  8.50000000E-01  8.50000000E-01  8.50000000E-01  8.50000000E-01
  8.50000000E-01  8.50000000E-01  8.50000000E-01  8.50000000E-01  8.50000000E-01
  8.50000000E-01  8.50000000E-01  8.50000000E-01  8.50000000E-01  8.50000000E-01
  8.50000000E-01  8.50000000E-01  8.50000000E-01  8.50000000E-01  8.50000000E-01
  8.50000000E-01  8.50000000E-01  8.50000000E-01  8.50000000E-01  8.50000000E-01
  8.50000000E-01  8.50000000E-01  8.50000000E-01  8.50000000E-01  8.50000000E-01
  8.50000000E-01  8.50000000E-01  8.50000000E-01  8.50000000E-01  8.50000000E-01
  8.50000000E-01  8.50000000E-01  8.50000000E-01  8.50000000E-01  8.50000000E-01
  8.50000000E-01  8.50000000E-01  8.50000000E-01  8.50000000E-01  8.50000000E-01
  8.50000000E-01  8.50000000E-01  8.50000000E-01  8.50000000E-01  8.50000000E-01
  8.50000000E-01  8.50000000E-01  8.50000000E-01  8.50000000E-01  8.50000000E-01
  8.50000000E-01  8.50000000E-01  8.50000000E-01  8.50000000E-01  8.50000000E-01
  8.50000000E-01  8.50000000E-01  8.50000000E-01  8.50000000E-01  8.50000000E-01
  8.50000000E-01  8.50000000E-01  8.50000000E-01  8.50000000E-01  8.50000000E-01
  8.50000000E-01  8.50000000E-01  8.50000000E-01  8.50000000E-01  8.50000000E-01
  8.50000000E-01  8.50000000E-01  8.50000000E-01  8.50000000E-01  8.50000000E-01
  8.50000000E-01  8.50000000E-01  8.50000000E-01  8.50000000E-01  8.50000000E-01
  8.50000000E-01  8.50000000E-01  8.50000000E-01  8.50000000E-01  8.50000000E-01
  8.50000000E-01  8.50000000E-01  8.50000000E-01  8.50000000E-01  8.50000000E-01
  8.50000000E-01  8.50000000E-01  8.50000000E-01  8.50000000E-01  8.50000000E-01
  8.50000000E-01  8.50000000E-01  8.50000000E-01  8.50000000E-01  8.50000000E-01
  8.50000000E-01  8.50000000E-01  8.50000000E-01  8.50000000E-01  8.50000000E-01
  8.50000000E-01  8.50000000E-01  8.50000000E-01  8.50000000E-01  8.50000000E-01
  8.50000000E-01  8.50000000E-01  8.50000000E-01  8.50000000E-01  8.50000000E-01
  8.50000000E-01  8.50000000E-01  8.50000000E-01  8.50000000E-01  8.50000000E-01
  8.50000000E-01  8.50000000E-01  8.50000000E-01  8.50000000E-01  8.50000000E-01
  8.50000000E-01  8.50000000E-01  8.50000000E-01  8.50000000E-01  8.50000000E-01
  8.50000000E-01  8.50000000E-01  8.50000000E-01  8.50000000E-01  8.50000000E-01
  8.50000000E-01  8.50000000E-01  8.50000000E-01  8.50000000E-01  8.50000000E-01
  8.50000000E-01  8.50000000E-01  8.50000000E-01  8.50000000E-01  8.50000000E-01
  8.50000000E-01  8.50000000E-01  8.50000000E-01  8.50000000E-01  8.50000000E-01
  8.50000000E-01  8.50000000E-01  8.50000000E-01  8.50000000E-01  8.50000000E-01
  8.50000000E-01  8.50000000E-01  8.50000000E-01  8.50000000E-01  8.50000000E-01
  8.50000000E-01  8.50000000E-01  8.50000000E-01  8.50000000E-01  8.50000000E-01
  8.50000000E-01  8.50000000E-01  8.50000000E-01  8.50000000E-01  8.50000000E-01
  8.50000000E-01  8.50000000E-01  8.50000000E-01  8.50000000E-01  8.50000000E-01
  8.50000000E-01  8.50000000E-01  8.50000000E-01  8.50000000E-01  8.50000000E-01
  8.50000000E-01  8.50000000E-01  8.50000000E-01  8.50000000E-01  8.50000000E-01
  8.50000000E-01  8.50000000E-01  8.50000000E-01  8.50000000E-01  8.50000000E-01
  8.50000000E-01  8.50000000E-01  8.50000000E-01  8.50000000E-01  8.50000000E-01
  8.50000000E-01  8.50000000E-01  8.50000000E-01  8.50000000E-01  8.50000000E-01
  8.50000000E-01  8.50000000E-01  8.50000000E-01  8.50000000E-01  8.50000000E-01
  8.50000000E-01  8.50000000E-01  8.50000000E-01  8.50000000E-01  8.50000000E-01
  8.50000000E-01  8.50000000E-01  8.50000000E-01  8.50000000E-01  8.50000000E-01
  8.50000000E-01  8.50000000E-01  8.50000000E-01  8.50000000E-01  8.50000000E-01
  8.50000000E-01  8.50000000E-01  8.50000000E-01  8.50000000E-01  8.50000000E-01
  8.50000000E-01  8.50000000E-01  8.50000000E-01  8.50000000E-01  8.50000000E-01
  8.50000000E-01  8.50000000E-01  8.50000000E-01  8.50000000E-01  8.50000000E-01
  8.50000000E-01  8.50000000E-01  8.50000000E-01  8.50000000E-01  8.50000000E-01
  8.50000000E-01  8.50000000E-01  8.50000000E-01  8.50000000E-01  8.50000000E-01
  8.50000000E-01  8.50000000E-01  8.50000000E-01  8.50000000E-01  8.50000000E-01
  8.50000000E-01  8.50000000E-01  8.50000000E-01  8.50000000E-01  8.50000000E-01
  8.50000000E-01  8.50000000E-01  8.50000000E-01  8.50000000E-01  8.50000000E-01
  8.50000000E-01  8.50000000E-01  8.50000000E-01  8.50000000E-01  8.50000000E-01
  8.50000000E-01  8.50000000E-01  8.50000000E-01  8.50000000E-01  8.50000000E-01
  8.50000000E-01  8.50000000E-01  8.50000000E-01  8.50000000E-01  8.50000000E-01
  8.50000000E-01  8.50000000E-01  8.50000000E-01  8.50000000E-01  8.50000000E-01
  8.50000000E-01  8.50000000E-01  8.50000000E-01  8.50000000E-01  8.50000000E-01
  8.50000000E-01  8.50000000E-01  8.50000000E-01  8.50000000E-01  8.50000000E-01
  8.50000000E-01  8.50000000E-01  8.50000000E-01  8.50000000E-01  8.50000000E-01
  8.50000000E-01  8.50000000E-01  8.50000000E-01  8.50000000E-01  8.50000000E-01
  8.50000000E-01  8.50000000E-01  8.50000000E-01  8.50000000E-01  8.50000000E-01
  8.50000000E-01  8.50000000E-01  8.50000000E-01  8.50000000E-01  8.50000000E-01
  8.50000000E-01  8.50000000E-01  8.50000000E-01  8.50000000E-01  8.50000000E-01
  8.50000000E-01  8.50000000E-01  8.50000000E-01  8.50000000E-01  8.50000000E-01
  8.50000000E-01  8.50000000E-01  8.50000000E-01  8.50000000E-01  8.50000000E-01
  8.50000000E-01  8.50000000E-01  8.50000000E-01  8.50000000E-01  8.50000000E-01
  8.50000000E-01  8.50000000E-01  8.50000000E-01  8.50000000E-01  8.50000000E-01
  8.50000000E-01  8.50000000E-01  8.50000000E-01  8.50000000E-01  8.50000000E-01
  8.50000000E-01  8.50000000E-01  8.50000000E-01  8.50000000E-01  8.50000000E-01
  8.50000000E-01  8.50000000E-01  8.50000000E-01  8.50000000E-01  8.50000000E-01
  8.50000000E-01  8.50000000E-01  8.50000000E-01  8.50000000E-01  8.50000000E-01
  8.50000000E-01  8.50000000E-01  8.50000000E-01  8.50000000E-01  8.50000000E-01
  8.50000000E-01  8.50000000E-01  8.50000000E-01  8.50000000E-01  8.50000000E-01
  8.50000000E-01  8.50000000E-01  8.50000000E-01  8.50000000E-01  8.50000000E-01
  8.50000000E-01  8.50000000E-01  8.50000000E-01  8.50000000E-01  8.50000000E-01
  8.50000000E-01  8.50000000E-01  8.50000000E-01  8.50000000E-01  8.50000000E-01
  8.50000000E-01  8.50000000E-01  8.50000000E-01  8.50000000E-01  8.50000000E-01
  8.50000000E-01  8.50000000E-01  8.50000000E-01  8.50000000E-01  8.50000000E-01
  8.50000000E-01  8.50000000E-01  8.50000000E-01  8.50000000E-01  8.50000000E-01
  8.50000000E-01  8.50000000E-01  8.50000000E-01  8.50000000E-01  8.50000000E-01
  8.50000000E-01  8.50000000E-01  8.50000000E-01  8.50000000E-01  8.50000000E-01
  8.50000000E-01  8.50000000E-01  8.50000000E-01  8.50000000E-01  8.50000000E-01
  8.50000000E-01  8.50000000E-01  8.50000000E-01  8.50000000E-01  8.50000000E-01
  8.50000000E-01  8.50000000E-01  8.50000000E-01  8.50000000E-01  8.50000000E-01
  8.50000000E-01  8.50000000E-01  8.50000000E-01  8.50000000E-01  8.50000000E-01
  8.50000000E-01  8.50000000E-01  8.50000000E-01  8.50000000E-01  8.50000000E-01
  8.50000000E-01  8.50000000E-01  8.50000000E-01  8.50000000E-01  8.50000000E-01
  8.50000000E-01  8.50000000E-01  8.50000000E-01  8.50000000E-01  8.50000000E-01
  8.50000000E-01  8.50000000E-01  8.50000000E-01  8.50000000E-01  8.50000000E-01
  8.50000000E-01  8.50000000E-01  8.50000000E-01  8.50000000E-01  8.50000000E-01
  8.50000000E-01  8.50000000E-01  8.50000000E-01  8.50000000E-01  8.50000000E-01
  8.50000000E-01  8.50000000E-01  8.50000000E-01  8.50000000E-01  8.50000000E-01
  8.50000000E-01  8.50000000E-01  8.50000000E-01  8.50000000E-01  8.50000000E-01
  8.50000000E-01  8.50000000E-01  8.50000000E-01  8.50000000E-01  8.50000000E-01
  8.50000000E-01  8.50000000E-01  8.50000000E-01  8.50000000E-01  8.50000000E-01
  8.50000000E-01  8.50000000E-01  8.50000000E-01  8.50000000E-01  8.50000000E-01
  8.50000000E-01  8.50000000E-01  8.50000000E-01  8.50000000E-01  8.50000000E-01
  8.50000000E-01  8.50000000E-01  8.50000000E-01  8.50000000E-01  8.50000000E-01
  8.50000000E-01  8.50000000E-01  8.50000000E-01  8.50000000E-01  8.50000000E-01
  8.50000000E-01  8.50000000E-01  8.50000000E-01  8.50000000E-01  8.50000000E-01
  8.50000000E-01  8.50000000E-01  8.50000000E-01  8.50000000E-01  8.50000000E-01
  8.50000000E-01  8.50000000E-01  8.50000000E-01  8.50000000E-01  8.50000000E-01
  8.50000000E-01  8.50000000E-01  8.50000000E-01  8.50000000E-01  8.50000000E-01
  8.50000000E-01  8.50000000E-01  8.50000000E-01  8.50000000E-01  8.50000000E-01
  8.50000000E-01  8.50000000E-01  8.50000000E-01  8.50000000E-01  8.50000000E-01
  8.50000000E-01  8.50000000E-01  8.50000000E-01  8.50000000E-01  8.50000000E-01
  8.50000000E-01  8.50000000E-01  8.50000000E-01  8.50000000E-01  8.50000000E-01
  8.50000000E-01  8.50000000E-01  8.50000000E-01  8.50000000E-01  8.50000000E-01
  8.50000000E-01  8.50000000E-01  8.50000000E-01  8.50000000E-01  8.50000000E-01
  8.50000000E-01  8.50000000E-01  8.50000000E-01  8.50000000E-01  8.50000000E-01
  8.50000000E-01  8.50000000E-01  8.50000000E-01  8.50000000E-01  8.50000000E-01
  8.50000000E-01  8.50000000E-01  8.50000000E-01  8.50000000E-01  8.50000000E-01
  8.50000000E-01  8.50000000E-01  8.50000000E-01  8.50000000E-01  8.50000000E-01
  8.50000000E-01  8.50000000E-01  8.50000000E-01  8.50000000E-01  8.50000000E-01
  8.50000000E-01  8.50000000E-01  8.50000000E-01  8.50000000E-01  8.50000000E-01
  8.50000000E-01  8.50000000E-01  8.50000000E-01  8.50000000E-01  8.50000000E-01
  8.50000000E-01  8.50000000E-01  8.50000000E-01  8.50000000E-01  8.50000000E-01
  8.50000000E-01  8.50000000E-01  8.50000000E-01  8.50000000E-01  8.50000000E-01
  8.50000000E-01  8.50000000E-01  8.50000000E-01  8.50000000E-01  8.50000000E-01
  8.50000000E-01  8.50000000E-01  8.50000000E-01  8.50000000E-01  8.50000000E-01
  8.50000000E-01  8.50000000E-01  8.50000000E-01  8.50000000E-01  8.50000000E-01
  8.50000000E-01  8.50000000E-01  8.50000000E-01  8.50000000E-01  8.50000000E-01
  8.50000000E-01  8.50000000E-01  8.50000000E-01  8.50000000E-01  8.50000000E-01
  8.50000000E-01  8.50000000E-01  8.50000000E-01  8.50000000E-01  8.50000000E-01
  8.50000000E-01  8.50000000E-01  8.50000000E-01  8.50000000E-01  8.50000000E-01
  8.50000000E-01  8.50000000E-01  8.50000000E-01  8.50000000E-01  8.50000000E-01
  8.50000000E-01  8.50000000E-01  8.50000000E-01  8.50000000E-01  8.50000000E-01
  8.50000000E-01  8.50000000E-01  8.50000000E-01  8.50000000E-01  8.50000000E-01
  8.50000000E-01  8.50000000E-01  8.50000000E-01  8.50000000E-01  8.50000000E-01
  8.50000000E-01  8.50000000E-01  8.50000000E-01  8.50000000E-01  8.50000000E-01
  8.50000000E-01  8.50000000E-01  8.50000000E-01  8.50000000E-01  8.50000000E-01
  8.50000000E-01  8.50000000E-01  8.50000000E-01  8.50000000E-01  8.50000000E-01
  8.50000000E-01  8.50000000E-01  8.50000000E-01  8.50000000E-01  8.50000000E-01
  8.50000000E-01  8.50000000E-01  8.50000000E-01  8.50000000E-01  8.50000000E-01
  8.50000000E-01  8.50000000E-01  8.50000000E-01  8.50000000E-01  8.50000000E-01
  8.50000000E-01  8.50000000E-01  8.50000000E-01  8.50000000E-01  8.50000000E-01
  8.50000000E-01  8.50000000E-01  8.50000000E-01  8.50000000E-01  8.50000000E-01
  8.50000000E-01  8.50000000E-01  8.50000000E-01  8.50000000E-01  8.50000000E-01
  8.50000000E-01  8.50000000E-01  8.50000000E-01  8.50000000E-01  8.50000000E-01
  8.50000000E-01  8.50000000E-01  8.50000000E-01  8.50000000E-01  8.50000000E-01
  8.50000000E-01  8.50000000E-01  8.50000000E-01  8.50000000E-01  8.50000000E-01
  8.50000000E-01  8.50000000E-01  8.50000000E-01  8.50000000E-01  8.50000000E-01
  8.50000000E-01  8.50000000E-01  8.50000000E-01  8.50000000E-01  8.50000000E-01
  8.50000000E-01  8.50000000E-01  8.50000000E-01  8.50000000E-01  8.50000000E-01
  8.50000000E-01  8.50000000E-01  8.50000000E-01  8.50000000E-01  8.50000000E-01
  8.50000000E-01  8.50000000E-01  8.50000000E-01  8.50000000E-01  8.50000000E-01
  8.50000000E-01  8.50000000E-01  8.50000000E-01  8.50000000E-01  8.50000000E-01
  8.50000000E-01  8.50000000E-01  8.50000000E-01  8.50000000E-01  8.50000000E-01
  8.50000000E-01  8.50000000E-01  8.50000000E-01  8.50000000E-01  8.50000000E-01
  8.50000000E-01  8.50000000E-01  8.50000000E-01  8.50000000E-01  8.50000000E-01
  8.50000000E-01  8.50000000E-01  8.50000000E-01  8.50000000E-01  8.50000000E-01
  8.50000000E-01  8.50000000E-01  8.50000000E-01  8.50000000E-01  8.50000000E-01
  8.50000000E-01  8.50000000E-01  8.50000000E-01  8.50000000E-01  8.50000000E-01
  8.50000000E-01  8.50000000E-01  8.50000000E-01  8.50000000E-01  8.50000000E-01
  8.50000000E-01  8.50000000E-01  8.50000000E-01  8.50000000E-01  8.50000000E-01
  8.50000000E-01  8.50000000E-01  8.50000000E-01  8.50000000E-01  8.50000000E-01
  8.50000000E-01  8.50000000E-01  8.50000000E-01  8.50000000E-01  8.50000000E-01
  8.50000000E-01  8.50000000E-01  8.50000000E-01  8.50000000E-01  8.50000000E-01
  8.50000000E-01  8.50000000E-01  8.50000000E-01  8.50000000E-01  8.50000000E-01
  8.50000000E-01  8.50000000E-01  8.50000000E-01  8.50000000E-01  8.50000000E-01
  8.50000000E-01  8.50000000E-01  8.50000000E-01  8.50000000E-01  8.50000000E-01
  8.50000000E-01  8.50000000E-01  8.50000000E-01  8.50000000E-01  8.50000000E-01
  8.50000000E-01  8.50000000E-01  8.50000000E-01  8.50000000E-01  8.50000000E-01
  8.50000000E-01  8.50000000E-01  8.50000000E-01  8.50000000E-01  8.50000000E-01
  8.50000000E-01  8.50000000E-01  8.50000000E-01  8.50000000E-01  8.50000000E-01
  8.50000000E-01  8.50000000E-01  8.50000000E-01  8.50000000E-01  8.50000000E-01
  8.50000000E-01  8.50000000E-01  8.50000000E-01  8.50000000E-01  8.50000000E-01
  8.50000000E-01  8.50000000E-01  8.50000000E-01  8.50000000E-01  8.50000000E-01
  8.50000000E-01  8.50000000E-01  8.50000000E-01  8.50000000E-01  8.50000000E-01
  8.50000000E-01  8.50000000E-01  8.50000000E-01  8.50000000E-01  8.50000000E-01
  8.50000000E-01  8.50000000E-01  8.50000000E-01  8.50000000E-01  8.50000000E-01
  8.50000000E-01  8.50000000E-01  8.50000000E-01  8.50000000E-01  8.50000000E-01
  8.50000000E-01  8.50000000E-01  8.50000000E-01  8.50000000E-01  8.50000000E-01
  8.50000000E-01  8.50000000E-01  8.50000000E-01  8.50000000E-01  8.50000000E-01
  8.50000000E-01  8.50000000E-01  8.50000000E-01  8.50000000E-01  8.50000000E-01
  8.50000000E-01  8.50000000E-01  8.50000000E-01  8.50000000E-01  8.50000000E-01
  8.50000000E-01  8.50000000E-01  8.50000000E-01  8.50000000E-01  8.50000000E-01
  8.50000000E-01  8.50000000E-01  8.50000000E-01  8.50000000E-01  8.50000000E-01
  8.50000000E-01  8.50000000E-01  8.50000000E-01  8.50000000E-01  8.50000000E-01
  8.50000000E-01  8.50000000E-01  8.50000000E-01  8.50000000E-01  8.50000000E-01
  8.50000000E-01  8.50000000E-01  8.50000000E-01  8.50000000E-01  8.50000000E-01
  8.50000000E-01  8.50000000E-01  8.50000000E-01  8.50000000E-01  8.50000000E-01
  8.50000000E-01  8.50000000E-01  8.50000000E-01  8.50000000E-01  8.50000000E-01
  8.50000000E-01  8.50000000E-01  8.50000000E-01  8.50000000E-01  8.50000000E-01
  8.50000000E-01  8.50000000E-01  8.50000000E-01  8.50000000E-01  8.50000000E-01
  8.50000000E-01  8.50000000E-01  8.50000000E-01  8.50000000E-01  8.50000000E-01
  8.50000000E-01  8.50000000E-01  8.50000000E-01  8.50000000E-01  8.50000000E-01
  8.50000000E-01  8.50000000E-01  8.50000000E-01  8.50000000E-01  8.50000000E-01
  8.50000000E-01  8.50000000E-01  8.50000000E-01  8.50000000E-01  8.50000000E-01
  8.50000000E-01  8.50000000E-01  8.50000000E-01  8.50000000E-01  8.50000000E-01
  8.50000000E-01  8.50000000E-01  8.50000000E-01  8.50000000E-01  8.50000000E-01
  8.50000000E-01  8.50000000E-01  8.50000000E-01  8.50000000E-01  8.50000000E-01
  8.50000000E-01  8.50000000E-01  8.50000000E-01  8.50000000E-01  8.50000000E-01
  8.50000000E-01  8.50000000E-01  8.50000000E-01  8.50000000E-01  8.50000000E-01
  8.50000000E-01  8.50000000E-01  8.50000000E-01  8.50000000E-01  8.50000000E-01
  8.50000000E-01  8.50000000E-01  8.50000000E-01  8.50000000E-01  8.50000000E-01
  8.50000000E-01  8.50000000E-01  8.50000000E-01  8.50000000E-01  8.50000000E-01
  8.50000000E-01  8.50000000E-01  8.50000000E-01  8.50000000E-01  8.50000000E-01
  8.50000000E-01  8.50000000E-01  8.50000000E-01  8.50000000E-01  8.50000000E-01
  8.50000000E-01  8.50000000E-01  8.50000000E-01  8.50000000E-01  8.50000000E-01
  8.50000000E-01  8.50000000E-01  8.50000000E-01  8.50000000E-01  8.50000000E-01
  8.50000000E-01  8.50000000E-01  8.50000000E-01  8.50000000E-01  8.50000000E-01
  8.50000000E-01  8.50000000E-01  8.50000000E-01  8.50000000E-01  8.50000000E-01
  8.50000000E-01  8.50000000E-01  8.50000000E-01  8.50000000E-01  8.50000000E-01
  8.50000000E-01  8.50000000E-01  8.50000000E-01  8.50000000E-01  8.50000000E-01
  8.50000000E-01  8.50000000E-01  8.50000000E-01  8.50000000E-01  8.50000000E-01
  8.50000000E-01  8.50000000E-01  8.50000000E-01  8.50000000E-01  8.50000000E-01
  8.50000000E-01  8.50000000E-01  8.50000000E-01  8.50000000E-01  8.50000000E-01
  8.50000000E-01  8.50000000E-01  8.50000000E-01  8.50000000E-01  8.50000000E-01
  8.50000000E-01  8.50000000E-01  8.50000000E-01  8.50000000E-01  8.50000000E-01
  8.50000000E-01  8.50000000E-01  8.50000000E-01  8.50000000E-01  8.50000000E-01
  8.50000000E-01  8.50000000E-01  8.50000000E-01  8.50000000E-01  8.50000000E-01
  8.50000000E-01  8.50000000E-01  8.50000000E-01  8.50000000E-01  8.50000000E-01
  8.50000000E-01  8.50000000E-01  8.50000000E-01  8.50000000E-01  8.50000000E-01
  8.50000000E-01  8.50000000E-01  8.50000000E-01  8.50000000E-01  8.50000000E-01
  8.50000000E-01  8.50000000E-01  8.50000000E-01  8.50000000E-01  8.50000000E-01
  8.50000000E-01  8.50000000E-01  8.50000000E-01  8.50000000E-01  8.50000000E-01
  8.50000000E-01  8.50000000E-01  8.50000000E-01  8.50000000E-01  8.50000000E-01
  8.50000000E-01  8.50000000E-01  8.50000000E-01  8.50000000E-01  8.50000000E-01
  8.50000000E-01  8.50000000E-01  8.50000000E-01  8.50000000E-01  8.50000000E-01
  8.50000000E-01  8.50000000E-01  8.50000000E-01  8.50000000E-01  8.50000000E-01
  8.50000000E-01  8.50000000E-01  8.50000000E-01  8.50000000E-01  8.50000000E-01
  8.50000000E-01  8.50000000E-01  8.50000000E-01  8.50000000E-01  8.50000000E-01
  8.50000000E-01  8.50000000E-01  8.50000000E-01  8.50000000E-01  8.50000000E-01
  8.50000000E-01  8.50000000E-01  8.50000000E-01  8.50000000E-01  8.50000000E-01
  8.50000000E-01  8.50000000E-01  8.50000000E-01  8.50000000E-01  8.50000000E-01
  8.50000000E-01  8.50000000E-01  8.50000000E-01  8.50000000E-01  8.50000000E-01
  8.50000000E-01  8.50000000E-01  8.50000000E-01  8.50000000E-01  8.50000000E-01
  8.50000000E-01  8.50000000E-01  8.50000000E-01  8.50000000E-01  8.50000000E-01
  8.50000000E-01  8.50000000E-01  8.50000000E-01  8.50000000E-01  8.50000000E-01
  8.50000000E-01  8.50000000E-01  8.50000000E-01  8.50000000E-01  8.50000000E-01
  8.50000000E-01  8.50000000E-01  8.50000000E-01  8.50000000E-01  8.50000000E-01
  8.50000000E-01  8.50000000E-01  8.50000000E-01  8.50000000E-01  8.50000000E-01
  8.50000000E-01  8.50000000E-01  8.50000000E-01  8.50000000E-01  8.50000000E-01
  8.50000000E-01  8.50000000E-01  8.50000000E-01  8.50000000E-01  8.50000000E-01
  8.50000000E-01  8.50000000E-01  8.50000000E-01  8.50000000E-01  8.50000000E-01
  8.50000000E-01  8.50000000E-01  8.50000000E-01  8.50000000E-01  8.50000000E-01
  8.50000000E-01  8.50000000E-01  8.50000000E-01  8.50000000E-01  8.50000000E-01
  8.50000000E-01  8.50000000E-01  8.50000000E-01  8.50000000E-01  8.50000000E-01
  8.50000000E-01  8.50000000E-01  8.50000000E-01  8.50000000E-01  8.50000000E-01
  8.50000000E-01  8.50000000E-01  8.50000000E-01  8.50000000E-01  8.50000000E-01
  8.50000000E-01  8.50000000E-01  8.50000000E-01  8.50000000E-01  8.50000000E-01
  8.50000000E-01  8.50000000E-01  8.50000000E-01  8.50000000E-01  8.50000000E-01
  8.50000000E-01  8.50000000E-01  8.50000000E-01  8.50000000E-01  8.50000000E-01
  8.50000000E-01  8.50000000E-01  8.50000000E-01  8.50000000E-01  8.50000000E-01
  8.50000000E-01  8.50000000E-01  8.50000000E-01  8.50000000E-01  8.50000000E-01
  8.50000000E-01  8.50000000E-01  8.50000000E-01  8.50000000E-01  8.50000000E-01
  8.50000000E-01  8.50000000E-01  8.50000000E-01  8.50000000E-01  8.50000000E-01
  8.50000000E-01  8.50000000E-01  8.50000000E-01  8.50000000E-01  8.50000000E-01
  8.50000000E-01  8.50000000E-01  8.50000000E-01  8.50000000E-01  8.50000000E-01
  8.50000000E-01  8.50000000E-01  8.50000000E-01  8.50000000E-01  8.50000000E-01
  8.50000000E-01  8.50000000E-01  8.50000000E-01  8.50000000E-01  8.50000000E-01
  8.50000000E-01  8.50000000E-01  8.50000000E-01  8.50000000E-01  8.50000000E-01
  8.50000000E-01  8.50000000E-01  8.50000000E-01  8.50000000E-01  8.50000000E-01
  8.50000000E-01  8.50000000E-01  8.50000000E-01  8.50000000E-01  8.50000000E-01
  8.50000000E-01  8.50000000E-01  8.50000000E-01  8.50000000E-01  8.50000000E-01
  8.50000000E-01  8.50000000E-01  8.50000000E-01  8.50000000E-01  8.50000000E-01
  8.50000000E-01  8.50000000E-01  8.50000000E-01  8.50000000E-01  8.50000000E-01
  8.50000000E-01  8.50000000E-01  8.50000000E-01  8.50000000E-01  8.50000000E-01
  8.50000000E-01  8.50000000E-01  8.50000000E-01  8.50000000E-01  8.50000000E-01
  8.50000000E-01  8.50000000E-01  8.50000000E-01  8.50000000E-01  8.50000000E-01
  8.50000000E-01  8.50000000E-01  8.50000000E-01  8.50000000E-01  8.50000000E-01
  8.50000000E-01  8.50000000E-01  8.50000000E-01  8.50000000E-01  8.50000000E-01
  8.50000000E-01  8.50000000E-01  8.50000000E-01  8.50000000E-01  8.50000000E-01
  8.50000000E-01  8.50000000E-01  8.50000000E-01  8.50000000E-01  8.50000000E-01
  8.50000000E-01  8.50000000E-01  8.50000000E-01  8.50000000E-01  8.50000000E-01
  8.50000000E-01  8.50000000E-01  8.50000000E-01  8.50000000E-01  8.50000000E-01
  8.50000000E-01  8.50000000E-01  8.50000000E-01  8.50000000E-01  8.50000000E-01
  8.50000000E-01  8.50000000E-01  8.50000000E-01  8.50000000E-01  8.50000000E-01
  8.50000000E-01  8.50000000E-01  8.50000000E-01  8.50000000E-01  8.50000000E-01
  8.50000000E-01  8.50000000E-01  8.50000000E-01  8.50000000E-01  8.50000000E-01
  8.50000000E-01  8.50000000E-01  8.50000000E-01  8.50000000E-01  8.50000000E-01
  8.50000000E-01  8.50000000E-01  8.50000000E-01  8.50000000E-01  8.50000000E-01
  8.50000000E-01  8.50000000E-01  8.50000000E-01  8.50000000E-01  8.50000000E-01
  8.50000000E-01  8.50000000E-01  8.50000000E-01  8.50000000E-01  8.50000000E-01
  8.50000000E-01  8.50000000E-01  8.50000000E-01  8.50000000E-01  8.50000000E-01
  8.50000000E-01  8.50000000E-01  8.50000000E-01  8.50000000E-01  8.50000000E-01
  8.50000000E-01  8.50000000E-01  8.50000000E-01  8.50000000E-01  8.50000000E-01
  8.50000000E-01  8.50000000E-01  8.50000000E-01  8.50000000E-01  8.50000000E-01
  8.50000000E-01  8.50000000E-01  8.50000000E-01  8.50000000E-01  8.50000000E-01
  8.50000000E-01  8.50000000E-01  8.50000000E-01  8.50000000E-01  8.50000000E-01
  8.50000000E-01  8.50000000E-01  8.50000000E-01  8.50000000E-01  8.50000000E-01
  8.50000000E-01  8.50000000E-01  8.50000000E-01  8.50000000E-01  8.50000000E-01
  8.50000000E-01  8.50000000E-01  8.50000000E-01  8.50000000E-01  8.50000000E-01
  8.50000000E-01  8.50000000E-01  8.50000000E-01  8.50000000E-01  8.50000000E-01
  8.50000000E-01  8.50000000E-01  8.50000000E-01  8.50000000E-01  8.50000000E-01
  8.50000000E-01  8.50000000E-01  8.50000000E-01  8.50000000E-01  8.50000000E-01
  8.50000000E-01  8.50000000E-01  8.50000000E-01  8.50000000E-01  8.50000000E-01
  8.50000000E-01  8.50000000E-01  8.50000000E-01  8.50000000E-01  8.50000000E-01
  8.50000000E-01  8.50000000E-01  8.50000000E-01  8.50000000E-01  8.50000000E-01
  8.50000000E-01  8.50000000E-01  8.50000000E-01  8.50000000E-01  8.50000000E-01
  8.50000000E-01  8.50000000E-01  8.50000000E-01  8.50000000E-01  8.50000000E-01
  8.50000000E-01  8.50000000E-01  8.50000000E-01  8.50000000E-01  8.50000000E-01
  8.50000000E-01  8.50000000E-01  8.50000000E-01  8.50000000E-01  8.50000000E-01
  8.50000000E-01  8.50000000E-01  8.50000000E-01  8.50000000E-01  8.50000000E-01
  8.50000000E-01  8.50000000E-01  8.50000000E-01  8.50000000E-01  8.50000000E-01
  8.50000000E-01  8.50000000E-01  8.50000000E-01  8.50000000E-01  8.50000000E-01
  8.50000000E-01  8.50000000E-01  8.50000000E-01  8.50000000E-01  8.50000000E-01
  8.50000000E-01  8.50000000E-01  8.50000000E-01  8.50000000E-01  8.50000000E-01
  8.50000000E-01  8.50000000E-01  8.50000000E-01  8.50000000E-01  8.50000000E-01
  8.50000000E-01  8.50000000E-01  8.50000000E-01  8.50000000E-01  8.50000000E-01
  8.50000000E-01  8.50000000E-01  8.50000000E-01  8.50000000E-01  8.50000000E-01
  8.50000000E-01  8.50000000E-01  8.50000000E-01  8.50000000E-01  8.50000000E-01
  8.50000000E-01  8.50000000E-01  8.50000000E-01  8.50000000E-01  8.50000000E-01
  8.50000000E-01  8.50000000E-01  8.50000000E-01  8.50000000E-01  8.50000000E-01
  8.50000000E-01  8.50000000E-01  8.50000000E-01  8.50000000E-01  8.50000000E-01
  8.50000000E-01  8.50000000E-01  8.50000000E-01  8.50000000E-01  8.50000000E-01
  8.50000000E-01  8.50000000E-01  8.50000000E-01  8.50000000E-01  8.50000000E-01
  8.50000000E-01  8.50000000E-01  8.50000000E-01  8.50000000E-01  8.50000000E-01
  8.50000000E-01  8.50000000E-01  8.50000000E-01  8.50000000E-01  8.50000000E-01
  8.50000000E-01  8.50000000E-01  8.50000000E-01  8.50000000E-01  8.50000000E-01
  8.50000000E-01  8.50000000E-01  8.50000000E-01  8.50000000E-01  8.50000000E-01
  8.50000000E-01  8.50000000E-01  8.50000000E-01  8.50000000E-01  8.50000000E-01
  8.50000000E-01  8.50000000E-01  8.50000000E-01  8.50000000E-01  8.50000000E-01
  8.50000000E-01  8.50000000E-01  8.50000000E-01  8.50000000E-01  8.50000000E-01
  8.50000000E-01  8.50000000E-01  8.50000000E-01  8.50000000E-01  8.50000000E-01
  8.50000000E-01  8.50000000E-01  8.50000000E-01  8.50000000E-01  8.50000000E-01
  8.50000000E-01  8.50000000E-01  8.50000000E-01  8.50000000E-01  8.50000000E-01
  8.50000000E-01  8.50000000E-01  8.50000000E-01  8.50000000E-01  8.50000000E-01
  8.50000000E-01  8.50000000E-01  8.50000000E-01  8.50000000E-01  8.50000000E-01
  8.50000000E-01  8.50000000E-01  8.50000000E-01  8.50000000E-01  8.50000000E-01
  8.50000000E-01  8.50000000E-01  8.50000000E-01  8.50000000E-01  8.50000000E-01
  8.50000000E-01  8.50000000E-01  8.50000000E-01  8.50000000E-01  8.50000000E-01
  8.50000000E-01  8.50000000E-01  8.50000000E-01  8.50000000E-01  8.50000000E-01
  8.50000000E-01  8.50000000E-01  8.50000000E-01  8.50000000E-01  8.50000000E-01
  8.50000000E-01  8.50000000E-01  8.50000000E-01  8.50000000E-01  8.50000000E-01
  8.50000000E-01  8.50000000E-01  8.50000000E-01  8.50000000E-01  8.50000000E-01
  8.50000000E-01  8.50000000E-01  8.50000000E-01  8.50000000E-01  8.50000000E-01
  8.50000000E-01  8.50000000E-01  8.50000000E-01  8.50000000E-01  8.50000000E-01
  8.50000000E-01  8.50000000E-01  8.50000000E-01  8.50000000E-01  8.50000000E-01
  8.50000000E-01  8.50000000E-01  8.50000000E-01  8.50000000E-01  8.50000000E-01
  8.50000000E-01  8.50000000E-01  8.50000000E-01  8.50000000E-01  8.50000000E-01
  8.50000000E-01  8.50000000E-01  8.50000000E-01  8.50000000E-01  8.50000000E-01
  8.50000000E-01  8.50000000E-01  8.50000000E-01  8.50000000E-01  8.50000000E-01
  8.50000000E-01  8.50000000E-01  8.50000000E-01  8.50000000E-01  8.50000000E-01
  8.50000000E-01  8.50000000E-01  8.50000000E-01  8.50000000E-01  8.50000000E-01
  8.50000000E-01  8.50000000E-01  8.50000000E-01  8.50000000E-01  8.50000000E-01
  8.50000000E-01  8.50000000E-01  8.50000000E-01  8.50000000E-01  8.50000000E-01
  8.50000000E-01  8.50000000E-01  8.50000000E-01  8.50000000E-01  8.50000000E-01
  8.50000000E-01  8.50000000E-01  8.50000000E-01  8.50000000E-01  8.50000000E-01
  8.50000000E-01  8.50000000E-01  8.50000000E-01  8.50000000E-01  8.50000000E-01
  8.50000000E-01  8.50000000E-01  8.50000000E-01  8.50000000E-01  8.50000000E-01
  8.50000000E-01  8.50000000E-01  8.50000000E-01  8.50000000E-01  8.50000000E-01
  8.50000000E-01  8.50000000E-01  8.50000000E-01  8.50000000E-01  8.50000000E-01
  8.50000000E-01  8.50000000E-01  8.50000000E-01  8.50000000E-01  8.50000000E-01
  8.50000000E-01  8.50000000E-01  8.50000000E-01  8.50000000E-01  8.50000000E-01
  8.50000000E-01  8.50000000E-01  8.50000000E-01  8.50000000E-01  8.50000000E-01
  8.50000000E-01  8.50000000E-01  8.50000000E-01  8.50000000E-01  8.50000000E-01
  8.50000000E-01  8.50000000E-01  8.50000000E-01  8.50000000E-01  8.50000000E-01
  8.50000000E-01  8.50000000E-01  8.50000000E-01  8.50000000E-01  8.50000000E-01
  8.50000000E-01  8.50000000E-01  8.50000000E-01  8.50000000E-01  8.50000000E-01
  8.50000000E-01  8.50000000E-01  8.50000000E-01  8.50000000E-01  8.50000000E-01
  8.50000000E-01  8.50000000E-01  8.50000000E-01  8.50000000E-01  8.50000000E-01
  8.50000000E-01  8.50000000E-01  8.50000000E-01  8.50000000E-01  8.50000000E-01
  8.50000000E-01  8.50000000E-01  8.50000000E-01  8.50000000E-01  8.50000000E-01
  8.50000000E-01  8.50000000E-01  8.50000000E-01  8.50000000E-01  8.50000000E-01
  8.50000000E-01  8.50000000E-01  8.50000000E-01  8.50000000E-01  8.50000000E-01
  8.50000000E-01  8.50000000E-01  8.50000000E-01  8.50000000E-01  8.50000000E-01
  8.50000000E-01  8.50000000E-01  8.50000000E-01  8.50000000E-01  8.50000000E-01
  8.50000000E-01  8.50000000E-01  8.50000000E-01  8.50000000E-01  8.50000000E-01
  8.50000000E-01  8.50000000E-01  8.50000000E-01  8.50000000E-01  8.50000000E-01
  8.50000000E-01  8.50000000E-01  8.50000000E-01  8.50000000E-01  8.50000000E-01
  8.50000000E-01  8.50000000E-01  8.50000000E-01  8.50000000E-01  8.50000000E-01
  8.50000000E-01  8.50000000E-01  8.50000000E-01  8.50000000E-01  8.50000000E-01
  8.50000000E-01  8.50000000E-01  8.50000000E-01  8.50000000E-01  8.50000000E-01
  8.50000000E-01  8.50000000E-01  8.50000000E-01  8.50000000E-01  8.50000000E-01
  8.50000000E-01  8.50000000E-01  8.50000000E-01  8.50000000E-01  8.50000000E-01
  8.50000000E-01  8.50000000E-01  8.50000000E-01  8.50000000E-01  8.50000000E-01
  8.50000000E-01  8.50000000E-01  8.50000000E-01  8.50000000E-01  8.50000000E-01
  8.50000000E-01  8.50000000E-01  8.50000000E-01  8.50000000E-01  8.50000000E-01
  8.50000000E-01  8.50000000E-01  8.50000000E-01  8.50000000E-01  8.50000000E-01
  8.50000000E-01  8.50000000E-01  8.50000000E-01  8.50000000E-01  8.50000000E-01
  8.50000000E-01  8.50000000E-01  8.50000000E-01  8.50000000E-01  8.50000000E-01
  8.50000000E-01  8.50000000E-01  8.50000000E-01  8.50000000E-01  8.50000000E-01
  8.50000000E-01  8.50000000E-01  8.50000000E-01  8.50000000E-01  8.50000000E-01
  8.50000000E-01  8.50000000E-01  8.50000000E-01  8.50000000E-01  8.50000000E-01
  8.50000000E-01  8.50000000E-01  8.50000000E-01  8.50000000E-01  8.50000000E-01
  8.50000000E-01  8.50000000E-01  8.50000000E-01  8.50000000E-01  8.50000000E-01
  8.50000000E-01  8.50000000E-01  8.50000000E-01  8.50000000E-01  8.50000000E-01
  8.50000000E-01  8.50000000E-01  8.50000000E-01  8.50000000E-01  8.50000000E-01
  8.50000000E-01  8.50000000E-01  8.50000000E-01  8.50000000E-01  8.50000000E-01
  8.50000000E-01  8.50000000E-01  8.50000000E-01  8.50000000E-01  8.50000000E-01
  8.50000000E-01  8.50000000E-01  8.50000000E-01  8.50000000E-01  8.50000000E-01
  8.50000000E-01  8.50000000E-01  8.50000000E-01  8.50000000E-01  8.50000000E-01
  8.50000000E-01  8.50000000E-01  8.50000000E-01  8.50000000E-01  8.50000000E-01
  8.50000000E-01  8.50000000E-01  8.50000000E-01  8.50000000E-01  8.50000000E-01
  8.50000000E-01  8.50000000E-01  8.50000000E-01  8.50000000E-01  8.50000000E-01
  8.50000000E-01  8.50000000E-01  8.50000000E-01  8.50000000E-01  8.50000000E-01
  8.50000000E-01  8.50000000E-01  8.50000000E-01  8.50000000E-01  8.50000000E-01
  8.50000000E-01  8.50000000E-01  8.50000000E-01  8.50000000E-01  8.50000000E-01
  8.50000000E-01  8.50000000E-01  8.50000000E-01  8.50000000E-01  8.50000000E-01
  8.50000000E-01  8.50000000E-01  8.50000000E-01  8.50000000E-01  8.50000000E-01
  8.50000000E-01  8.50000000E-01  8.50000000E-01  8.50000000E-01  8.50000000E-01
  8.50000000E-01  8.50000000E-01  8.50000000E-01  8.50000000E-01  8.50000000E-01
  8.50000000E-01  8.50000000E-01  8.50000000E-01  8.50000000E-01  8.50000000E-01
  8.50000000E-01  8.50000000E-01  8.50000000E-01  8.50000000E-01  8.50000000E-01
  8.50000000E-01  8.50000000E-01  8.50000000E-01  8.50000000E-01  8.50000000E-01
  8.50000000E-01  8.50000000E-01  8.50000000E-01  8.50000000E-01  8.50000000E-01
  8.50000000E-01  8.50000000E-01  8.50000000E-01  8.50000000E-01  8.50000000E-01
  8.50000000E-01  8.50000000E-01  8.50000000E-01  8.50000000E-01  8.50000000E-01
  8.50000000E-01  8.50000000E-01  8.50000000E-01  8.50000000E-01  8.50000000E-01
  8.50000000E-01  8.50000000E-01  8.50000000E-01  8.50000000E-01  8.50000000E-01
  8.50000000E-01  8.50000000E-01  8.50000000E-01  8.50000000E-01  8.50000000E-01
  8.50000000E-01  8.50000000E-01  8.50000000E-01  8.50000000E-01  8.50000000E-01
  8.50000000E-01  8.50000000E-01  8.50000000E-01  8.50000000E-01  8.50000000E-01
  8.50000000E-01  8.50000000E-01  8.50000000E-01  8.50000000E-01  8.50000000E-01
  8.50000000E-01  8.50000000E-01  8.50000000E-01  8.50000000E-01  8.50000000E-01
  8.50000000E-01  8.50000000E-01  8.50000000E-01  8.50000000E-01  8.50000000E-01
  8.50000000E-01  8.50000000E-01  8.50000000E-01  8.50000000E-01  8.50000000E-01
  8.50000000E-01  8.50000000E-01  8.50000000E-01  8.50000000E-01  8.50000000E-01
  8.50000000E-01  8.50000000E-01  8.50000000E-01  8.50000000E-01  8.50000000E-01
  8.50000000E-01  8.50000000E-01  8.50000000E-01  8.50000000E-01  8.50000000E-01
  8.50000000E-01  8.50000000E-01  8.50000000E-01  8.50000000E-01  8.50000000E-01
  8.50000000E-01  8.50000000E-01  8.50000000E-01  8.50000000E-01  8.50000000E-01
  8.50000000E-01  8.50000000E-01  8.50000000E-01  8.50000000E-01  8.50000000E-01
  8.50000000E-01  8.50000000E-01  8.50000000E-01  8.50000000E-01  8.50000000E-01
  8.50000000E-01  8.50000000E-01  8.50000000E-01  8.50000000E-01  8.50000000E-01
  8.50000000E-01  8.50000000E-01  8.50000000E-01  8.50000000E-01  8.50000000E-01
  8.50000000E-01  8.50000000E-01  8.50000000E-01  8.50000000E-01  8.50000000E-01
  8.50000000E-01  8.50000000E-01  8.50000000E-01  8.50000000E-01  8.50000000E-01
  8.50000000E-01  8.50000000E-01  8.50000000E-01  8.50000000E-01  8.50000000E-01
  8.50000000E-01  8.50000000E-01  8.50000000E-01  8.50000000E-01  8.50000000E-01
  8.50000000E-01  8.50000000E-01  8.50000000E-01  8.50000000E-01  8.50000000E-01
  8.50000000E-01  8.50000000E-01  8.50000000E-01  8.50000000E-01  8.50000000E-01
  8.50000000E-01  8.50000000E-01  8.50000000E-01  8.50000000E-01  8.50000000E-01
  8.50000000E-01  8.50000000E-01  8.50000000E-01  8.50000000E-01  8.50000000E-01
  8.50000000E-01  8.50000000E-01  8.50000000E-01  8.50000000E-01  8.50000000E-01
  8.50000000E-01  8.50000000E-01  8.50000000E-01  8.50000000E-01  8.50000000E-01
  8.50000000E-01  8.50000000E-01  8.50000000E-01  8.50000000E-01  8.50000000E-01
  8.50000000E-01  8.50000000E-01  8.50000000E-01  8.50000000E-01  8.50000000E-01
  8.50000000E-01  8.50000000E-01  8.50000000E-01  8.50000000E-01  8.50000000E-01
  8.50000000E-01  8.50000000E-01  8.50000000E-01  8.50000000E-01  8.50000000E-01
  8.50000000E-01  8.50000000E-01  8.50000000E-01  8.50000000E-01  8.50000000E-01
  8.50000000E-01  8.50000000E-01  8.50000000E-01  8.50000000E-01  8.50000000E-01
  8.50000000E-01  8.50000000E-01  8.50000000E-01  8.50000000E-01  8.50000000E-01
  8.50000000E-01  8.50000000E-01  8.50000000E-01  8.50000000E-01  8.50000000E-01
  8.50000000E-01  8.50000000E-01  8.50000000E-01  8.50000000E-01  8.50000000E-01
  8.50000000E-01  8.50000000E-01  8.50000000E-01  8.50000000E-01  8.50000000E-01
  8.50000000E-01  8.50000000E-01  8.50000000E-01  8.50000000E-01  8.50000000E-01
  8.50000000E-01  8.50000000E-01  8.50000000E-01  8.50000000E-01  8.50000000E-01
  8.50000000E-01  8.50000000E-01  8.50000000E-01  8.50000000E-01  8.50000000E-01
  8.50000000E-01  8.50000000E-01  8.50000000E-01  8.50000000E-01  8.50000000E-01
  8.50000000E-01  8.50000000E-01  8.50000000E-01  8.50000000E-01  8.50000000E-01
  8.50000000E-01  8.50000000E-01  8.50000000E-01  8.50000000E-01  8.50000000E-01
  8.50000000E-01  8.50000000E-01  8.50000000E-01  8.50000000E-01  8.50000000E-01
  8.50000000E-01  8.50000000E-01  8.50000000E-01  8.50000000E-01  8.50000000E-01
  8.50000000E-01  8.50000000E-01  8.50000000E-01  8.50000000E-01  8.50000000E-01
  8.50000000E-01  8.50000000E-01  8.50000000E-01  8.50000000E-01  8.50000000E-01
  8.50000000E-01  8.50000000E-01  8.50000000E-01  8.50000000E-01  8.50000000E-01
  8.50000000E-01  8.50000000E-01  8.50000000E-01  8.50000000E-01  8.50000000E-01
  8.50000000E-01  8.50000000E-01  8.50000000E-01  8.50000000E-01  8.50000000E-01
  8.50000000E-01  8.50000000E-01  8.50000000E-01  8.50000000E-01  8.50000000E-01
  8.50000000E-01  8.50000000E-01  8.50000000E-01  8.50000000E-01  8.50000000E-01
  8.50000000E-01  8.50000000E-01  8.50000000E-01  8.50000000E-01  8.50000000E-01
  8.50000000E-01  8.50000000E-01  8.50000000E-01  8.50000000E-01  8.50000000E-01
  8.50000000E-01  8.50000000E-01  8.50000000E-01  8.50000000E-01  8.50000000E-01
  8.50000000E-01  8.50000000E-01  8.50000000E-01  8.50000000E-01  8.50000000E-01
  8.50000000E-01  8.50000000E-01  8.50000000E-01  8.50000000E-01  8.50000000E-01
  8.50000000E-01  8.50000000E-01  8.50000000E-01  8.50000000E-01  8.50000000E-01
  8.50000000E-01  8.50000000E-01  8.50000000E-01  8.50000000E-01  8.50000000E-01
  8.50000000E-01  8.50000000E-01  8.50000000E-01  8.50000000E-01  8.50000000E-01
  8.50000000E-01  8.50000000E-01  8.50000000E-01  8.50000000E-01  8.50000000E-01
  8.50000000E-01  8.50000000E-01  8.50000000E-01  8.50000000E-01  8.50000000E-01
  8.50000000E-01  8.50000000E-01  8.50000000E-01  8.50000000E-01  8.50000000E-01
  8.50000000E-01  8.50000000E-01  8.50000000E-01  8.50000000E-01  8.50000000E-01
  8.50000000E-01  8.50000000E-01  8.50000000E-01  8.50000000E-01  8.50000000E-01
  8.50000000E-01  8.50000000E-01  8.50000000E-01  8.50000000E-01  8.50000000E-01
  8.50000000E-01  8.50000000E-01  8.50000000E-01  8.50000000E-01  8.50000000E-01
  8.50000000E-01  8.50000000E-01  8.50000000E-01  8.50000000E-01  8.50000000E-01
  8.50000000E-01  8.50000000E-01  8.50000000E-01  8.50000000E-01  8.50000000E-01
  8.50000000E-01  8.50000000E-01  8.50000000E-01  8.50000000E-01  8.50000000E-01
  8.50000000E-01  8.50000000E-01  8.50000000E-01  8.50000000E-01  8.50000000E-01
  8.50000000E-01  8.50000000E-01  8.50000000E-01  8.50000000E-01  8.50000000E-01
  8.50000000E-01  8.50000000E-01  8.50000000E-01  8.50000000E-01  8.50000000E-01
  8.50000000E-01  8.50000000E-01  8.50000000E-01  8.50000000E-01  8.50000000E-01
  8.50000000E-01  8.50000000E-01  8.50000000E-01  8.50000000E-01  8.50000000E-01
  8.50000000E-01  8.50000000E-01  8.50000000E-01  8.50000000E-01  8.50000000E-01
  8.50000000E-01  8.50000000E-01  8.50000000E-01  8.50000000E-01  8.50000000E-01
  8.50000000E-01  8.50000000E-01  8.50000000E-01  8.50000000E-01  8.50000000E-01
  8.50000000E-01  8.50000000E-01  8.50000000E-01  8.50000000E-01  8.50000000E-01
  8.50000000E-01  8.50000000E-01  8.50000000E-01  8.50000000E-01  8.50000000E-01
  8.50000000E-01  8.50000000E-01  8.50000000E-01  8.50000000E-01  8.50000000E-01
  8.50000000E-01  8.50000000E-01  8.50000000E-01  8.50000000E-01  8.50000000E-01
  8.50000000E-01  8.50000000E-01  8.50000000E-01  8.50000000E-01  8.50000000E-01
  8.50000000E-01  8.50000000E-01  8.50000000E-01  8.50000000E-01  8.50000000E-01
  8.50000000E-01  8.50000000E-01  8.50000000E-01  8.50000000E-01  8.50000000E-01
  8.50000000E-01  8.50000000E-01  8.50000000E-01  8.50000000E-01  8.50000000E-01
  8.50000000E-01  8.50000000E-01  8.50000000E-01  8.50000000E-01  8.50000000E-01
  8.50000000E-01  8.50000000E-01  8.50000000E-01  8.50000000E-01  8.50000000E-01
  8.50000000E-01  8.50000000E-01  8.50000000E-01  8.50000000E-01  8.50000000E-01
  8.50000000E-01  8.50000000E-01  8.50000000E-01  8.50000000E-01  8.50000000E-01
  8.50000000E-01  8.50000000E-01  8.50000000E-01  8.50000000E-01  8.50000000E-01
  8.50000000E-01  8.50000000E-01  8.50000000E-01  8.50000000E-01  8.50000000E-01
  8.50000000E-01  8.50000000E-01  8.50000000E-01  8.50000000E-01  8.50000000E-01
  8.50000000E-01  8.50000000E-01  8.50000000E-01  8.50000000E-01  8.50000000E-01
  8.50000000E-01  8.50000000E-01  8.50000000E-01  8.50000000E-01  8.50000000E-01
  8.50000000E-01  8.50000000E-01  8.50000000E-01  8.50000000E-01  8.50000000E-01
  8.50000000E-01  8.50000000E-01  8.50000000E-01  8.50000000E-01  8.50000000E-01
  8.50000000E-01  8.50000000E-01  8.50000000E-01  8.50000000E-01  8.50000000E-01
  8.50000000E-01  8.50000000E-01  8.50000000E-01  8.50000000E-01  8.50000000E-01
  8.50000000E-01  8.50000000E-01  8.50000000E-01  8.50000000E-01  8.50000000E-01
  8.50000000E-01  8.50000000E-01  8.50000000E-01  8.50000000E-01  8.50000000E-01
  8.50000000E-01  8.50000000E-01  8.50000000E-01  8.50000000E-01  8.50000000E-01
  8.50000000E-01  8.50000000E-01  8.50000000E-01  8.50000000E-01  8.50000000E-01
  8.50000000E-01  8.50000000E-01  8.50000000E-01  8.50000000E-01  8.50000000E-01
  8.50000000E-01  8.50000000E-01  8.50000000E-01  8.50000000E-01  8.50000000E-01
  8.50000000E-01  8.50000000E-01  8.50000000E-01  8.50000000E-01  8.50000000E-01
  8.50000000E-01  8.50000000E-01  8.50000000E-01  8.50000000E-01  8.50000000E-01
  8.50000000E-01  8.50000000E-01  8.50000000E-01  8.50000000E-01  8.50000000E-01
  8.50000000E-01  8.50000000E-01  8.50000000E-01  8.50000000E-01  8.50000000E-01
  8.50000000E-01  8.50000000E-01  8.50000000E-01  8.50000000E-01  8.50000000E-01
  8.50000000E-01  8.50000000E-01  8.50000000E-01  8.50000000E-01  8.50000000E-01
  8.50000000E-01  8.50000000E-01  8.50000000E-01  8.50000000E-01  8.50000000E-01
  8.50000000E-01  8.50000000E-01  8.50000000E-01  8.50000000E-01  8.50000000E-01
  8.50000000E-01  8.50000000E-01  8.50000000E-01  8.50000000E-01  8.50000000E-01
  8.50000000E-01  8.50000000E-01  8.50000000E-01  8.50000000E-01  8.50000000E-01
  8.50000000E-01  8.50000000E-01  8.50000000E-01  8.50000000E-01  8.50000000E-01
  8.50000000E-01  8.50000000E-01  8.50000000E-01  8.50000000E-01  8.50000000E-01
  8.50000000E-01  8.50000000E-01  8.50000000E-01  8.50000000E-01  8.50000000E-01
  8.50000000E-01  8.50000000E-01  8.50000000E-01  8.50000000E-01  8.50000000E-01
  8.50000000E-01  8.50000000E-01  8.50000000E-01  8.50000000E-01  8.50000000E-01
  8.50000000E-01  8.50000000E-01  8.50000000E-01  8.50000000E-01  8.50000000E-01
  8.50000000E-01  8.50000000E-01  8.50000000E-01  8.50000000E-01  8.50000000E-01
  8.50000000E-01  8.50000000E-01  8.50000000E-01  8.50000000E-01  8.50000000E-01
  8.50000000E-01  8.50000000E-01  8.50000000E-01  8.50000000E-01  8.50000000E-01
  8.50000000E-01  8.50000000E-01  8.50000000E-01  8.50000000E-01  8.50000000E-01
  8.50000000E-01  8.50000000E-01  8.50000000E-01  8.50000000E-01  8.50000000E-01
  8.50000000E-01  8.50000000E-01  8.50000000E-01  8.50000000E-01  8.50000000E-01
  8.50000000E-01  8.50000000E-01  8.50000000E-01  8.50000000E-01  8.50000000E-01
  8.50000000E-01  8.50000000E-01  8.50000000E-01  8.50000000E-01  8.50000000E-01
  8.50000000E-01  8.50000000E-01  8.50000000E-01  8.50000000E-01  8.50000000E-01
  8.50000000E-01  8.50000000E-01  8.50000000E-01  8.50000000E-01  8.50000000E-01
  8.50000000E-01  8.50000000E-01  8.50000000E-01  8.50000000E-01  8.50000000E-01
  8.50000000E-01  8.50000000E-01  8.50000000E-01  8.50000000E-01  8.50000000E-01
  8.50000000E-01  8.50000000E-01  8.50000000E-01  8.50000000E-01  8.50000000E-01
  8.50000000E-01  8.50000000E-01  8.50000000E-01  8.50000000E-01  8.50000000E-01
  8.50000000E-01  8.50000000E-01  8.50000000E-01  8.50000000E-01  8.50000000E-01
  8.50000000E-01  8.50000000E-01  8.50000000E-01  8.50000000E-01  8.50000000E-01
  8.50000000E-01  8.50000000E-01  8.50000000E-01  8.50000000E-01  8.50000000E-01
  8.50000000E-01  8.50000000E-01  8.50000000E-01  8.50000000E-01  8.50000000E-01
  8.50000000E-01  8.50000000E-01  8.50000000E-01  8.50000000E-01  8.50000000E-01
  8.50000000E-01  8.50000000E-01  8.50000000E-01  8.50000000E-01  8.50000000E-01
  8.50000000E-01  8.50000000E-01  8.50000000E-01  8.50000000E-01  8.50000000E-01
  8.50000000E-01  8.50000000E-01  8.50000000E-01  8.50000000E-01  8.50000000E-01
  8.50000000E-01  8.50000000E-01  8.50000000E-01  8.50000000E-01  8.50000000E-01
  8.50000000E-01  8.50000000E-01  8.50000000E-01  8.50000000E-01  8.50000000E-01
  8.50000000E-01  8.50000000E-01  8.50000000E-01  8.50000000E-01  8.50000000E-01
  8.50000000E-01  8.50000000E-01  8.50000000E-01  8.50000000E-01  8.50000000E-01
  8.50000000E-01  8.50000000E-01  8.50000000E-01  8.50000000E-01  8.50000000E-01
  8.50000000E-01  8.50000000E-01  8.50000000E-01  8.50000000E-01  8.50000000E-01
  8.50000000E-01  8.50000000E-01  8.50000000E-01  8.50000000E-01  8.50000000E-01
  8.50000000E-01  8.50000000E-01  8.50000000E-01  8.50000000E-01  8.50000000E-01
  8.50000000E-01  8.50000000E-01  8.50000000E-01  8.50000000E-01  8.50000000E-01
  8.50000000E-01  8.50000000E-01  8.50000000E-01  8.50000000E-01  8.50000000E-01
  8.50000000E-01  8.50000000E-01  8.50000000E-01  8.50000000E-01  8.50000000E-01
  8.50000000E-01  8.50000000E-01  8.50000000E-01  8.50000000E-01  8.50000000E-01
  8.50000000E-01  8.50000000E-01  8.50000000E-01  8.50000000E-01  8.50000000E-01
  8.50000000E-01  8.50000000E-01  8.50000000E-01  8.50000000E-01  8.50000000E-01
  8.50000000E-01  8.50000000E-01  8.50000000E-01  8.50000000E-01  8.50000000E-01
  8.50000000E-01  8.50000000E-01  8.50000000E-01  8.50000000E-01  8.50000000E-01
  8.50000000E-01  8.50000000E-01  8.50000000E-01  8.50000000E-01  8.50000000E-01
  8.50000000E-01  8.50000000E-01  8.50000000E-01  8.50000000E-01  8.50000000E-01
  8.50000000E-01  8.50000000E-01  8.50000000E-01  8.50000000E-01  8.50000000E-01
  8.50000000E-01  8.50000000E-01  8.50000000E-01  8.50000000E-01  8.50000000E-01
  8.50000000E-01  8.50000000E-01  8.50000000E-01  8.50000000E-01  8.50000000E-01
  8.50000000E-01  8.50000000E-01  8.50000000E-01  8.50000000E-01  8.50000000E-01
  8.50000000E-01  8.50000000E-01  8.50000000E-01  8.50000000E-01  8.50000000E-01
  8.50000000E-01  8.50000000E-01  8.50000000E-01  8.50000000E-01  8.50000000E-01
  8.50000000E-01  8.50000000E-01  8.50000000E-01  8.50000000E-01  8.50000000E-01
  8.50000000E-01  8.50000000E-01  8.50000000E-01  8.50000000E-01  8.50000000E-01
  8.50000000E-01  8.50000000E-01  8.50000000E-01  8.50000000E-01  8.50000000E-01
  8.50000000E-01  8.50000000E-01  8.50000000E-01  8.50000000E-01  8.50000000E-01
  8.50000000E-01  8.50000000E-01  8.50000000E-01  8.50000000E-01  8.50000000E-01
  8.50000000E-01  8.50000000E-01  8.50000000E-01  8.50000000E-01  8.50000000E-01
  8.50000000E-01  8.50000000E-01  8.50000000E-01  8.50000000E-01  8.50000000E-01
  8.50000000E-01  8.50000000E-01  8.50000000E-01  8.50000000E-01  8.50000000E-01
  8.50000000E-01  8.50000000E-01  8.50000000E-01  8.50000000E-01  8.50000000E-01
  8.50000000E-01  8.50000000E-01  8.50000000E-01  8.50000000E-01  8.50000000E-01
  8.50000000E-01  8.50000000E-01  8.50000000E-01  8.50000000E-01  8.50000000E-01
  8.50000000E-01  8.50000000E-01  8.50000000E-01  8.50000000E-01  8.50000000E-01
  8.50000000E-01  8.50000000E-01  8.50000000E-01  8.50000000E-01  8.50000000E-01
  8.50000000E-01  8.50000000E-01  8.50000000E-01  8.50000000E-01  8.50000000E-01
  8.50000000E-01  8.50000000E-01  8.50000000E-01  8.50000000E-01  8.50000000E-01
  8.50000000E-01  8.50000000E-01  8.50000000E-01  8.50000000E-01  8.50000000E-01
  8.50000000E-01  8.50000000E-01  8.50000000E-01  8.50000000E-01  8.50000000E-01
  8.50000000E-01  8.50000000E-01  8.50000000E-01  8.50000000E-01  8.50000000E-01
  8.50000000E-01  8.50000000E-01  8.50000000E-01  8.50000000E-01  8.50000000E-01
  8.50000000E-01  8.50000000E-01  8.50000000E-01  8.50000000E-01  8.50000000E-01
  8.50000000E-01  8.50000000E-01  8.50000000E-01  8.50000000E-01  8.50000000E-01
  8.50000000E-01  8.50000000E-01  8.50000000E-01  8.50000000E-01  8.50000000E-01
  8.50000000E-01  8.50000000E-01  8.50000000E-01  8.50000000E-01  8.50000000E-01
  8.50000000E-01  8.50000000E-01  8.50000000E-01  8.50000000E-01  8.50000000E-01
  8.50000000E-01  8.50000000E-01  8.50000000E-01  8.50000000E-01  8.50000000E-01
  8.50000000E-01  8.50000000E-01  8.50000000E-01  8.50000000E-01  8.50000000E-01
  8.50000000E-01  8.50000000E-01  8.50000000E-01  8.50000000E-01  8.50000000E-01
  8.50000000E-01  8.50000000E-01  8.50000000E-01  8.50000000E-01  8.50000000E-01
  8.50000000E-01  8.50000000E-01  8.50000000E-01  8.50000000E-01  8.50000000E-01
  8.50000000E-01  8.50000000E-01  8.50000000E-01  8.50000000E-01  8.50000000E-01
  8.50000000E-01  8.50000000E-01  8.50000000E-01  8.50000000E-01  8.50000000E-01
  8.50000000E-01  8.50000000E-01  8.50000000E-01  8.50000000E-01  8.50000000E-01
  8.50000000E-01  8.50000000E-01  8.50000000E-01  8.50000000E-01  8.50000000E-01
  8.50000000E-01  8.50000000E-01  8.50000000E-01  8.50000000E-01  8.50000000E-01
  8.50000000E-01  8.50000000E-01  8.50000000E-01  8.50000000E-01  8.50000000E-01
  8.50000000E-01  8.50000000E-01  8.50000000E-01  8.50000000E-01  8.50000000E-01
  8.50000000E-01  8.50000000E-01  8.50000000E-01  8.50000000E-01  8.50000000E-01
  8.50000000E-01  8.50000000E-01  8.50000000E-01  8.50000000E-01  8.50000000E-01
  8.50000000E-01  8.50000000E-01  8.50000000E-01  8.50000000E-01  8.50000000E-01
  8.50000000E-01  8.50000000E-01  8.50000000E-01  8.50000000E-01  8.50000000E-01
  8.50000000E-01  8.50000000E-01  8.50000000E-01  8.50000000E-01  8.50000000E-01
  8.50000000E-01  8.50000000E-01  8.50000000E-01  8.50000000E-01  8.50000000E-01
  8.50000000E-01  8.50000000E-01  8.50000000E-01  8.50000000E-01  8.50000000E-01
  8.50000000E-01  8.50000000E-01  8.50000000E-01  8.50000000E-01  8.50000000E-01
  8.50000000E-01  8.50000000E-01  8.50000000E-01  8.50000000E-01  8.50000000E-01
  8.50000000E-01  8.50000000E-01  8.50000000E-01  8.50000000E-01  8.50000000E-01
  8.50000000E-01  8.50000000E-01  8.50000000E-01  8.50000000E-01  8.50000000E-01
  8.50000000E-01  8.50000000E-01  8.50000000E-01  8.50000000E-01  8.50000000E-01
  8.50000000E-01  8.50000000E-01  8.50000000E-01  8.50000000E-01  8.50000000E-01
  8.50000000E-01  8.50000000E-01  8.50000000E-01  8.50000000E-01  8.50000000E-01
  8.50000000E-01  8.50000000E-01  8.50000000E-01  8.50000000E-01  8.50000000E-01
  8.50000000E-01  8.50000000E-01  8.50000000E-01  8.50000000E-01  8.50000000E-01
  8.50000000E-01  8.50000000E-01  8.50000000E-01  8.50000000E-01  8.50000000E-01
  8.50000000E-01  8.50000000E-01  8.50000000E-01  8.50000000E-01  8.50000000E-01
  8.50000000E-01  8.50000000E-01  8.50000000E-01  8.50000000E-01  8.50000000E-01
  8.50000000E-01  8.50000000E-01  8.50000000E-01  8.50000000E-01  8.50000000E-01
  8.50000000E-01  8.50000000E-01  8.50000000E-01  8.50000000E-01  8.50000000E-01
  8.50000000E-01  8.50000000E-01  8.50000000E-01  8.50000000E-01  8.50000000E-01
  8.50000000E-01  8.50000000E-01  8.50000000E-01  8.50000000E-01  8.50000000E-01
  8.50000000E-01  8.50000000E-01  8.50000000E-01  8.50000000E-01  8.50000000E-01
  8.50000000E-01  8.50000000E-01  8.50000000E-01  8.50000000E-01  8.50000000E-01
  8.50000000E-01  8.50000000E-01  8.50000000E-01  8.50000000E-01  8.50000000E-01
  8.50000000E-01  8.50000000E-01  8.50000000E-01  8.50000000E-01  8.50000000E-01
  8.50000000E-01  8.50000000E-01  8.50000000E-01  8.50000000E-01  8.50000000E-01
  8.50000000E-01  8.50000000E-01  8.50000000E-01  8.50000000E-01  8.50000000E-01
  8.50000000E-01  8.50000000E-01  8.50000000E-01  8.50000000E-01  8.50000000E-01
  8.50000000E-01  8.50000000E-01  8.50000000E-01  8.50000000E-01  8.50000000E-01
  8.50000000E-01  8.50000000E-01  8.50000000E-01  8.50000000E-01  8.50000000E-01
  8.50000000E-01  8.50000000E-01  8.50000000E-01  8.50000000E-01  8.50000000E-01
  8.50000000E-01  8.50000000E-01  8.50000000E-01  8.50000000E-01  8.50000000E-01
  8.50000000E-01  8.50000000E-01  8.50000000E-01  8.50000000E-01  8.50000000E-01
  8.50000000E-01  8.50000000E-01  8.50000000E-01  8.50000000E-01  8.50000000E-01
  8.50000000E-01  8.50000000E-01  8.50000000E-01  8.50000000E-01  8.50000000E-01
  8.50000000E-01  8.50000000E-01  8.50000000E-01  8.50000000E-01  8.50000000E-01
  8.50000000E-01  8.50000000E-01  8.50000000E-01  8.50000000E-01  8.50000000E-01
  8.50000000E-01  8.50000000E-01  8.50000000E-01  8.50000000E-01  8.50000000E-01
  8.50000000E-01  8.50000000E-01  8.50000000E-01  8.50000000E-01  8.50000000E-01
  8.50000000E-01  8.50000000E-01  8.50000000E-01  8.50000000E-01  8.50000000E-01
  8.50000000E-01  8.50000000E-01  8.50000000E-01  8.50000000E-01  8.50000000E-01
  8.50000000E-01  8.50000000E-01  8.50000000E-01  8.50000000E-01  8.50000000E-01
  8.50000000E-01  8.50000000E-01  8.50000000E-01  8.50000000E-01  8.50000000E-01
  8.50000000E-01  8.50000000E-01  8.50000000E-01  8.50000000E-01  8.50000000E-01
  8.50000000E-01  8.50000000E-01  8.50000000E-01  8.50000000E-01  8.50000000E-01
  8.50000000E-01  8.50000000E-01  8.50000000E-01  8.50000000E-01  8.50000000E-01
  8.50000000E-01  8.50000000E-01  8.50000000E-01  8.50000000E-01  8.50000000E-01
  8.50000000E-01  8.50000000E-01  8.50000000E-01  8.50000000E-01  8.50000000E-01
  8.50000000E-01  8.50000000E-01  8.50000000E-01  8.50000000E-01  8.50000000E-01
  8.50000000E-01  8.50000000E-01  8.50000000E-01  8.50000000E-01  8.50000000E-01
  8.50000000E-01  8.50000000E-01  8.50000000E-01  8.50000000E-01  8.50000000E-01
  8.50000000E-01  8.50000000E-01  8.50000000E-01  8.50000000E-01  8.50000000E-01
  8.50000000E-01  8.50000000E-01  8.50000000E-01  8.50000000E-01  8.50000000E-01
  8.50000000E-01  8.50000000E-01  8.50000000E-01  8.50000000E-01  8.50000000E-01
  8.50000000E-01  8.50000000E-01  8.50000000E-01  8.50000000E-01  8.50000000E-01
  8.50000000E-01  8.50000000E-01  8.50000000E-01  8.50000000E-01  8.50000000E-01
  8.50000000E-01  8.50000000E-01  8.50000000E-01  8.50000000E-01  8.50000000E-01
  8.50000000E-01  8.50000000E-01  8.50000000E-01  8.50000000E-01  8.50000000E-01
  8.50000000E-01  8.50000000E-01  8.50000000E-01  8.50000000E-01  8.50000000E-01
  8.50000000E-01  8.50000000E-01  8.50000000E-01  8.50000000E-01  8.50000000E-01
  8.50000000E-01  8.50000000E-01  8.50000000E-01  8.50000000E-01  8.50000000E-01
  8.50000000E-01  8.50000000E-01  8.50000000E-01  8.50000000E-01  8.50000000E-01
  8.50000000E-01  8.50000000E-01  8.50000000E-01  8.50000000E-01  8.50000000E-01
  8.50000000E-01  8.50000000E-01  8.50000000E-01  8.50000000E-01  8.50000000E-01
  8.50000000E-01  8.50000000E-01  8.50000000E-01  8.50000000E-01  8.50000000E-01
  8.50000000E-01  8.50000000E-01  8.50000000E-01  8.50000000E-01  8.50000000E-01
  8.50000000E-01  8.50000000E-01  8.50000000E-01  8.50000000E-01  8.50000000E-01
  8.50000000E-01  8.50000000E-01  8.50000000E-01  8.50000000E-01  8.50000000E-01
  8.50000000E-01  8.50000000E-01  8.50000000E-01  8.50000000E-01  8.50000000E-01
  8.50000000E-01  8.50000000E-01  8.50000000E-01  8.50000000E-01  8.50000000E-01
  8.50000000E-01  8.50000000E-01  8.50000000E-01  8.50000000E-01  8.50000000E-01
  8.50000000E-01  8.50000000E-01  8.50000000E-01  8.50000000E-01  8.50000000E-01
  8.50000000E-01  8.50000000E-01  8.50000000E-01  8.50000000E-01  8.50000000E-01
  8.50000000E-01  8.50000000E-01  8.50000000E-01  8.50000000E-01  8.50000000E-01
  8.50000000E-01  8.50000000E-01  8.50000000E-01  8.50000000E-01  8.50000000E-01
  8.50000000E-01  8.50000000E-01  8.50000000E-01  8.50000000E-01  8.50000000E-01
  8.50000000E-01  8.50000000E-01  8.50000000E-01  8.50000000E-01  8.50000000E-01
  8.50000000E-01  8.50000000E-01  8.50000000E-01  8.50000000E-01  8.50000000E-01
  8.50000000E-01  8.50000000E-01  8.50000000E-01  8.50000000E-01  8.50000000E-01
  8.50000000E-01  8.50000000E-01  8.50000000E-01  8.50000000E-01  8.50000000E-01
  8.50000000E-01  8.50000000E-01  8.50000000E-01  8.50000000E-01  8.50000000E-01
  8.50000000E-01  8.50000000E-01  8.50000000E-01  8.50000000E-01  8.50000000E-01
  8.50000000E-01  8.50000000E-01  8.50000000E-01  8.50000000E-01  8.50000000E-01
  8.50000000E-01  8.50000000E-01  8.50000000E-01  8.50000000E-01  8.50000000E-01
  8.50000000E-01  8.50000000E-01  8.50000000E-01  8.50000000E-01  8.50000000E-01
  8.50000000E-01  8.50000000E-01  8.50000000E-01  8.50000000E-01  8.50000000E-01
  8.50000000E-01  8.50000000E-01  8.50000000E-01  8.50000000E-01  8.50000000E-01
  8.50000000E-01  8.50000000E-01  8.50000000E-01  8.50000000E-01  8.50000000E-01
  8.50000000E-01  8.50000000E-01  8.50000000E-01  8.50000000E-01  8.50000000E-01
  8.50000000E-01  8.50000000E-01  8.50000000E-01  8.50000000E-01  8.50000000E-01
  8.50000000E-01  8.50000000E-01  8.50000000E-01  8.50000000E-01  8.50000000E-01
  8.50000000E-01  8.50000000E-01  8.50000000E-01  8.50000000E-01  8.50000000E-01
  8.50000000E-01  8.50000000E-01  8.50000000E-01  8.50000000E-01  8.50000000E-01
  8.50000000E-01  8.50000000E-01  8.50000000E-01  8.50000000E-01  8.50000000E-01
  8.50000000E-01  8.50000000E-01  8.50000000E-01  8.50000000E-01  8.50000000E-01
  8.50000000E-01  8.50000000E-01  8.50000000E-01  8.50000000E-01  8.50000000E-01
  8.50000000E-01  8.50000000E-01  8.50000000E-01  8.50000000E-01  8.50000000E-01
  8.50000000E-01  8.50000000E-01  8.50000000E-01  8.50000000E-01  8.50000000E-01
  8.50000000E-01  8.50000000E-01  8.50000000E-01  8.50000000E-01  8.50000000E-01
  8.50000000E-01  8.50000000E-01  8.50000000E-01  8.50000000E-01  8.50000000E-01
  8.50000000E-01  8.50000000E-01  8.50000000E-01  8.50000000E-01  8.50000000E-01
  8.50000000E-01  8.50000000E-01  8.50000000E-01  8.50000000E-01  8.50000000E-01
  8.50000000E-01  8.50000000E-01  8.50000000E-01  8.50000000E-01  8.50000000E-01
  8.50000000E-01  8.50000000E-01  8.50000000E-01  8.50000000E-01  8.50000000E-01
  8.50000000E-01  8.50000000E-01  8.50000000E-01  8.50000000E-01  8.50000000E-01
  8.50000000E-01  8.50000000E-01  8.50000000E-01  8.50000000E-01  8.50000000E-01
  8.50000000E-01  8.50000000E-01  8.50000000E-01  8.50000000E-01  8.50000000E-01
  8.50000000E-01  8.50000000E-01  8.50000000E-01  8.50000000E-01  8.50000000E-01
  8.50000000E-01  8.50000000E-01  8.50000000E-01  8.50000000E-01  8.50000000E-01
  8.50000000E-01  8.50000000E-01  8.50000000E-01  8.50000000E-01  8.50000000E-01
  8.50000000E-01  8.50000000E-01  8.50000000E-01  8.50000000E-01  8.50000000E-01
  8.50000000E-01  8.50000000E-01  8.50000000E-01  8.50000000E-01  8.50000000E-01
  8.50000000E-01  8.50000000E-01  8.50000000E-01  8.50000000E-01  8.50000000E-01
  8.50000000E-01  8.50000000E-01  8.50000000E-01  8.50000000E-01  8.50000000E-01
  8.50000000E-01  8.50000000E-01  8.50000000E-01  8.50000000E-01  8.50000000E-01
  8.50000000E-01  8.50000000E-01  8.50000000E-01  8.50000000E-01  8.50000000E-01
  8.50000000E-01  8.50000000E-01  8.50000000E-01  8.50000000E-01  8.50000000E-01
  8.50000000E-01  8.50000000E-01  8.50000000E-01  8.50000000E-01  8.50000000E-01
  8.50000000E-01  8.50000000E-01  8.50000000E-01  8.50000000E-01  8.50000000E-01
  8.50000000E-01  8.50000000E-01  8.50000000E-01  8.50000000E-01  8.50000000E-01
  8.50000000E-01  8.50000000E-01  8.50000000E-01  8.50000000E-01  8.50000000E-01
  8.50000000E-01  8.50000000E-01  8.50000000E-01  8.50000000E-01  8.50000000E-01
  8.50000000E-01  8.50000000E-01  8.50000000E-01  8.50000000E-01  8.50000000E-01
  8.50000000E-01  8.50000000E-01  8.50000000E-01  8.50000000E-01  8.50000000E-01
  8.50000000E-01  8.50000000E-01  8.50000000E-01  8.50000000E-01  8.50000000E-01
  8.50000000E-01  8.50000000E-01  8.50000000E-01  8.50000000E-01  8.50000000E-01
  8.50000000E-01  8.50000000E-01  8.50000000E-01  8.50000000E-01  8.50000000E-01
  8.50000000E-01  8.50000000E-01  8.50000000E-01  8.50000000E-01  8.50000000E-01
  8.50000000E-01  8.50000000E-01  8.50000000E-01  8.50000000E-01  8.50000000E-01
  8.50000000E-01  8.50000000E-01  8.50000000E-01  8.50000000E-01  8.50000000E-01
  8.50000000E-01  8.50000000E-01  8.50000000E-01  8.50000000E-01  8.50000000E-01
  8.50000000E-01  8.50000000E-01  8.50000000E-01  8.50000000E-01  8.50000000E-01
  8.50000000E-01  8.50000000E-01  8.50000000E-01  8.50000000E-01  8.50000000E-01
  8.50000000E-01  8.50000000E-01  8.50000000E-01  8.50000000E-01  8.50000000E-01
  8.50000000E-01  8.50000000E-01  8.50000000E-01  8.50000000E-01  8.50000000E-01
  8.50000000E-01  8.50000000E-01  8.50000000E-01  8.50000000E-01  8.50000000E-01
  8.50000000E-01  8.50000000E-01  8.50000000E-01  8.50000000E-01  8.50000000E-01
  8.50000000E-01  8.50000000E-01  8.50000000E-01  8.50000000E-01  8.50000000E-01
  8.50000000E-01  8.50000000E-01  8.50000000E-01  8.50000000E-01  8.50000000E-01
  8.50000000E-01  8.50000000E-01  8.50000000E-01  8.50000000E-01  8.50000000E-01
  8.50000000E-01  8.50000000E-01  8.50000000E-01  8.50000000E-01  8.50000000E-01
  8.50000000E-01  8.50000000E-01  8.50000000E-01  8.50000000E-01  8.50000000E-01
  8.50000000E-01  8.50000000E-01  8.50000000E-01  8.50000000E-01  8.50000000E-01
  8.50000000E-01  8.50000000E-01  8.50000000E-01  8.50000000E-01  8.50000000E-01
  8.50000000E-01  8.50000000E-01  8.50000000E-01  8.50000000E-01  8.50000000E-01
  8.50000000E-01  8.50000000E-01  8.50000000E-01  8.50000000E-01  8.50000000E-01
  8.50000000E-01  8.50000000E-01  8.50000000E-01  8.50000000E-01  8.50000000E-01
  8.50000000E-01  8.50000000E-01  8.50000000E-01  8.50000000E-01  8.50000000E-01
  8.50000000E-01  8.50000000E-01  8.50000000E-01  8.50000000E-01  8.50000000E-01
  8.50000000E-01  8.50000000E-01  8.50000000E-01  8.50000000E-01  8.50000000E-01
  8.50000000E-01  8.50000000E-01  8.50000000E-01  8.50000000E-01  8.50000000E-01
  8.50000000E-01  8.50000000E-01  8.50000000E-01  8.50000000E-01  8.50000000E-01
  8.50000000E-01  8.50000000E-01  8.50000000E-01  8.50000000E-01  8.50000000E-01
  8.50000000E-01  8.50000000E-01  8.50000000E-01  8.50000000E-01  8.50000000E-01
  8.50000000E-01  8.50000000E-01  8.50000000E-01  8.50000000E-01  8.50000000E-01
  8.50000000E-01  8.50000000E-01  8.50000000E-01  8.50000000E-01  8.50000000E-01
  8.50000000E-01  8.50000000E-01  8.50000000E-01  8.50000000E-01  8.50000000E-01
  8.50000000E-01  8.50000000E-01  8.50000000E-01  8.50000000E-01  8.50000000E-01
  8.50000000E-01  8.50000000E-01  8.50000000E-01  8.50000000E-01  8.50000000E-01
  8.50000000E-01  8.50000000E-01  8.50000000E-01  8.50000000E-01  8.50000000E-01
  8.50000000E-01  8.50000000E-01  8.50000000E-01  8.50000000E-01  8.50000000E-01
  8.50000000E-01  8.50000000E-01  8.50000000E-01  8.50000000E-01  8.50000000E-01
  8.50000000E-01  8.50000000E-01  8.50000000E-01  8.50000000E-01  8.50000000E-01
  8.50000000E-01  8.50000000E-01  8.50000000E-01  8.50000000E-01  8.50000000E-01
  8.50000000E-01  8.50000000E-01  8.50000000E-01  8.50000000E-01  8.50000000E-01
  8.50000000E-01  8.50000000E-01  8.50000000E-01  8.50000000E-01  8.50000000E-01
  8.50000000E-01  8.50000000E-01  8.50000000E-01  8.50000000E-01  8.50000000E-01
  8.50000000E-01  8.50000000E-01  8.50000000E-01  8.50000000E-01  8.50000000E-01
  8.50000000E-01  8.50000000E-01  8.50000000E-01  8.50000000E-01  8.50000000E-01
  8.50000000E-01  8.50000000E-01  8.50000000E-01  8.50000000E-01  8.50000000E-01
  8.50000000E-01  8.50000000E-01  8.50000000E-01  8.50000000E-01  8.50000000E-01
  8.50000000E-01  8.50000000E-01  8.50000000E-01  8.50000000E-01  8.50000000E-01
  8.50000000E-01  8.50000000E-01  8.50000000E-01  8.50000000E-01  8.50000000E-01
  8.50000000E-01  8.50000000E-01  8.50000000E-01  8.50000000E-01  8.50000000E-01
  8.50000000E-01  8.50000000E-01  8.50000000E-01  8.50000000E-01  8.50000000E-01
  8.50000000E-01  8.50000000E-01  8.50000000E-01  8.50000000E-01  8.50000000E-01
  8.50000000E-01  8.50000000E-01  8.50000000E-01  8.50000000E-01  8.50000000E-01
  8.50000000E-01  8.50000000E-01  8.50000000E-01  8.50000000E-01  8.50000000E-01
  8.50000000E-01  8.50000000E-01  8.50000000E-01  8.50000000E-01  8.50000000E-01
  8.50000000E-01  8.50000000E-01  8.50000000E-01  8.50000000E-01  8.50000000E-01
  8.50000000E-01  8.50000000E-01  8.50000000E-01  8.50000000E-01  8.50000000E-01
  8.50000000E-01  8.50000000E-01  8.50000000E-01  8.50000000E-01  8.50000000E-01
  8.50000000E-01  8.50000000E-01  8.50000000E-01  8.50000000E-01  8.50000000E-01
  8.50000000E-01  8.50000000E-01  8.50000000E-01  8.50000000E-01  8.50000000E-01
  8.50000000E-01  8.50000000E-01  8.50000000E-01  8.50000000E-01  8.50000000E-01
  8.50000000E-01  8.50000000E-01  8.50000000E-01  8.50000000E-01  8.50000000E-01
  8.50000000E-01  8.50000000E-01  8.50000000E-01  8.50000000E-01  8.50000000E-01
  8.50000000E-01  8.50000000E-01  8.50000000E-01  8.50000000E-01  8.50000000E-01
  8.50000000E-01  8.50000000E-01  8.50000000E-01  8.50000000E-01  8.50000000E-01
  8.50000000E-01  8.50000000E-01  8.50000000E-01  8.50000000E-01  8.50000000E-01
  8.50000000E-01  8.50000000E-01  8.50000000E-01  8.50000000E-01  8.50000000E-01
  8.50000000E-01  8.50000000E-01  8.50000000E-01  8.50000000E-01  8.50000000E-01
  8.50000000E-01  8.50000000E-01  8.50000000E-01  8.50000000E-01  8.50000000E-01
  8.50000000E-01  8.50000000E-01  8.50000000E-01  8.50000000E-01  8.50000000E-01
  8.50000000E-01  8.50000000E-01  8.50000000E-01  8.50000000E-01  8.50000000E-01
  8.50000000E-01  8.50000000E-01  8.50000000E-01  8.50000000E-01  8.50000000E-01
  8.50000000E-01  8.50000000E-01  8.50000000E-01  8.50000000E-01  8.50000000E-01
  8.50000000E-01  8.50000000E-01  8.50000000E-01  8.50000000E-01  8.50000000E-01
  8.50000000E-01  8.50000000E-01  8.50000000E-01  8.50000000E-01  8.50000000E-01
  8.50000000E-01  8.50000000E-01  8.50000000E-01  8.50000000E-01  8.50000000E-01
  8.50000000E-01  8.50000000E-01  8.50000000E-01  8.50000000E-01  8.50000000E-01
  8.50000000E-01  8.50000000E-01  8.50000000E-01  8.50000000E-01  8.50000000E-01
  8.50000000E-01  8.50000000E-01  8.50000000E-01  8.50000000E-01  8.50000000E-01
  8.50000000E-01  8.50000000E-01  8.50000000E-01  8.50000000E-01  8.50000000E-01
  8.50000000E-01  8.50000000E-01  8.50000000E-01  8.50000000E-01  8.50000000E-01
  8.50000000E-01  8.50000000E-01  8.50000000E-01  8.50000000E-01  8.50000000E-01
  8.50000000E-01  8.50000000E-01  8.50000000E-01  8.50000000E-01  8.50000000E-01
  8.50000000E-01  8.50000000E-01  8.50000000E-01  8.50000000E-01  8.50000000E-01
  8.50000000E-01  8.50000000E-01  8.50000000E-01  8.50000000E-01  8.50000000E-01
  8.50000000E-01  8.50000000E-01  8.50000000E-01  8.50000000E-01  8.50000000E-01
  8.50000000E-01  8.50000000E-01  8.50000000E-01  8.50000000E-01  8.50000000E-01
  8.50000000E-01  8.50000000E-01  8.50000000E-01  8.50000000E-01  8.50000000E-01
  8.50000000E-01  8.50000000E-01  8.50000000E-01  8.50000000E-01  8.50000000E-01
  8.50000000E-01  8.50000000E-01  8.50000000E-01  8.50000000E-01  8.50000000E-01
  8.50000000E-01  8.50000000E-01  8.50000000E-01  8.50000000E-01  8.50000000E-01
  8.50000000E-01  8.50000000E-01  8.50000000E-01  8.50000000E-01  8.50000000E-01
  8.50000000E-01  8.50000000E-01  8.50000000E-01  8.50000000E-01  8.50000000E-01
  8.50000000E-01  8.50000000E-01  8.50000000E-01  8.50000000E-01  8.50000000E-01
  8.50000000E-01  8.50000000E-01  8.50000000E-01  8.50000000E-01  8.50000000E-01
  8.50000000E-01  8.50000000E-01  8.50000000E-01  8.50000000E-01  8.50000000E-01
  8.50000000E-01  8.50000000E-01  8.50000000E-01  8.50000000E-01  8.50000000E-01
  8.50000000E-01  8.50000000E-01  8.50000000E-01  8.50000000E-01  8.50000000E-01
  8.50000000E-01  8.50000000E-01  8.50000000E-01  8.50000000E-01  8.50000000E-01
  8.50000000E-01  8.50000000E-01  8.50000000E-01  8.50000000E-01  8.50000000E-01
  8.50000000E-01  8.50000000E-01  8.50000000E-01  8.50000000E-01  8.50000000E-01
  8.50000000E-01  8.50000000E-01  8.50000000E-01  8.50000000E-01  8.50000000E-01
  8.50000000E-01  8.50000000E-01  8.50000000E-01  8.50000000E-01  8.50000000E-01
  8.50000000E-01  8.50000000E-01  8.50000000E-01  8.50000000E-01  8.50000000E-01
  8.50000000E-01  8.50000000E-01  8.50000000E-01  8.50000000E-01  8.50000000E-01
  8.50000000E-01  8.50000000E-01  8.50000000E-01  8.50000000E-01  8.50000000E-01
  8.50000000E-01  8.50000000E-01  8.50000000E-01  8.50000000E-01  8.50000000E-01
  8.50000000E-01  8.50000000E-01  8.50000000E-01  8.50000000E-01  8.50000000E-01
  8.50000000E-01  8.50000000E-01  8.50000000E-01  8.50000000E-01  8.50000000E-01
  8.50000000E-01  8.50000000E-01  8.50000000E-01  8.50000000E-01  8.50000000E-01
  8.50000000E-01  8.50000000E-01  8.50000000E-01  8.50000000E-01  8.50000000E-01
  8.50000000E-01  8.50000000E-01  8.50000000E-01  8.50000000E-01  8.50000000E-01
  8.50000000E-01  8.50000000E-01  8.50000000E-01  8.50000000E-01  8.50000000E-01
  8.50000000E-01  8.50000000E-01  8.50000000E-01  8.50000000E-01  8.50000000E-01
  8.50000000E-01  8.50000000E-01  8.50000000E-01  8.50000000E-01  8.50000000E-01
  8.50000000E-01  8.50000000E-01  8.50000000E-01  8.50000000E-01  8.50000000E-01
  8.50000000E-01  8.50000000E-01  8.50000000E-01  8.50000000E-01  8.50000000E-01
  8.50000000E-01  8.50000000E-01  8.50000000E-01  8.50000000E-01  8.50000000E-01
  8.50000000E-01  8.50000000E-01  8.50000000E-01  8.50000000E-01  8.50000000E-01
  8.50000000E-01  8.50000000E-01  8.50000000E-01  8.50000000E-01  8.50000000E-01
  8.50000000E-01  8.50000000E-01  8.50000000E-01  8.50000000E-01  8.50000000E-01
  8.50000000E-01  8.50000000E-01  8.50000000E-01  8.50000000E-01  8.50000000E-01
  8.50000000E-01  8.50000000E-01  8.50000000E-01  8.50000000E-01  8.50000000E-01
  8.50000000E-01  8.50000000E-01  8.50000000E-01  8.50000000E-01  8.50000000E-01
  8.50000000E-01  8.50000000E-01  8.50000000E-01  8.50000000E-01  8.50000000E-01
  8.50000000E-01  8.50000000E-01  8.50000000E-01  8.50000000E-01  8.50000000E-01
  8.50000000E-01  8.50000000E-01  8.50000000E-01  8.50000000E-01  8.50000000E-01
  8.50000000E-01  8.50000000E-01  8.50000000E-01  8.50000000E-01  8.50000000E-01
  8.50000000E-01  8.50000000E-01  8.50000000E-01  8.50000000E-01  8.50000000E-01
  8.50000000E-01  8.50000000E-01  8.50000000E-01  8.50000000E-01  8.50000000E-01
  8.50000000E-01  8.50000000E-01  8.50000000E-01  8.50000000E-01  8.50000000E-01
  8.50000000E-01  8.50000000E-01  8.50000000E-01  8.50000000E-01  8.50000000E-01
  8.50000000E-01  8.50000000E-01  8.50000000E-01  8.50000000E-01  8.50000000E-01
  8.50000000E-01  8.50000000E-01  8.50000000E-01  8.50000000E-01  8.50000000E-01
  8.50000000E-01  8.50000000E-01  8.50000000E-01  8.50000000E-01  8.50000000E-01
  8.50000000E-01  8.50000000E-01  8.50000000E-01  8.50000000E-01  8.50000000E-01
  8.50000000E-01  8.50000000E-01  8.50000000E-01  8.50000000E-01  8.50000000E-01
  8.50000000E-01  8.50000000E-01  8.50000000E-01  8.50000000E-01  8.50000000E-01
  8.50000000E-01  8.50000000E-01  8.50000000E-01  8.50000000E-01  8.50000000E-01
  8.50000000E-01  8.50000000E-01  8.50000000E-01  8.50000000E-01  8.50000000E-01
  8.50000000E-01  8.50000000E-01  8.50000000E-01  8.50000000E-01  8.50000000E-01
  8.50000000E-01  8.50000000E-01  8.50000000E-01  8.50000000E-01  8.50000000E-01
  8.50000000E-01  8.50000000E-01  8.50000000E-01  8.50000000E-01  8.50000000E-01
  8.50000000E-01  8.50000000E-01  8.50000000E-01  8.50000000E-01  8.50000000E-01
  8.50000000E-01  8.50000000E-01  8.50000000E-01  8.50000000E-01  8.50000000E-01
  8.50000000E-01  8.50000000E-01  8.50000000E-01  8.50000000E-01  8.50000000E-01
  8.50000000E-01  8.50000000E-01  8.50000000E-01  8.50000000E-01  8.50000000E-01
  8.50000000E-01  8.50000000E-01  8.50000000E-01  8.50000000E-01  8.50000000E-01
  8.50000000E-01  8.50000000E-01  8.50000000E-01  8.50000000E-01  8.50000000E-01
  8.50000000E-01  8.50000000E-01  8.50000000E-01  8.50000000E-01  8.50000000E-01
  8.50000000E-01  8.50000000E-01  8.50000000E-01  8.50000000E-01  8.50000000E-01
  8.50000000E-01  8.50000000E-01  8.50000000E-01  8.50000000E-01  8.50000000E-01
  8.50000000E-01  8.50000000E-01  8.50000000E-01  8.50000000E-01  8.50000000E-01
  8.50000000E-01  8.50000000E-01  8.50000000E-01  8.50000000E-01  8.50000000E-01
  8.50000000E-01  8.50000000E-01  8.50000000E-01  8.50000000E-01  8.50000000E-01
  8.50000000E-01  8.50000000E-01  8.50000000E-01  8.50000000E-01  8.50000000E-01
  8.50000000E-01  8.50000000E-01  8.50000000E-01  8.50000000E-01  8.50000000E-01
  8.50000000E-01  8.50000000E-01  8.50000000E-01  8.50000000E-01  8.50000000E-01
  8.50000000E-01  8.50000000E-01  8.50000000E-01  8.50000000E-01  8.50000000E-01
  8.50000000E-01  8.50000000E-01  8.50000000E-01  8.50000000E-01  8.50000000E-01
  8.50000000E-01  8.50000000E-01  8.50000000E-01  8.50000000E-01  8.50000000E-01
  8.50000000E-01  8.50000000E-01  8.50000000E-01  8.50000000E-01  8.50000000E-01
  8.50000000E-01  8.50000000E-01  8.50000000E-01  8.50000000E-01  8.50000000E-01
  8.50000000E-01  8.50000000E-01  8.50000000E-01  8.50000000E-01  8.50000000E-01
  8.50000000E-01  8.50000000E-01  8.50000000E-01  8.50000000E-01  8.50000000E-01
  8.50000000E-01  8.50000000E-01  8.50000000E-01  8.50000000E-01  8.50000000E-01
  8.50000000E-01  8.50000000E-01  8.50000000E-01  8.50000000E-01  8.50000000E-01
  8.50000000E-01  8.50000000E-01  8.50000000E-01  8.50000000E-01  8.50000000E-01
  8.50000000E-01  8.50000000E-01  8.50000000E-01  8.50000000E-01  8.50000000E-01
  8.50000000E-01  8.50000000E-01  8.50000000E-01  8.50000000E-01  8.50000000E-01
  8.50000000E-01  8.50000000E-01  8.50000000E-01  8.50000000E-01  8.50000000E-01
  8.50000000E-01  8.50000000E-01  8.50000000E-01  8.50000000E-01  8.50000000E-01
  8.50000000E-01  8.50000000E-01  8.50000000E-01  8.50000000E-01  8.50000000E-01
  8.50000000E-01  8.50000000E-01  8.50000000E-01  8.50000000E-01  8.50000000E-01
  8.50000000E-01  8.50000000E-01  8.50000000E-01  8.50000000E-01  8.50000000E-01
  8.50000000E-01  8.50000000E-01  8.50000000E-01  8.50000000E-01  8.50000000E-01
  8.50000000E-01  8.50000000E-01  8.50000000E-01  8.50000000E-01  8.50000000E-01
  8.50000000E-01  8.50000000E-01  8.50000000E-01  8.50000000E-01  8.50000000E-01
  8.50000000E-01  8.50000000E-01  8.50000000E-01  8.50000000E-01  8.50000000E-01
  8.50000000E-01  8.50000000E-01  8.50000000E-01  8.50000000E-01  8.50000000E-01
  8.50000000E-01  8.50000000E-01  8.50000000E-01  8.50000000E-01  8.50000000E-01
  8.50000000E-01  8.50000000E-01  8.50000000E-01  8.50000000E-01  8.50000000E-01
  8.50000000E-01  8.50000000E-01  8.50000000E-01  8.50000000E-01  8.50000000E-01
  8.50000000E-01  8.50000000E-01  8.50000000E-01  8.50000000E-01  8.50000000E-01
  8.50000000E-01  8.50000000E-01  8.50000000E-01  8.50000000E-01  8.50000000E-01
  8.50000000E-01  8.50000000E-01  8.50000000E-01  8.50000000E-01  8.50000000E-01
  8.50000000E-01  8.50000000E-01  8.50000000E-01  8.50000000E-01  8.50000000E-01
  8.50000000E-01  8.50000000E-01  8.50000000E-01  8.50000000E-01  8.50000000E-01
  8.50000000E-01  8.50000000E-01  8.50000000E-01  8.50000000E-01  8.50000000E-01
  8.50000000E-01  8.50000000E-01  8.50000000E-01  8.50000000E-01  8.50000000E-01
  8.50000000E-01  8.50000000E-01  8.50000000E-01  8.50000000E-01  8.50000000E-01
  8.50000000E-01  8.50000000E-01  8.50000000E-01  8.50000000E-01  8.50000000E-01
  8.50000000E-01  8.50000000E-01  8.50000000E-01  8.50000000E-01  8.50000000E-01
  8.50000000E-01  8.50000000E-01  8.50000000E-01  8.50000000E-01  8.50000000E-01
  8.50000000E-01  8.50000000E-01  8.50000000E-01  8.50000000E-01  8.50000000E-01
  8.50000000E-01  8.50000000E-01  8.50000000E-01  8.50000000E-01  8.50000000E-01
  8.50000000E-01  8.50000000E-01  8.50000000E-01  8.50000000E-01  8.50000000E-01
  8.50000000E-01  8.50000000E-01  8.50000000E-01  8.50000000E-01  8.50000000E-01
  8.50000000E-01  8.50000000E-01  8.50000000E-01  8.50000000E-01  8.50000000E-01
  8.50000000E-01  8.50000000E-01  8.50000000E-01  8.50000000E-01  8.50000000E-01
  8.50000000E-01  8.50000000E-01  8.50000000E-01  8.50000000E-01  8.50000000E-01
  8.50000000E-01  8.50000000E-01  8.50000000E-01  8.50000000E-01  8.50000000E-01
  8.50000000E-01  8.50000000E-01  8.50000000E-01  8.50000000E-01  8.50000000E-01
  8.50000000E-01  8.50000000E-01  8.50000000E-01  8.50000000E-01  8.50000000E-01
  8.50000000E-01  8.50000000E-01  8.50000000E-01  8.50000000E-01  8.50000000E-01
  8.50000000E-01  8.50000000E-01  8.50000000E-01  8.50000000E-01  8.50000000E-01
  8.50000000E-01  8.50000000E-01  8.50000000E-01  8.50000000E-01  8.50000000E-01
  8.50000000E-01  8.50000000E-01  8.50000000E-01  8.50000000E-01  8.50000000E-01
  8.50000000E-01  8.50000000E-01  8.50000000E-01  8.50000000E-01  8.50000000E-01
  8.50000000E-01  8.50000000E-01  8.50000000E-01  8.50000000E-01  8.50000000E-01
  8.50000000E-01  8.50000000E-01  8.50000000E-01  8.50000000E-01  8.50000000E-01
  8.50000000E-01  8.50000000E-01  8.50000000E-01  8.50000000E-01  8.50000000E-01
  8.50000000E-01  8.50000000E-01  8.50000000E-01  8.50000000E-01  8.50000000E-01
  8.50000000E-01  8.50000000E-01  8.50000000E-01  8.50000000E-01  8.50000000E-01
  8.50000000E-01  8.50000000E-01  8.50000000E-01  8.50000000E-01  8.50000000E-01
  8.50000000E-01  8.50000000E-01  8.50000000E-01  8.50000000E-01  8.50000000E-01
  8.50000000E-01  8.50000000E-01  8.50000000E-01  8.50000000E-01  8.50000000E-01
  8.50000000E-01  8.50000000E-01  8.50000000E-01  8.50000000E-01  8.50000000E-01
  8.50000000E-01  8.50000000E-01  8.50000000E-01  8.50000000E-01  8.50000000E-01
  8.50000000E-01  8.50000000E-01  8.50000000E-01  8.50000000E-01  8.50000000E-01
  8.50000000E-01  8.50000000E-01  8.50000000E-01  8.50000000E-01  8.50000000E-01
  8.50000000E-01  8.50000000E-01  8.50000000E-01  8.50000000E-01  8.50000000E-01
  8.50000000E-01  8.50000000E-01  8.50000000E-01  8.50000000E-01  8.50000000E-01
  8.50000000E-01  8.50000000E-01  8.50000000E-01  8.50000000E-01  8.50000000E-01
  8.50000000E-01  8.50000000E-01  8.50000000E-01  8.50000000E-01  8.50000000E-01
  8.50000000E-01  8.50000000E-01  8.50000000E-01  8.50000000E-01  8.50000000E-01
  8.50000000E-01  8.50000000E-01  8.50000000E-01  8.50000000E-01  8.50000000E-01
  8.50000000E-01  8.50000000E-01  8.50000000E-01  8.50000000E-01  8.50000000E-01
  8.50000000E-01  8.50000000E-01  8.50000000E-01  8.50000000E-01  8.50000000E-01
  8.50000000E-01  8.50000000E-01  8.50000000E-01  8.50000000E-01  8.50000000E-01
  8.50000000E-01  8.50000000E-01  8.50000000E-01  8.50000000E-01  8.50000000E-01
  8.50000000E-01  8.50000000E-01  8.50000000E-01  8.50000000E-01  8.50000000E-01
  8.50000000E-01  8.50000000E-01  8.50000000E-01  8.50000000E-01  8.50000000E-01
  8.50000000E-01  8.50000000E-01  8.50000000E-01  8.50000000E-01  8.50000000E-01
  8.50000000E-01  8.50000000E-01  8.50000000E-01  8.50000000E-01  8.50000000E-01
  8.50000000E-01  8.50000000E-01  8.50000000E-01  8.50000000E-01  8.50000000E-01
  8.50000000E-01  8.50000000E-01  8.50000000E-01  8.50000000E-01  8.50000000E-01
  8.50000000E-01  8.50000000E-01  8.50000000E-01  8.50000000E-01  8.50000000E-01
  8.50000000E-01  8.50000000E-01  8.50000000E-01  8.50000000E-01  8.50000000E-01
  8.50000000E-01  8.50000000E-01  8.50000000E-01  8.50000000E-01  8.50000000E-01
  8.50000000E-01  8.50000000E-01  8.50000000E-01  8.50000000E-01  8.50000000E-01
  8.50000000E-01  8.50000000E-01  8.50000000E-01  8.50000000E-01  8.50000000E-01
  8.50000000E-01  8.50000000E-01  8.50000000E-01  8.50000000E-01  8.50000000E-01
  8.50000000E-01  8.50000000E-01  8.50000000E-01  8.50000000E-01  8.50000000E-01
  8.50000000E-01  8.50000000E-01  8.50000000E-01  8.50000000E-01  8.50000000E-01
  8.50000000E-01  8.50000000E-01  8.50000000E-01  8.50000000E-01  8.50000000E-01
  8.50000000E-01  8.50000000E-01  8.50000000E-01  8.50000000E-01  8.50000000E-01
  8.50000000E-01  8.50000000E-01  8.50000000E-01  8.50000000E-01  8.50000000E-01
  8.50000000E-01  8.50000000E-01  8.50000000E-01  8.50000000E-01  8.50000000E-01
  8.50000000E-01  8.50000000E-01  8.50000000E-01  8.50000000E-01  8.50000000E-01
  8.50000000E-01  8.50000000E-01  8.50000000E-01  8.50000000E-01  8.50000000E-01
  8.50000000E-01  8.50000000E-01  8.50000000E-01  8.50000000E-01  8.50000000E-01
  8.50000000E-01  8.50000000E-01  8.50000000E-01  8.50000000E-01  8.50000000E-01
  8.50000000E-01  8.50000000E-01  8.50000000E-01  8.50000000E-01  8.50000000E-01
  8.50000000E-01  8.50000000E-01  8.50000000E-01  8.50000000E-01  8.50000000E-01
  8.50000000E-01  8.50000000E-01  8.50000000E-01  8.50000000E-01  8.50000000E-01
  8.50000000E-01  8.50000000E-01  8.50000000E-01  8.50000000E-01  8.50000000E-01
  8.50000000E-01  8.50000000E-01  8.50000000E-01  8.50000000E-01  8.50000000E-01
  8.50000000E-01  8.50000000E-01  8.50000000E-01  8.50000000E-01  8.50000000E-01
  8.50000000E-01  8.50000000E-01  8.50000000E-01  8.50000000E-01  8.50000000E-01
  8.50000000E-01  8.50000000E-01  8.50000000E-01  8.50000000E-01  8.50000000E-01
  8.50000000E-01  8.50000000E-01  8.50000000E-01  8.50000000E-01  8.50000000E-01
  8.50000000E-01  8.50000000E-01  8.50000000E-01  8.50000000E-01  8.50000000E-01
  8.50000000E-01  8.50000000E-01  8.50000000E-01  8.50000000E-01  8.50000000E-01
  8.50000000E-01  8.50000000E-01  8.50000000E-01  8.50000000E-01  8.50000000E-01
  8.50000000E-01  8.50000000E-01  8.50000000E-01  8.50000000E-01  8.50000000E-01
  8.50000000E-01  8.50000000E-01  8.50000000E-01  8.50000000E-01  8.50000000E-01
  8.50000000E-01  8.50000000E-01  8.50000000E-01  8.50000000E-01  8.50000000E-01
  8.50000000E-01  8.50000000E-01  8.50000000E-01  8.50000000E-01  8.50000000E-01
  8.50000000E-01  8.50000000E-01  8.50000000E-01  8.50000000E-01  8.50000000E-01
  8.50000000E-01  8.50000000E-01  8.50000000E-01  8.50000000E-01  8.50000000E-01
  8.50000000E-01  8.50000000E-01  8.50000000E-01  8.50000000E-01  8.50000000E-01
  8.50000000E-01  8.50000000E-01  8.50000000E-01  8.50000000E-01  8.50000000E-01
  8.50000000E-01  8.50000000E-01  8.50000000E-01  8.50000000E-01  8.50000000E-01
  8.50000000E-01  8.50000000E-01  8.50000000E-01  8.50000000E-01  8.50000000E-01
  8.50000000E-01  8.50000000E-01  8.50000000E-01  8.50000000E-01  8.50000000E-01
  8.50000000E-01  8.50000000E-01  8.50000000E-01  8.50000000E-01  8.50000000E-01
  8.50000000E-01  8.50000000E-01  8.50000000E-01  8.50000000E-01  8.50000000E-01
  8.50000000E-01  8.50000000E-01  8.50000000E-01  8.50000000E-01  8.50000000E-01
  8.50000000E-01  8.50000000E-01  8.50000000E-01  8.50000000E-01  8.50000000E-01
  8.50000000E-01  8.50000000E-01  8.50000000E-01  8.50000000E-01  8.50000000E-01
  8.50000000E-01  8.50000000E-01  8.50000000E-01  8.50000000E-01  8.50000000E-01
  8.50000000E-01  8.50000000E-01  8.50000000E-01  8.50000000E-01  8.50000000E-01
  8.50000000E-01  8.50000000E-01  8.50000000E-01  8.50000000E-01  8.50000000E-01
  8.50000000E-01  8.50000000E-01  8.50000000E-01  8.50000000E-01  8.50000000E-01
  8.50000000E-01  8.50000000E-01  8.50000000E-01  8.50000000E-01  8.50000000E-01
  8.50000000E-01  8.50000000E-01  8.50000000E-01  8.50000000E-01  8.50000000E-01
  8.50000000E-01  8.50000000E-01  8.50000000E-01  8.50000000E-01  8.50000000E-01
  8.50000000E-01  8.50000000E-01  8.50000000E-01  8.50000000E-01  8.50000000E-01
  8.50000000E-01  8.50000000E-01  8.50000000E-01  8.50000000E-01  8.50000000E-01
  8.50000000E-01  8.50000000E-01  8.50000000E-01  8.50000000E-01  8.50000000E-01
  8.50000000E-01  8.50000000E-01  8.50000000E-01  8.50000000E-01  8.50000000E-01
  8.50000000E-01  8.50000000E-01  8.50000000E-01  8.50000000E-01  8.50000000E-01
  8.50000000E-01  8.50000000E-01  8.50000000E-01  8.50000000E-01  8.50000000E-01
  8.50000000E-01  8.50000000E-01  8.50000000E-01  8.50000000E-01  8.50000000E-01
  8.50000000E-01  8.50000000E-01  8.50000000E-01  8.50000000E-01  8.50000000E-01
  8.50000000E-01  8.50000000E-01  8.50000000E-01  8.50000000E-01  8.50000000E-01
  8.50000000E-01  8.50000000E-01  8.50000000E-01  8.50000000E-01  8.50000000E-01
  8.50000000E-01  8.50000000E-01  8.50000000E-01  8.50000000E-01  8.50000000E-01
  8.50000000E-01  8.50000000E-01  8.50000000E-01  8.50000000E-01  8.50000000E-01
  8.50000000E-01  8.50000000E-01  8.50000000E-01  8.50000000E-01  8.50000000E-01
  8.50000000E-01  8.50000000E-01  8.50000000E-01  8.50000000E-01  8.50000000E-01
  8.50000000E-01  8.50000000E-01  8.50000000E-01  8.50000000E-01  8.50000000E-01
  8.50000000E-01  8.50000000E-01  8.50000000E-01  8.50000000E-01  8.50000000E-01
  8.50000000E-01  8.50000000E-01  8.50000000E-01  8.50000000E-01  8.50000000E-01
  8.50000000E-01  8.50000000E-01  8.50000000E-01  8.50000000E-01  8.50000000E-01
  8.50000000E-01  8.50000000E-01  8.50000000E-01  8.50000000E-01  8.50000000E-01
  8.50000000E-01  8.50000000E-01  8.50000000E-01  8.50000000E-01  8.50000000E-01
  8.50000000E-01  8.50000000E-01  8.50000000E-01  8.50000000E-01  8.50000000E-01
  8.50000000E-01  8.50000000E-01  8.50000000E-01  8.50000000E-01  8.50000000E-01
  8.50000000E-01  8.50000000E-01  8.50000000E-01  8.50000000E-01  8.50000000E-01
  8.50000000E-01  8.50000000E-01  8.50000000E-01  8.50000000E-01  8.50000000E-01
  8.50000000E-01  8.50000000E-01  8.50000000E-01  8.50000000E-01  8.50000000E-01
  8.50000000E-01  8.50000000E-01  8.50000000E-01  8.50000000E-01  8.50000000E-01
  8.50000000E-01  8.50000000E-01  8.50000000E-01  8.50000000E-01  8.50000000E-01
  8.50000000E-01  8.50000000E-01  8.50000000E-01  8.50000000E-01  8.50000000E-01
  8.50000000E-01  8.50000000E-01  8.50000000E-01  8.50000000E-01  8.50000000E-01
  8.50000000E-01  8.50000000E-01  8.50000000E-01  8.50000000E-01  8.50000000E-01
  8.50000000E-01  8.50000000E-01  8.50000000E-01  8.50000000E-01  8.50000000E-01
  8.50000000E-01  8.50000000E-01  8.50000000E-01  8.50000000E-01  8.50000000E-01
  8.50000000E-01  8.50000000E-01  8.50000000E-01  8.50000000E-01  8.50000000E-01
  8.50000000E-01  8.50000000E-01  8.50000000E-01  8.50000000E-01  8.50000000E-01
  8.50000000E-01  8.50000000E-01  8.50000000E-01  8.50000000E-01  8.50000000E-01
  8.50000000E-01  8.50000000E-01  8.50000000E-01  8.50000000E-01  8.50000000E-01
  8.50000000E-01  8.50000000E-01  8.50000000E-01  8.50000000E-01  8.50000000E-01
  8.50000000E-01  8.50000000E-01  8.50000000E-01  8.50000000E-01  8.50000000E-01
  8.50000000E-01  8.50000000E-01  8.50000000E-01  8.50000000E-01  8.50000000E-01
  8.50000000E-01  8.50000000E-01  8.50000000E-01  8.50000000E-01  8.50000000E-01
  8.50000000E-01  8.50000000E-01  8.50000000E-01  8.50000000E-01  8.50000000E-01
  8.50000000E-01  8.50000000E-01  8.50000000E-01  8.50000000E-01  8.50000000E-01
  8.50000000E-01  8.50000000E-01  8.50000000E-01  8.50000000E-01  8.50000000E-01
  8.50000000E-01  8.50000000E-01  8.50000000E-01  8.50000000E-01  8.50000000E-01
  8.50000000E-01  8.50000000E-01  8.50000000E-01  8.50000000E-01  8.50000000E-01
  8.50000000E-01  8.50000000E-01  8.50000000E-01  8.50000000E-01  8.50000000E-01
  8.50000000E-01  8.50000000E-01  8.50000000E-01  8.50000000E-01  8.50000000E-01
  8.50000000E-01  8.50000000E-01  8.50000000E-01  8.50000000E-01  8.50000000E-01
  8.50000000E-01  8.50000000E-01  8.50000000E-01  8.50000000E-01  8.50000000E-01
  8.50000000E-01  8.50000000E-01  8.50000000E-01  8.50000000E-01  8.50000000E-01
  8.50000000E-01  8.50000000E-01  8.50000000E-01  8.50000000E-01  8.50000000E-01
  8.50000000E-01  8.50000000E-01  8.50000000E-01  8.50000000E-01  8.50000000E-01
  8.50000000E-01  8.50000000E-01  8.50000000E-01  8.50000000E-01  8.50000000E-01
  8.50000000E-01  8.50000000E-01  8.50000000E-01  8.50000000E-01  8.50000000E-01
  8.50000000E-01  8.50000000E-01  8.50000000E-01  8.50000000E-01  8.50000000E-01
  8.50000000E-01  8.50000000E-01  8.50000000E-01  8.50000000E-01  8.50000000E-01
  8.50000000E-01  8.50000000E-01  8.50000000E-01  8.50000000E-01  8.50000000E-01
  8.50000000E-01  8.50000000E-01  8.50000000E-01  8.50000000E-01  8.50000000E-01
  8.50000000E-01  8.50000000E-01  8.50000000E-01  8.50000000E-01  8.50000000E-01
  8.50000000E-01  8.50000000E-01  8.50000000E-01  8.50000000E-01  8.50000000E-01
  8.50000000E-01  8.50000000E-01  8.50000000E-01  8.50000000E-01  8.50000000E-01
  8.50000000E-01  8.50000000E-01  8.50000000E-01  8.50000000E-01  8.50000000E-01
  8.50000000E-01  8.50000000E-01  8.50000000E-01  8.50000000E-01  8.50000000E-01
  8.50000000E-01  8.50000000E-01  8.50000000E-01  8.50000000E-01  8.50000000E-01
  8.50000000E-01  8.50000000E-01  8.50000000E-01  8.50000000E-01  8.50000000E-01
  8.50000000E-01  8.50000000E-01  8.50000000E-01  8.50000000E-01  8.50000000E-01
  8.50000000E-01  8.50000000E-01  8.50000000E-01  8.50000000E-01  8.50000000E-01
  8.50000000E-01  8.50000000E-01  8.50000000E-01  8.50000000E-01  8.50000000E-01
  8.50000000E-01  8.50000000E-01  8.50000000E-01  8.50000000E-01  8.50000000E-01
  8.50000000E-01  8.50000000E-01  8.50000000E-01  8.50000000E-01  8.50000000E-01
  8.50000000E-01  8.50000000E-01  8.50000000E-01  8.50000000E-01  8.50000000E-01
  8.50000000E-01  8.50000000E-01  8.50000000E-01  8.50000000E-01  8.50000000E-01
  8.50000000E-01  8.50000000E-01  8.50000000E-01  8.50000000E-01  8.50000000E-01
  8.50000000E-01  8.50000000E-01  8.50000000E-01  8.50000000E-01  8.50000000E-01
  8.50000000E-01  8.50000000E-01  8.50000000E-01  8.50000000E-01  8.50000000E-01
  8.50000000E-01  8.50000000E-01  8.50000000E-01  8.50000000E-01  8.50000000E-01
  8.50000000E-01  8.50000000E-01  8.50000000E-01  8.50000000E-01  8.50000000E-01
  8.50000000E-01  8.50000000E-01  8.50000000E-01  8.50000000E-01  8.50000000E-01
  8.50000000E-01  8.50000000E-01  8.50000000E-01  8.50000000E-01  8.50000000E-01
  8.50000000E-01  8.50000000E-01  8.50000000E-01  8.50000000E-01  8.50000000E-01
  8.50000000E-01  8.50000000E-01  8.50000000E-01  8.50000000E-01  8.50000000E-01
  8.50000000E-01  8.50000000E-01  8.50000000E-01  8.50000000E-01  8.50000000E-01
  8.50000000E-01  8.50000000E-01  8.50000000E-01  8.50000000E-01  8.50000000E-01
  8.50000000E-01  8.50000000E-01  8.50000000E-01  8.50000000E-01  8.50000000E-01
  8.50000000E-01  8.50000000E-01  8.50000000E-01  8.50000000E-01  8.50000000E-01
  8.50000000E-01  8.50000000E-01  8.50000000E-01  8.50000000E-01  8.50000000E-01
  8.50000000E-01  8.50000000E-01  8.50000000E-01  8.50000000E-01  8.50000000E-01
  8.50000000E-01  8.50000000E-01  8.50000000E-01  8.50000000E-01  8.50000000E-01
  8.50000000E-01  8.50000000E-01  8.50000000E-01  8.50000000E-01  8.50000000E-01
  8.50000000E-01  8.50000000E-01  8.50000000E-01  8.50000000E-01  8.50000000E-01
  8.50000000E-01  8.50000000E-01  8.50000000E-01  8.50000000E-01  8.50000000E-01
  8.50000000E-01  8.50000000E-01  8.50000000E-01  8.50000000E-01  8.50000000E-01
  8.50000000E-01  8.50000000E-01  8.50000000E-01  8.50000000E-01  8.50000000E-01
  8.50000000E-01  8.50000000E-01  8.50000000E-01  8.50000000E-01  8.50000000E-01
  8.50000000E-01  8.50000000E-01  8.50000000E-01  8.50000000E-01  8.50000000E-01
  8.50000000E-01  8.50000000E-01  8.50000000E-01  8.50000000E-01  8.50000000E-01
  8.50000000E-01  8.50000000E-01  8.50000000E-01  8.50000000E-01  8.50000000E-01
  8.50000000E-01  8.50000000E-01  8.50000000E-01  8.50000000E-01  8.50000000E-01
  8.50000000E-01  8.50000000E-01  8.50000000E-01  8.50000000E-01  8.50000000E-01
  8.50000000E-01  8.50000000E-01  8.50000000E-01  8.50000000E-01  8.50000000E-01
  8.50000000E-01  8.50000000E-01  8.50000000E-01  8.50000000E-01  8.50000000E-01
  8.50000000E-01  8.50000000E-01  8.50000000E-01  8.50000000E-01  8.50000000E-01
  8.50000000E-01  8.50000000E-01  8.50000000E-01  8.50000000E-01  8.50000000E-01
  8.50000000E-01  8.50000000E-01  8.50000000E-01  8.50000000E-01  8.50000000E-01
  8.50000000E-01  8.50000000E-01  8.50000000E-01  8.50000000E-01  8.50000000E-01
  8.50000000E-01  8.50000000E-01  8.50000000E-01  8.50000000E-01  8.50000000E-01
  8.50000000E-01  8.50000000E-01  8.50000000E-01  8.50000000E-01  8.50000000E-01
  8.50000000E-01  8.50000000E-01  8.50000000E-01  8.50000000E-01  8.50000000E-01
  8.50000000E-01  8.50000000E-01  8.50000000E-01  8.50000000E-01  8.50000000E-01
  8.50000000E-01  8.50000000E-01  8.50000000E-01  8.50000000E-01  8.50000000E-01
  8.50000000E-01  8.50000000E-01  8.50000000E-01  8.50000000E-01  8.50000000E-01
  8.50000000E-01  8.50000000E-01  8.50000000E-01  8.50000000E-01  8.50000000E-01
  8.50000000E-01  8.50000000E-01  8.50000000E-01  8.50000000E-01  8.50000000E-01
  8.50000000E-01  8.50000000E-01  8.50000000E-01  8.50000000E-01  8.50000000E-01
  8.50000000E-01  8.50000000E-01  8.50000000E-01  8.50000000E-01  8.50000000E-01
  8.50000000E-01  8.50000000E-01  8.50000000E-01  8.50000000E-01  8.50000000E-01
  8.50000000E-01  8.50000000E-01  8.50000000E-01  8.50000000E-01  8.50000000E-01
  8.50000000E-01  8.50000000E-01  8.50000000E-01  8.50000000E-01  8.50000000E-01
  8.50000000E-01  8.50000000E-01  8.50000000E-01  8.50000000E-01  8.50000000E-01
  8.50000000E-01  8.50000000E-01  8.50000000E-01  8.50000000E-01  8.50000000E-01
  8.50000000E-01  8.50000000E-01  8.50000000E-01  8.50000000E-01  8.50000000E-01
  8.50000000E-01  8.50000000E-01  8.50000000E-01  8.50000000E-01  8.50000000E-01
  8.50000000E-01  8.50000000E-01  8.50000000E-01  8.50000000E-01  8.50000000E-01
  8.50000000E-01  8.50000000E-01  8.50000000E-01  8.50000000E-01  8.50000000E-01
  8.50000000E-01  8.50000000E-01  8.50000000E-01  8.50000000E-01  8.50000000E-01
  8.50000000E-01  8.50000000E-01  8.50000000E-01  8.50000000E-01  8.50000000E-01
  8.50000000E-01  8.50000000E-01  8.50000000E-01  8.50000000E-01  8.50000000E-01
  8.50000000E-01  8.50000000E-01  8.50000000E-01  8.50000000E-01  8.50000000E-01
  8.50000000E-01  8.50000000E-01  8.50000000E-01  8.50000000E-01  8.50000000E-01
  8.50000000E-01  8.50000000E-01  8.50000000E-01  8.50000000E-01  8.50000000E-01
  8.50000000E-01  8.50000000E-01  8.50000000E-01  8.50000000E-01  8.50000000E-01
  8.50000000E-01  8.50000000E-01  8.50000000E-01  8.50000000E-01  8.50000000E-01
  8.50000000E-01  8.50000000E-01  8.50000000E-01  8.50000000E-01  8.50000000E-01
  8.50000000E-01  8.50000000E-01  8.50000000E-01  8.50000000E-01  8.50000000E-01
  8.50000000E-01  8.50000000E-01  8.50000000E-01  8.50000000E-01  8.50000000E-01
  8.50000000E-01  8.50000000E-01  8.50000000E-01  8.50000000E-01  8.50000000E-01
  8.50000000E-01  8.50000000E-01  8.50000000E-01  8.50000000E-01  8.50000000E-01
  8.50000000E-01  8.50000000E-01  8.50000000E-01  8.50000000E-01  8.50000000E-01
  8.50000000E-01  8.50000000E-01  8.50000000E-01  8.50000000E-01  8.50000000E-01
  8.50000000E-01  8.50000000E-01  8.50000000E-01  8.50000000E-01  8.50000000E-01
  8.50000000E-01  8.50000000E-01  8.50000000E-01  8.50000000E-01  8.50000000E-01
  8.50000000E-01  8.50000000E-01  8.50000000E-01  8.50000000E-01  8.50000000E-01
  8.50000000E-01  8.50000000E-01  8.50000000E-01  8.50000000E-01  8.50000000E-01
  8.50000000E-01  8.50000000E-01  8.50000000E-01  8.50000000E-01  8.50000000E-01
  8.50000000E-01  8.50000000E-01  8.50000000E-01  8.50000000E-01  8.50000000E-01
  8.50000000E-01  8.50000000E-01  8.50000000E-01  8.50000000E-01  8.50000000E-01
  8.50000000E-01  8.50000000E-01  8.50000000E-01  8.50000000E-01  8.50000000E-01
  8.50000000E-01  8.50000000E-01  8.50000000E-01  8.50000000E-01  8.50000000E-01
  8.50000000E-01  8.50000000E-01  8.50000000E-01  8.50000000E-01  8.50000000E-01
  8.50000000E-01  8.50000000E-01  8.50000000E-01  8.50000000E-01  8.50000000E-01
  8.50000000E-01  8.50000000E-01  8.50000000E-01  8.50000000E-01  8.50000000E-01
  8.50000000E-01  8.50000000E-01  8.50000000E-01  8.50000000E-01  8.50000000E-01
  8.50000000E-01  8.50000000E-01  8.50000000E-01  8.50000000E-01  8.50000000E-01
  8.50000000E-01  8.50000000E-01  8.50000000E-01  8.50000000E-01  8.50000000E-01
  8.50000000E-01  8.50000000E-01  8.50000000E-01  8.50000000E-01  8.50000000E-01
  8.50000000E-01  8.50000000E-01  8.50000000E-01  8.50000000E-01  8.50000000E-01
  8.50000000E-01  8.50000000E-01  8.50000000E-01  8.50000000E-01  8.50000000E-01
  8.50000000E-01  8.50000000E-01  8.50000000E-01  8.50000000E-01  8.50000000E-01
  8.50000000E-01  8.50000000E-01  8.50000000E-01  8.50000000E-01  8.50000000E-01
  8.50000000E-01  8.50000000E-01  8.50000000E-01  8.50000000E-01  8.50000000E-01
  8.50000000E-01  8.50000000E-01  8.50000000E-01  8.50000000E-01  8.50000000E-01
  8.50000000E-01  8.50000000E-01  8.50000000E-01  8.50000000E-01  8.50000000E-01
  8.50000000E-01  8.50000000E-01  8.50000000E-01  8.50000000E-01  8.50000000E-01
  8.50000000E-01  8.50000000E-01  8.50000000E-01  8.50000000E-01  8.50000000E-01
  8.50000000E-01  8.50000000E-01  8.50000000E-01  8.50000000E-01  8.50000000E-01
  8.50000000E-01  8.50000000E-01  8.50000000E-01  8.50000000E-01  8.50000000E-01
  8.50000000E-01  8.50000000E-01  8.50000000E-01  8.50000000E-01  8.50000000E-01
  8.50000000E-01  8.50000000E-01  8.50000000E-01  8.50000000E-01  8.50000000E-01
  8.50000000E-01  8.50000000E-01  8.50000000E-01  8.50000000E-01  8.50000000E-01
  8.50000000E-01  8.50000000E-01  8.50000000E-01  8.50000000E-01  8.50000000E-01
  8.50000000E-01  8.50000000E-01  8.50000000E-01  8.50000000E-01  8.50000000E-01
  8.50000000E-01  8.50000000E-01  8.50000000E-01  8.50000000E-01  8.50000000E-01
  8.50000000E-01  8.50000000E-01  8.50000000E-01  8.50000000E-01  8.50000000E-01
  8.50000000E-01  8.50000000E-01  8.50000000E-01  8.50000000E-01  8.50000000E-01
  8.50000000E-01  8.50000000E-01  8.50000000E-01  8.50000000E-01  8.50000000E-01
  8.50000000E-01  8.50000000E-01  8.50000000E-01  8.50000000E-01  8.50000000E-01
  8.50000000E-01  8.50000000E-01  8.50000000E-01  8.50000000E-01  8.50000000E-01
  8.50000000E-01  8.50000000E-01  8.50000000E-01  8.50000000E-01  8.50000000E-01
  8.50000000E-01  8.50000000E-01  8.50000000E-01  8.50000000E-01  8.50000000E-01
  8.50000000E-01  8.50000000E-01  8.50000000E-01  8.50000000E-01  8.50000000E-01
  8.50000000E-01  8.50000000E-01  8.50000000E-01  8.50000000E-01  8.50000000E-01
  8.50000000E-01  8.50000000E-01  8.50000000E-01  8.50000000E-01  8.50000000E-01
  8.50000000E-01  8.50000000E-01  8.50000000E-01  8.50000000E-01  8.50000000E-01
  8.50000000E-01  8.50000000E-01  8.50000000E-01  8.50000000E-01  8.50000000E-01
  8.50000000E-01  8.50000000E-01  8.50000000E-01  8.50000000E-01  8.50000000E-01
  8.50000000E-01  8.50000000E-01  8.50000000E-01  8.50000000E-01  8.50000000E-01
  8.50000000E-01  8.50000000E-01  8.50000000E-01  8.50000000E-01  8.50000000E-01
  8.50000000E-01  8.50000000E-01  8.50000000E-01  8.50000000E-01  8.50000000E-01
  8.50000000E-01  8.50000000E-01  8.50000000E-01  8.50000000E-01  8.50000000E-01
  8.50000000E-01  8.50000000E-01  8.50000000E-01  8.50000000E-01  8.50000000E-01
  8.50000000E-01  8.50000000E-01  8.50000000E-01  8.50000000E-01  8.50000000E-01
  8.50000000E-01  8.50000000E-01  8.50000000E-01  8.50000000E-01  8.50000000E-01
  8.50000000E-01  8.50000000E-01  8.50000000E-01  8.50000000E-01  8.50000000E-01
  8.50000000E-01  8.50000000E-01  8.50000000E-01  8.50000000E-01  8.50000000E-01
  8.50000000E-01  8.50000000E-01  8.50000000E-01  8.50000000E-01  8.50000000E-01
  8.50000000E-01  8.50000000E-01  8.50000000E-01  8.50000000E-01  8.50000000E-01
  8.50000000E-01  8.50000000E-01  8.50000000E-01  8.50000000E-01  8.50000000E-01
  8.50000000E-01  8.50000000E-01  8.50000000E-01  8.50000000E-01  8.50000000E-01
  8.50000000E-01  8.50000000E-01  8.50000000E-01  8.50000000E-01  8.50000000E-01
  8.50000000E-01  8.50000000E-01  8.50000000E-01  8.50000000E-01  8.50000000E-01
  8.50000000E-01  8.50000000E-01  8.50000000E-01  8.50000000E-01  8.50000000E-01
  8.50000000E-01  8.50000000E-01  8.50000000E-01  8.50000000E-01  8.50000000E-01
  8.50000000E-01  8.50000000E-01  8.50000000E-01  8.50000000E-01  8.50000000E-01
  8.50000000E-01  8.50000000E-01  8.50000000E-01  8.50000000E-01  8.50000000E-01
  8.50000000E-01  8.50000000E-01  8.50000000E-01  8.50000000E-01  8.50000000E-01
  8.50000000E-01  8.50000000E-01  8.50000000E-01  8.50000000E-01  8.50000000E-01
  8.50000000E-01  8.50000000E-01  8.50000000E-01  8.50000000E-01  8.50000000E-01
  8.50000000E-01  8.50000000E-01  8.50000000E-01  8.50000000E-01  8.50000000E-01
  8.50000000E-01  8.50000000E-01  8.50000000E-01  8.50000000E-01  8.50000000E-01
  8.50000000E-01  8.50000000E-01  8.50000000E-01  8.50000000E-01  8.50000000E-01
  8.50000000E-01  8.50000000E-01  8.50000000E-01  8.50000000E-01  8.50000000E-01
  8.50000000E-01  8.50000000E-01  8.50000000E-01  8.50000000E-01  8.50000000E-01
  8.50000000E-01  8.50000000E-01  8.50000000E-01  8.50000000E-01  8.50000000E-01
  8.50000000E-01  8.50000000E-01  8.50000000E-01  8.50000000E-01  8.50000000E-01
  8.50000000E-01  8.50000000E-01  8.50000000E-01  8.50000000E-01  8.50000000E-01
  8.50000000E-01  8.50000000E-01  8.50000000E-01  8.50000000E-01  8.50000000E-01
  8.50000000E-01  8.50000000E-01  8.50000000E-01  8.50000000E-01  8.50000000E-01
  8.50000000E-01  8.50000000E-01  8.50000000E-01  8.50000000E-01  8.50000000E-01
  8.50000000E-01  8.50000000E-01  8.50000000E-01  8.50000000E-01  8.50000000E-01
  8.50000000E-01  8.50000000E-01  8.50000000E-01  8.50000000E-01  8.50000000E-01
  8.50000000E-01  8.50000000E-01  8.50000000E-01  8.50000000E-01  8.50000000E-01
  8.50000000E-01  8.50000000E-01  8.50000000E-01  8.50000000E-01  8.50000000E-01
  8.50000000E-01  8.50000000E-01  8.50000000E-01  8.50000000E-01  8.50000000E-01
  8.50000000E-01  8.50000000E-01  8.50000000E-01  8.50000000E-01  8.50000000E-01
  8.50000000E-01  8.50000000E-01  8.50000000E-01  8.50000000E-01  8.50000000E-01
  8.50000000E-01  8.50000000E-01  8.50000000E-01  8.50000000E-01  8.50000000E-01
  8.50000000E-01  8.50000000E-01  8.50000000E-01  8.50000000E-01  8.50000000E-01
  8.50000000E-01  8.50000000E-01  8.50000000E-01  8.50000000E-01  8.50000000E-01
  8.50000000E-01  8.50000000E-01  8.50000000E-01  8.50000000E-01  8.50000000E-01
  8.50000000E-01  8.50000000E-01  8.50000000E-01  8.50000000E-01  8.50000000E-01
  8.50000000E-01  8.50000000E-01  8.50000000E-01  8.50000000E-01  8.50000000E-01
  8.50000000E-01  8.50000000E-01  8.50000000E-01  8.50000000E-01  8.50000000E-01
  8.50000000E-01  8.50000000E-01  8.50000000E-01  8.50000000E-01  8.50000000E-01
  8.50000000E-01  8.50000000E-01  8.50000000E-01  8.50000000E-01  8.50000000E-01
  8.50000000E-01  8.50000000E-01  8.50000000E-01  8.50000000E-01  8.50000000E-01
  8.50000000E-01  8.50000000E-01  8.50000000E-01  8.50000000E-01  8.50000000E-01
  8.50000000E-01  8.50000000E-01  8.50000000E-01  8.50000000E-01  8.50000000E-01
  8.50000000E-01  8.50000000E-01  8.50000000E-01  8.50000000E-01  8.50000000E-01
  8.50000000E-01  8.50000000E-01  8.50000000E-01  8.50000000E-01  8.50000000E-01
  8.50000000E-01  8.50000000E-01  8.50000000E-01  8.50000000E-01  8.50000000E-01
  8.50000000E-01  8.50000000E-01  8.50000000E-01  8.50000000E-01  8.50000000E-01
  8.50000000E-01  8.50000000E-01  8.50000000E-01  8.50000000E-01  8.50000000E-01
  8.50000000E-01  8.50000000E-01  8.50000000E-01  8.50000000E-01  8.50000000E-01
  8.50000000E-01  8.50000000E-01  8.50000000E-01  8.50000000E-01  8.50000000E-01
  8.50000000E-01  8.50000000E-01  8.50000000E-01  8.50000000E-01  8.50000000E-01
  8.50000000E-01  8.50000000E-01  8.50000000E-01  8.50000000E-01  8.50000000E-01
  8.50000000E-01  8.50000000E-01  8.50000000E-01  8.50000000E-01  8.50000000E-01
  8.50000000E-01  8.50000000E-01  8.50000000E-01  8.50000000E-01  8.50000000E-01
  8.50000000E-01  8.50000000E-01  8.50000000E-01  8.50000000E-01  8.50000000E-01
  8.50000000E-01  8.50000000E-01  8.50000000E-01  8.50000000E-01  8.50000000E-01
  8.50000000E-01  8.50000000E-01  8.50000000E-01  8.50000000E-01  8.50000000E-01
  8.50000000E-01  8.50000000E-01  8.50000000E-01  8.50000000E-01  8.50000000E-01
  8.50000000E-01  8.50000000E-01  8.50000000E-01  8.50000000E-01  8.50000000E-01
  8.50000000E-01  8.50000000E-01  8.50000000E-01  8.50000000E-01  8.50000000E-01
  8.50000000E-01  8.50000000E-01  8.50000000E-01  8.50000000E-01  8.50000000E-01
  8.50000000E-01  8.50000000E-01  8.50000000E-01  8.50000000E-01  8.50000000E-01
  8.50000000E-01  8.50000000E-01  8.50000000E-01  8.50000000E-01  8.50000000E-01
  8.50000000E-01  8.50000000E-01  8.50000000E-01  8.50000000E-01  8.50000000E-01
  8.50000000E-01  8.50000000E-01  8.50000000E-01  8.50000000E-01  8.50000000E-01
  8.50000000E-01  8.50000000E-01  8.50000000E-01  8.50000000E-01  8.50000000E-01
  8.50000000E-01  8.50000000E-01  8.50000000E-01  8.50000000E-01  8.50000000E-01
  8.50000000E-01  8.50000000E-01  8.50000000E-01  8.50000000E-01  8.50000000E-01
  8.50000000E-01  8.50000000E-01  8.50000000E-01  8.50000000E-01  8.50000000E-01
  8.50000000E-01  8.50000000E-01  8.50000000E-01  8.50000000E-01  8.50000000E-01
  8.50000000E-01  8.50000000E-01  8.50000000E-01  8.50000000E-01  8.50000000E-01
  8.50000000E-01  8.50000000E-01  8.50000000E-01  8.50000000E-01  8.50000000E-01
  8.50000000E-01  8.50000000E-01  8.50000000E-01  8.50000000E-01  8.50000000E-01
  8.50000000E-01  8.50000000E-01  8.50000000E-01  8.50000000E-01  8.50000000E-01
  8.50000000E-01  8.50000000E-01  8.50000000E-01  8.50000000E-01  8.50000000E-01
  8.50000000E-01  8.50000000E-01  8.50000000E-01  8.50000000E-01  8.50000000E-01
  8.50000000E-01  8.50000000E-01  8.50000000E-01  8.50000000E-01  8.50000000E-01
  8.50000000E-01  8.50000000E-01  8.50000000E-01  8.50000000E-01  8.50000000E-01
  8.50000000E-01  8.50000000E-01  8.50000000E-01  8.50000000E-01  8.50000000E-01
  8.50000000E-01  8.50000000E-01  8.50000000E-01  8.50000000E-01  8.50000000E-01
  8.50000000E-01  8.50000000E-01  8.50000000E-01  8.50000000E-01  8.50000000E-01
  8.50000000E-01  8.50000000E-01  8.50000000E-01  8.50000000E-01  8.50000000E-01
  8.50000000E-01  8.50000000E-01  8.50000000E-01  8.50000000E-01  8.50000000E-01
  8.50000000E-01  8.50000000E-01  8.50000000E-01  8.50000000E-01  8.50000000E-01
  8.50000000E-01  8.50000000E-01  8.50000000E-01  8.50000000E-01  8.50000000E-01
  8.50000000E-01  8.50000000E-01  8.50000000E-01  8.50000000E-01  8.50000000E-01
  8.50000000E-01  8.50000000E-01  8.50000000E-01  8.50000000E-01  8.50000000E-01
  8.50000000E-01  8.50000000E-01  8.50000000E-01  8.50000000E-01  8.50000000E-01
  8.50000000E-01  8.50000000E-01  8.50000000E-01  8.50000000E-01  8.50000000E-01
  8.50000000E-01  8.50000000E-01  8.50000000E-01  8.50000000E-01  8.50000000E-01
  8.50000000E-01  8.50000000E-01  8.50000000E-01  8.50000000E-01  8.50000000E-01
  8.50000000E-01  8.50000000E-01  8.50000000E-01  8.50000000E-01  8.50000000E-01
  8.50000000E-01  8.50000000E-01  8.50000000E-01  8.50000000E-01  8.50000000E-01
  8.50000000E-01  8.50000000E-01  8.50000000E-01  8.50000000E-01  8.50000000E-01
  8.50000000E-01  8.50000000E-01  8.50000000E-01  8.50000000E-01  8.50000000E-01
  8.50000000E-01  8.50000000E-01  8.50000000E-01  8.50000000E-01  8.50000000E-01
  8.50000000E-01  8.50000000E-01  8.50000000E-01  8.50000000E-01  8.50000000E-01
  8.50000000E-01  8.50000000E-01  8.50000000E-01  8.50000000E-01  8.50000000E-01
  8.50000000E-01  8.50000000E-01  8.50000000E-01  8.50000000E-01  8.50000000E-01
  8.50000000E-01  8.50000000E-01  8.50000000E-01  8.50000000E-01  8.50000000E-01
  8.50000000E-01  8.50000000E-01  8.50000000E-01  8.50000000E-01  8.50000000E-01
  8.50000000E-01  8.50000000E-01  8.50000000E-01  8.50000000E-01  8.50000000E-01
  8.50000000E-01  8.50000000E-01  8.50000000E-01  8.50000000E-01  8.50000000E-01
  8.50000000E-01  8.50000000E-01  8.50000000E-01  8.50000000E-01  8.50000000E-01
  8.50000000E-01  8.50000000E-01  8.50000000E-01  8.50000000E-01  8.50000000E-01
  8.50000000E-01  8.50000000E-01  8.50000000E-01  8.50000000E-01  8.50000000E-01
  8.50000000E-01  8.50000000E-01  8.50000000E-01  8.50000000E-01  8.50000000E-01
  8.50000000E-01  8.50000000E-01  8.50000000E-01  8.50000000E-01  8.50000000E-01
  8.50000000E-01  8.50000000E-01  8.50000000E-01  8.50000000E-01  8.50000000E-01
  8.50000000E-01  8.50000000E-01  8.50000000E-01  8.50000000E-01  8.50000000E-01
  8.50000000E-01  8.50000000E-01  8.50000000E-01  8.50000000E-01  8.50000000E-01
  8.50000000E-01  8.50000000E-01  8.50000000E-01  8.50000000E-01  8.50000000E-01
  8.50000000E-01  8.50000000E-01  8.50000000E-01  8.50000000E-01  8.50000000E-01
  8.50000000E-01  8.50000000E-01  8.50000000E-01  8.50000000E-01  8.50000000E-01
  8.50000000E-01  8.50000000E-01  8.50000000E-01  8.50000000E-01  8.50000000E-01
  8.50000000E-01  8.50000000E-01  8.50000000E-01  8.50000000E-01  8.50000000E-01
  8.50000000E-01  8.50000000E-01  8.50000000E-01  8.50000000E-01  8.50000000E-01
  8.50000000E-01  8.50000000E-01  8.50000000E-01  8.50000000E-01  8.50000000E-01
  8.50000000E-01  8.50000000E-01  8.50000000E-01  8.50000000E-01  8.50000000E-01
  8.50000000E-01  8.50000000E-01  8.50000000E-01  8.50000000E-01  8.50000000E-01
  8.50000000E-01  8.50000000E-01  8.50000000E-01  8.50000000E-01  8.50000000E-01
  8.50000000E-01  8.50000000E-01  8.50000000E-01  8.50000000E-01  8.50000000E-01
  8.50000000E-01  8.50000000E-01  8.50000000E-01  8.50000000E-01  8.50000000E-01
  8.50000000E-01  8.50000000E-01  8.50000000E-01  8.50000000E-01  8.50000000E-01
  8.50000000E-01  8.50000000E-01  8.50000000E-01  8.50000000E-01  8.50000000E-01
  8.50000000E-01  8.50000000E-01  8.50000000E-01  8.50000000E-01  8.50000000E-01
  8.50000000E-01  8.50000000E-01  8.50000000E-01  8.50000000E-01  8.50000000E-01
  8.50000000E-01  8.50000000E-01  8.50000000E-01  8.50000000E-01  8.50000000E-01
  8.50000000E-01  8.50000000E-01  8.50000000E-01  8.50000000E-01  8.50000000E-01
  8.50000000E-01  8.50000000E-01  8.50000000E-01  8.50000000E-01  8.50000000E-01
  8.50000000E-01  8.50000000E-01  8.50000000E-01  8.50000000E-01  8.50000000E-01
  8.50000000E-01  8.50000000E-01  8.50000000E-01  8.50000000E-01  8.50000000E-01
  8.50000000E-01  8.50000000E-01  8.50000000E-01  8.50000000E-01  8.50000000E-01
  8.50000000E-01  8.50000000E-01  8.50000000E-01  8.50000000E-01  8.50000000E-01
  8.50000000E-01  8.50000000E-01  8.50000000E-01  8.50000000E-01  8.50000000E-01
  8.50000000E-01  8.50000000E-01  8.50000000E-01  8.50000000E-01  8.50000000E-01
  8.50000000E-01  8.50000000E-01  8.50000000E-01  8.50000000E-01  8.50000000E-01
  8.50000000E-01  8.50000000E-01  8.50000000E-01  8.50000000E-01  8.50000000E-01
  8.50000000E-01  8.50000000E-01  8.50000000E-01  8.50000000E-01  8.50000000E-01
  8.50000000E-01  8.50000000E-01  8.50000000E-01  8.50000000E-01  8.50000000E-01
  8.50000000E-01  8.50000000E-01  8.50000000E-01  8.50000000E-01  8.50000000E-01
  8.50000000E-01  8.50000000E-01  8.50000000E-01  8.50000000E-01  8.50000000E-01
  8.50000000E-01  8.50000000E-01  8.50000000E-01  8.50000000E-01  8.50000000E-01
  8.50000000E-01  8.50000000E-01  8.50000000E-01  8.50000000E-01  8.50000000E-01
  8.50000000E-01  8.50000000E-01  8.50000000E-01  8.50000000E-01  8.50000000E-01
  8.50000000E-01  8.50000000E-01  8.50000000E-01  8.50000000E-01  8.50000000E-01
  8.50000000E-01  8.50000000E-01  8.50000000E-01  8.50000000E-01  8.50000000E-01
  8.50000000E-01  8.50000000E-01  8.50000000E-01  8.50000000E-01  8.50000000E-01
  8.50000000E-01  8.50000000E-01  8.50000000E-01  8.50000000E-01  8.50000000E-01
  8.50000000E-01  8.50000000E-01  8.50000000E-01  8.50000000E-01  8.50000000E-01
  8.50000000E-01  8.50000000E-01  8.50000000E-01  8.50000000E-01  8.50000000E-01
  8.50000000E-01  8.50000000E-01  8.50000000E-01  8.50000000E-01  8.50000000E-01
  8.50000000E-01  8.50000000E-01  8.50000000E-01  8.50000000E-01  8.50000000E-01
  8.50000000E-01  8.50000000E-01  8.50000000E-01  8.50000000E-01  8.50000000E-01
  8.50000000E-01  8.50000000E-01  8.50000000E-01  8.50000000E-01  8.50000000E-01
  8.50000000E-01  8.50000000E-01  8.50000000E-01  8.50000000E-01  8.50000000E-01
  8.50000000E-01  8.50000000E-01  8.50000000E-01  8.50000000E-01  8.50000000E-01
  8.50000000E-01  8.50000000E-01  8.50000000E-01  8.50000000E-01  8.50000000E-01
  8.50000000E-01  8.50000000E-01  8.50000000E-01  8.50000000E-01  8.50000000E-01
  8.50000000E-01  8.50000000E-01  8.50000000E-01  8.50000000E-01  8.50000000E-01
  8.50000000E-01  8.50000000E-01  8.50000000E-01  8.50000000E-01  8.50000000E-01
  8.50000000E-01  8.50000000E-01  8.50000000E-01  8.50000000E-01  8.50000000E-01
  8.50000000E-01  8.50000000E-01  8.50000000E-01  8.50000000E-01  8.50000000E-01
  8.50000000E-01  8.50000000E-01  8.50000000E-01  8.50000000E-01  8.50000000E-01
  8.50000000E-01  8.50000000E-01  8.50000000E-01  8.50000000E-01  8.50000000E-01
  8.50000000E-01  8.50000000E-01  8.50000000E-01  8.50000000E-01  8.50000000E-01
  8.50000000E-01  8.50000000E-01  8.50000000E-01  8.50000000E-01  8.50000000E-01
  8.50000000E-01  8.50000000E-01  8.50000000E-01  8.50000000E-01  8.50000000E-01
  8.50000000E-01  8.50000000E-01  8.50000000E-01  8.50000000E-01  8.50000000E-01
  8.50000000E-01  8.50000000E-01  8.50000000E-01  8.50000000E-01  8.50000000E-01
  8.50000000E-01  8.50000000E-01  8.50000000E-01  8.50000000E-01  8.50000000E-01
  8.50000000E-01  8.50000000E-01  8.50000000E-01  8.50000000E-01  8.50000000E-01
  8.50000000E-01  8.50000000E-01  8.50000000E-01  8.50000000E-01  8.50000000E-01
  8.50000000E-01  8.50000000E-01  8.50000000E-01  8.50000000E-01  8.50000000E-01
  8.50000000E-01  8.50000000E-01  8.50000000E-01  8.50000000E-01  8.50000000E-01
  8.50000000E-01  8.50000000E-01  8.50000000E-01  8.50000000E-01  8.50000000E-01
  8.50000000E-01  8.50000000E-01  8.50000000E-01  8.50000000E-01  8.50000000E-01
  8.50000000E-01  8.50000000E-01  8.50000000E-01  8.50000000E-01  8.50000000E-01
  8.50000000E-01  8.50000000E-01  8.50000000E-01  8.50000000E-01  8.50000000E-01
  8.50000000E-01  8.50000000E-01  8.50000000E-01  8.50000000E-01  8.50000000E-01
  8.50000000E-01  8.50000000E-01  8.50000000E-01  8.50000000E-01  8.50000000E-01
  8.50000000E-01  8.50000000E-01  8.50000000E-01  8.50000000E-01  8.50000000E-01
  8.50000000E-01  8.50000000E-01  8.50000000E-01  8.50000000E-01  8.50000000E-01
  8.50000000E-01  8.50000000E-01  8.50000000E-01  8.50000000E-01  8.50000000E-01
  8.50000000E-01  8.50000000E-01  8.50000000E-01  8.50000000E-01  8.50000000E-01
  8.50000000E-01  8.50000000E-01  8.50000000E-01  8.50000000E-01  8.50000000E-01
  8.50000000E-01  8.50000000E-01  8.50000000E-01  8.50000000E-01  8.50000000E-01
  8.50000000E-01  8.50000000E-01  8.50000000E-01  8.50000000E-01  8.50000000E-01
  8.50000000E-01  8.50000000E-01  8.50000000E-01  8.50000000E-01  8.50000000E-01
  8.50000000E-01  8.50000000E-01  8.50000000E-01  8.50000000E-01  8.50000000E-01
  8.50000000E-01  8.50000000E-01  8.50000000E-01  8.50000000E-01  8.50000000E-01
  8.50000000E-01  8.50000000E-01  8.50000000E-01  8.50000000E-01  8.50000000E-01
  8.50000000E-01  8.50000000E-01  8.50000000E-01  8.50000000E-01  8.50000000E-01
  8.50000000E-01  8.50000000E-01  8.50000000E-01  8.50000000E-01  8.50000000E-01
  8.50000000E-01  8.50000000E-01  8.50000000E-01  8.50000000E-01  8.50000000E-01
  8.50000000E-01  8.50000000E-01  8.50000000E-01  8.50000000E-01  8.50000000E-01
  8.50000000E-01  8.50000000E-01  8.50000000E-01  8.50000000E-01  8.50000000E-01
  8.50000000E-01  8.50000000E-01  8.50000000E-01  8.50000000E-01  8.50000000E-01
  8.50000000E-01  8.50000000E-01  8.50000000E-01  8.50000000E-01  8.50000000E-01
  8.50000000E-01  8.50000000E-01  8.50000000E-01  8.50000000E-01  8.50000000E-01
  8.50000000E-01  8.50000000E-01  8.50000000E-01  8.50000000E-01  8.50000000E-01
  8.50000000E-01  8.50000000E-01  8.50000000E-01  8.50000000E-01  8.50000000E-01
  8.50000000E-01  8.50000000E-01  8.50000000E-01  8.50000000E-01  8.50000000E-01
  8.50000000E-01  8.50000000E-01  8.50000000E-01  8.50000000E-01  8.50000000E-01
  8.50000000E-01  8.50000000E-01  8.50000000E-01  8.50000000E-01  8.50000000E-01
  8.50000000E-01  8.50000000E-01  8.50000000E-01  8.50000000E-01  8.50000000E-01
  8.50000000E-01  8.50000000E-01  8.50000000E-01  8.50000000E-01  8.50000000E-01
  8.50000000E-01  8.50000000E-01  8.50000000E-01  8.50000000E-01  8.50000000E-01
  8.50000000E-01  8.50000000E-01  8.50000000E-01  8.50000000E-01  8.50000000E-01
  8.50000000E-01  8.50000000E-01  8.50000000E-01  8.50000000E-01  8.50000000E-01
  8.50000000E-01  8.50000000E-01  8.50000000E-01  8.50000000E-01  8.50000000E-01
  8.50000000E-01  8.50000000E-01  8.50000000E-01  8.50000000E-01  8.50000000E-01
  8.50000000E-01  8.50000000E-01  8.50000000E-01  8.50000000E-01  8.50000000E-01
  8.50000000E-01  8.50000000E-01  8.50000000E-01  8.50000000E-01  8.50000000E-01
  8.50000000E-01  8.50000000E-01  8.50000000E-01  8.50000000E-01  8.50000000E-01
  8.50000000E-01  8.50000000E-01  8.50000000E-01  8.50000000E-01  8.50000000E-01
  8.50000000E-01  8.50000000E-01  8.50000000E-01  8.50000000E-01  8.50000000E-01
  8.50000000E-01  8.50000000E-01  8.50000000E-01  8.50000000E-01  8.50000000E-01
  8.50000000E-01  8.50000000E-01  8.50000000E-01  8.50000000E-01  8.50000000E-01
  8.50000000E-01  8.50000000E-01  8.50000000E-01  8.50000000E-01  8.50000000E-01
  8.50000000E-01  8.50000000E-01  8.50000000E-01  8.50000000E-01  8.50000000E-01
  8.50000000E-01  8.50000000E-01  8.50000000E-01  8.50000000E-01  8.50000000E-01
  8.50000000E-01  8.50000000E-01  8.50000000E-01  8.50000000E-01  8.50000000E-01
  8.50000000E-01  8.50000000E-01  8.50000000E-01  8.50000000E-01  8.50000000E-01
  8.50000000E-01  8.50000000E-01  8.50000000E-01  8.50000000E-01  8.50000000E-01
  8.50000000E-01  8.50000000E-01  8.50000000E-01  8.50000000E-01  8.50000000E-01
  8.50000000E-01  8.50000000E-01  8.50000000E-01  8.50000000E-01  8.50000000E-01
  8.50000000E-01  8.50000000E-01  8.50000000E-01  8.50000000E-01  8.50000000E-01
  8.50000000E-01  8.50000000E-01  8.50000000E-01  8.50000000E-01  8.50000000E-01
  8.50000000E-01  8.50000000E-01  8.50000000E-01  8.50000000E-01  8.50000000E-01
  8.50000000E-01  8.50000000E-01  8.50000000E-01  8.50000000E-01  8.50000000E-01
  8.50000000E-01  8.50000000E-01  8.50000000E-01  8.50000000E-01  8.50000000E-01
  8.50000000E-01  8.50000000E-01  8.50000000E-01  8.50000000E-01  8.50000000E-01
  8.50000000E-01  8.50000000E-01  8.50000000E-01  8.50000000E-01  8.50000000E-01
  8.50000000E-01  8.50000000E-01  8.50000000E-01  8.50000000E-01  8.50000000E-01
  8.50000000E-01  8.50000000E-01  8.50000000E-01  8.50000000E-01  8.50000000E-01
  8.50000000E-01  8.50000000E-01  8.50000000E-01  8.50000000E-01  8.50000000E-01
  8.50000000E-01  8.50000000E-01  8.50000000E-01  8.50000000E-01  8.50000000E-01
  8.50000000E-01  8.50000000E-01  8.50000000E-01  8.50000000E-01  8.50000000E-01
  8.50000000E-01  8.50000000E-01  8.50000000E-01  8.50000000E-01  8.50000000E-01
  8.50000000E-01  8.50000000E-01  8.50000000E-01  8.50000000E-01  8.50000000E-01
  8.50000000E-01  8.50000000E-01  8.50000000E-01  8.50000000E-01  8.50000000E-01
  8.50000000E-01  8.50000000E-01  8.50000000E-01  8.50000000E-01  8.50000000E-01
  8.50000000E-01  8.50000000E-01  8.50000000E-01  8.50000000E-01  8.50000000E-01
  8.50000000E-01  8.50000000E-01  8.50000000E-01  8.50000000E-01  8.50000000E-01
  8.50000000E-01  8.50000000E-01  8.50000000E-01  8.50000000E-01  8.50000000E-01
  8.50000000E-01  8.50000000E-01  8.50000000E-01  8.50000000E-01  8.50000000E-01
  8.50000000E-01  8.50000000E-01  8.50000000E-01  8.50000000E-01  8.50000000E-01
  8.50000000E-01  8.50000000E-01  8.50000000E-01  8.50000000E-01  8.50000000E-01
  8.50000000E-01  8.50000000E-01  8.50000000E-01  8.50000000E-01  8.50000000E-01
  8.50000000E-01  8.50000000E-01  8.50000000E-01  8.50000000E-01  8.50000000E-01
  8.50000000E-01  8.50000000E-01  8.50000000E-01  8.50000000E-01  8.50000000E-01
  8.50000000E-01  8.50000000E-01  8.50000000E-01  8.50000000E-01  8.50000000E-01
  8.50000000E-01  8.50000000E-01  8.50000000E-01  8.50000000E-01  8.50000000E-01
  8.50000000E-01  8.50000000E-01  8.50000000E-01  8.50000000E-01  8.50000000E-01
  8.50000000E-01  8.50000000E-01  8.50000000E-01  8.50000000E-01  8.50000000E-01
  8.50000000E-01  8.50000000E-01  8.50000000E-01  8.50000000E-01  8.50000000E-01
  8.50000000E-01  8.50000000E-01  8.50000000E-01  8.50000000E-01  8.50000000E-01
  8.50000000E-01  8.50000000E-01  8.50000000E-01  8.50000000E-01  8.50000000E-01
  8.50000000E-01  8.50000000E-01  8.50000000E-01  8.50000000E-01  8.50000000E-01
  8.50000000E-01  8.50000000E-01  8.50000000E-01  8.50000000E-01  8.50000000E-01
  8.50000000E-01  8.50000000E-01  8.50000000E-01  8.50000000E-01  8.50000000E-01
  8.50000000E-01  8.50000000E-01  8.50000000E-01  8.50000000E-01  8.50000000E-01
  8.50000000E-01  8.50000000E-01  8.50000000E-01  8.50000000E-01  8.50000000E-01
  8.50000000E-01  8.50000000E-01  8.50000000E-01  8.50000000E-01  8.50000000E-01
  8.50000000E-01  8.50000000E-01  8.50000000E-01  8.50000000E-01  8.50000000E-01
  8.50000000E-01  8.50000000E-01  8.50000000E-01  8.50000000E-01  8.50000000E-01
  8.50000000E-01  8.50000000E-01  8.50000000E-01  8.50000000E-01  8.50000000E-01
  8.50000000E-01  8.50000000E-01  8.50000000E-01  8.50000000E-01  8.50000000E-01
  8.50000000E-01  8.50000000E-01  8.50000000E-01  8.50000000E-01  8.50000000E-01
  8.50000000E-01  8.50000000E-01  8.50000000E-01  8.50000000E-01  8.50000000E-01
  8.50000000E-01  8.50000000E-01  8.50000000E-01  8.50000000E-01  8.50000000E-01
  8.50000000E-01  8.50000000E-01  8.50000000E-01  8.50000000E-01  8.50000000E-01
  8.50000000E-01  8.50000000E-01  8.50000000E-01  8.50000000E-01  8.50000000E-01
  8.50000000E-01  8.50000000E-01  8.50000000E-01  8.50000000E-01  8.50000000E-01
  8.50000000E-01  8.50000000E-01  8.50000000E-01  8.50000000E-01  8.50000000E-01
  8.50000000E-01  8.50000000E-01  8.50000000E-01  8.50000000E-01  8.50000000E-01
  8.50000000E-01  8.50000000E-01  8.50000000E-01  8.50000000E-01  8.50000000E-01
  8.50000000E-01  8.50000000E-01  8.50000000E-01  8.50000000E-01  8.50000000E-01
  8.50000000E-01  8.50000000E-01  8.50000000E-01  8.50000000E-01  8.50000000E-01
  8.50000000E-01  8.50000000E-01  8.50000000E-01  8.50000000E-01  8.50000000E-01
  8.50000000E-01  8.50000000E-01  8.50000000E-01  8.50000000E-01  8.50000000E-01
  8.50000000E-01  8.50000000E-01  8.50000000E-01  8.50000000E-01  8.50000000E-01
  8.50000000E-01  8.50000000E-01  8.50000000E-01  8.50000000E-01  8.50000000E-01
  8.50000000E-01  8.50000000E-01  8.50000000E-01  8.50000000E-01  8.50000000E-01
  8.50000000E-01  8.50000000E-01  8.50000000E-01  8.50000000E-01  8.50000000E-01
  8.50000000E-01  8.50000000E-01  8.50000000E-01  8.50000000E-01  8.50000000E-01
  8.50000000E-01  8.50000000E-01  8.50000000E-01  8.50000000E-01  8.50000000E-01
  8.50000000E-01  8.50000000E-01  8.50000000E-01  8.50000000E-01  8.50000000E-01
  8.50000000E-01  8.50000000E-01  8.50000000E-01  8.50000000E-01  8.50000000E-01
  8.50000000E-01  8.50000000E-01  8.50000000E-01  8.50000000E-01  8.50000000E-01
  8.50000000E-01  8.50000000E-01  8.50000000E-01  8.50000000E-01  8.50000000E-01
  8.50000000E-01  8.50000000E-01  8.50000000E-01  8.50000000E-01  8.50000000E-01
  8.50000000E-01  8.50000000E-01  8.50000000E-01  8.50000000E-01  8.50000000E-01
  8.50000000E-01  8.50000000E-01  8.50000000E-01  8.50000000E-01  8.50000000E-01
  8.50000000E-01  8.50000000E-01  8.50000000E-01  8.50000000E-01  8.50000000E-01
  8.50000000E-01  8.50000000E-01  8.50000000E-01  8.50000000E-01  8.50000000E-01
  8.50000000E-01  8.50000000E-01  8.50000000E-01  8.50000000E-01  8.50000000E-01
  8.50000000E-01  8.50000000E-01  8.50000000E-01  8.50000000E-01  8.50000000E-01
  8.50000000E-01  8.50000000E-01  8.50000000E-01  8.50000000E-01  8.50000000E-01
  8.50000000E-01  8.50000000E-01  8.50000000E-01  8.50000000E-01  8.50000000E-01
  8.50000000E-01  8.50000000E-01  8.50000000E-01  8.50000000E-01  8.50000000E-01
  8.50000000E-01  8.50000000E-01  8.50000000E-01  8.50000000E-01  8.50000000E-01
  8.50000000E-01  8.50000000E-01  8.50000000E-01  8.50000000E-01  8.50000000E-01
  8.50000000E-01  8.50000000E-01  8.50000000E-01  8.50000000E-01  8.50000000E-01
  8.50000000E-01  8.50000000E-01  8.50000000E-01  8.50000000E-01  8.50000000E-01
  8.50000000E-01  8.50000000E-01  8.50000000E-01  8.50000000E-01  8.50000000E-01
  8.50000000E-01  8.50000000E-01  8.50000000E-01  8.50000000E-01  8.50000000E-01
  8.50000000E-01  8.50000000E-01  8.50000000E-01  8.50000000E-01  8.50000000E-01
  8.50000000E-01  8.50000000E-01  8.50000000E-01  8.50000000E-01  8.50000000E-01
  8.50000000E-01  8.50000000E-01  8.50000000E-01  8.50000000E-01  8.50000000E-01
  8.50000000E-01  8.50000000E-01  8.50000000E-01  8.50000000E-01  8.50000000E-01
  8.50000000E-01  8.50000000E-01  8.50000000E-01  8.50000000E-01  8.50000000E-01
  8.50000000E-01  8.50000000E-01  8.50000000E-01  8.50000000E-01  8.50000000E-01
  8.50000000E-01  8.50000000E-01  8.50000000E-01  8.50000000E-01  8.50000000E-01
  8.50000000E-01  8.50000000E-01  8.50000000E-01  8.50000000E-01  8.50000000E-01
  8.50000000E-01  8.50000000E-01  8.50000000E-01  8.50000000E-01  8.50000000E-01
  8.50000000E-01  8.50000000E-01  8.50000000E-01  8.50000000E-01  8.50000000E-01
  8.50000000E-01  8.50000000E-01  8.50000000E-01  8.50000000E-01  8.50000000E-01
  8.50000000E-01  8.50000000E-01  8.50000000E-01  8.50000000E-01  8.50000000E-01
  8.50000000E-01  8.50000000E-01  8.50000000E-01  8.50000000E-01  8.50000000E-01
  8.50000000E-01  8.50000000E-01  8.50000000E-01  8.50000000E-01  8.50000000E-01
  8.50000000E-01  8.50000000E-01  8.50000000E-01  8.50000000E-01  8.50000000E-01
  8.50000000E-01  8.50000000E-01  8.50000000E-01  8.50000000E-01  8.50000000E-01
  8.50000000E-01  8.50000000E-01  8.50000000E-01  8.50000000E-01  8.50000000E-01
  8.50000000E-01  8.50000000E-01  8.50000000E-01  8.50000000E-01  8.50000000E-01
  8.50000000E-01  8.50000000E-01  8.50000000E-01  8.50000000E-01  8.50000000E-01
  8.50000000E-01  8.50000000E-01  8.50000000E-01  8.50000000E-01  8.50000000E-01
  8.50000000E-01  8.50000000E-01  8.50000000E-01  8.50000000E-01  8.50000000E-01
  8.50000000E-01  8.50000000E-01  8.50000000E-01  8.50000000E-01  8.50000000E-01
  8.50000000E-01  8.50000000E-01  8.50000000E-01  8.50000000E-01  8.50000000E-01
  8.50000000E-01  8.50000000E-01  8.50000000E-01  8.50000000E-01  8.50000000E-01
  8.50000000E-01  8.50000000E-01  8.50000000E-01  8.50000000E-01  8.50000000E-01
  8.50000000E-01  8.50000000E-01  8.50000000E-01  8.50000000E-01  8.50000000E-01
  8.50000000E-01  8.50000000E-01  8.50000000E-01  8.50000000E-01  8.50000000E-01
  8.50000000E-01  8.50000000E-01  8.50000000E-01  8.50000000E-01  8.50000000E-01
  8.50000000E-01  8.50000000E-01  8.50000000E-01  8.50000000E-01  8.50000000E-01
  8.50000000E-01  8.50000000E-01  8.50000000E-01  8.50000000E-01  8.50000000E-01
  8.50000000E-01  8.50000000E-01  8.50000000E-01  8.50000000E-01  8.50000000E-01
  8.50000000E-01  8.50000000E-01  8.50000000E-01  8.50000000E-01  8.50000000E-01
  8.50000000E-01  8.50000000E-01  8.50000000E-01  8.50000000E-01  8.50000000E-01
  8.50000000E-01  8.50000000E-01  8.50000000E-01  8.50000000E-01  8.50000000E-01
  8.50000000E-01  8.50000000E-01  8.50000000E-01  8.50000000E-01  8.50000000E-01
  8.50000000E-01  8.50000000E-01  8.50000000E-01  8.50000000E-01  8.50000000E-01
  8.50000000E-01  8.50000000E-01  8.50000000E-01  8.50000000E-01  8.50000000E-01
  8.50000000E-01  8.50000000E-01  8.50000000E-01  8.50000000E-01  8.50000000E-01
  8.50000000E-01  8.50000000E-01  8.50000000E-01  8.50000000E-01  8.50000000E-01
  8.50000000E-01  8.50000000E-01  8.50000000E-01  8.50000000E-01  8.50000000E-01
  8.50000000E-01  8.50000000E-01  8.50000000E-01  8.50000000E-01  8.50000000E-01
  8.50000000E-01  8.50000000E-01  8.50000000E-01  8.50000000E-01  8.50000000E-01
  8.50000000E-01  8.50000000E-01  8.50000000E-01  8.50000000E-01  8.50000000E-01
  8.50000000E-01  8.50000000E-01  8.50000000E-01  8.50000000E-01  8.50000000E-01
  8.50000000E-01  8.50000000E-01  8.50000000E-01  8.50000000E-01  8.50000000E-01
  8.50000000E-01  8.50000000E-01  8.50000000E-01  8.50000000E-01  8.50000000E-01
  8.50000000E-01  8.50000000E-01  8.50000000E-01  8.50000000E-01  8.50000000E-01
  8.50000000E-01  8.50000000E-01  8.50000000E-01  8.50000000E-01  8.50000000E-01
  8.50000000E-01  8.50000000E-01  8.50000000E-01  8.50000000E-01  8.50000000E-01
  8.50000000E-01  8.50000000E-01  8.50000000E-01  8.50000000E-01  8.50000000E-01
  8.50000000E-01  8.50000000E-01  8.50000000E-01  8.50000000E-01  8.50000000E-01
  8.50000000E-01  8.50000000E-01  8.50000000E-01  8.50000000E-01  8.50000000E-01
  8.50000000E-01  8.50000000E-01  8.50000000E-01  8.50000000E-01  8.50000000E-01
  8.50000000E-01  8.50000000E-01  8.50000000E-01  8.50000000E-01  8.50000000E-01
  8.50000000E-01  8.50000000E-01  8.50000000E-01  8.50000000E-01  8.50000000E-01
  8.50000000E-01  8.50000000E-01  8.50000000E-01  8.50000000E-01  8.50000000E-01
  8.50000000E-01  8.50000000E-01  8.50000000E-01  8.50000000E-01  8.50000000E-01
  8.50000000E-01  8.50000000E-01  8.50000000E-01  8.50000000E-01  8.50000000E-01
  8.50000000E-01  8.50000000E-01  8.50000000E-01  8.50000000E-01  8.50000000E-01
  8.50000000E-01  8.50000000E-01  8.50000000E-01  8.50000000E-01  8.50000000E-01
  8.50000000E-01  8.50000000E-01  8.50000000E-01  8.50000000E-01  8.50000000E-01
  8.50000000E-01  8.50000000E-01  8.50000000E-01  8.50000000E-01  8.50000000E-01
  8.50000000E-01  8.50000000E-01  8.50000000E-01  8.50000000E-01  8.50000000E-01
  8.50000000E-01  8.50000000E-01  8.50000000E-01  8.50000000E-01  8.50000000E-01
  8.50000000E-01  8.50000000E-01  8.50000000E-01  8.50000000E-01  8.50000000E-01
  8.50000000E-01  8.50000000E-01  8.50000000E-01  8.50000000E-01  8.50000000E-01
  8.50000000E-01  8.50000000E-01  8.50000000E-01  8.50000000E-01  8.50000000E-01
  8.50000000E-01  8.50000000E-01  8.50000000E-01  8.50000000E-01  8.50000000E-01
  8.50000000E-01  8.50000000E-01  8.50000000E-01  8.50000000E-01  8.50000000E-01
  8.50000000E-01  8.50000000E-01  8.50000000E-01  8.50000000E-01  8.50000000E-01
  8.50000000E-01  8.50000000E-01  8.50000000E-01  8.50000000E-01  8.50000000E-01
  8.50000000E-01  8.50000000E-01  8.50000000E-01  8.50000000E-01  8.50000000E-01
  8.50000000E-01  8.50000000E-01  8.50000000E-01  8.50000000E-01  8.50000000E-01
  8.50000000E-01  8.50000000E-01  8.50000000E-01  8.50000000E-01  8.50000000E-01
  8.50000000E-01  8.50000000E-01  8.50000000E-01  8.50000000E-01  8.50000000E-01
  8.50000000E-01  8.50000000E-01  8.50000000E-01  8.50000000E-01  8.50000000E-01
  8.50000000E-01  8.50000000E-01  8.50000000E-01  8.50000000E-01  8.50000000E-01
  8.50000000E-01  8.50000000E-01  8.50000000E-01  8.50000000E-01  8.50000000E-01
  8.50000000E-01  8.50000000E-01  8.50000000E-01  8.50000000E-01  8.50000000E-01
  8.50000000E-01  8.50000000E-01  8.50000000E-01  8.50000000E-01  8.50000000E-01
  8.50000000E-01  8.50000000E-01  8.50000000E-01  8.50000000E-01  8.50000000E-01
  8.50000000E-01  8.50000000E-01  8.50000000E-01  8.50000000E-01  8.50000000E-01
  8.50000000E-01  8.50000000E-01  8.50000000E-01  8.50000000E-01  8.50000000E-01
  8.50000000E-01  8.50000000E-01  8.50000000E-01  8.50000000E-01  8.50000000E-01
  8.50000000E-01  8.50000000E-01  8.50000000E-01  8.50000000E-01  8.50000000E-01
  8.50000000E-01  8.50000000E-01  8.50000000E-01  8.50000000E-01  8.50000000E-01
  8.50000000E-01  8.50000000E-01  8.50000000E-01  8.50000000E-01  8.50000000E-01
  8.50000000E-01  8.50000000E-01  8.50000000E-01  8.50000000E-01  8.50000000E-01
  8.50000000E-01  8.50000000E-01  8.50000000E-01  8.50000000E-01  8.50000000E-01
  8.50000000E-01  8.50000000E-01  8.50000000E-01  8.50000000E-01  8.50000000E-01
  8.50000000E-01  8.50000000E-01  8.50000000E-01  8.50000000E-01  8.50000000E-01
  8.50000000E-01  8.50000000E-01  8.50000000E-01  8.50000000E-01  8.50000000E-01
  8.50000000E-01  8.50000000E-01  8.50000000E-01  8.50000000E-01  8.50000000E-01
  8.50000000E-01  8.50000000E-01  8.50000000E-01  8.50000000E-01  8.50000000E-01
  8.50000000E-01  8.50000000E-01  8.50000000E-01  8.50000000E-01  8.50000000E-01
  8.50000000E-01  8.50000000E-01  8.50000000E-01  8.50000000E-01  8.50000000E-01
  8.50000000E-01  8.50000000E-01  8.50000000E-01  8.50000000E-01  8.50000000E-01
  8.50000000E-01  8.50000000E-01  8.50000000E-01  8.50000000E-01  8.50000000E-01
  8.50000000E-01  8.50000000E-01  8.50000000E-01  8.50000000E-01  8.50000000E-01
  8.50000000E-01  8.50000000E-01  8.50000000E-01  8.50000000E-01  8.50000000E-01
  8.50000000E-01  8.50000000E-01  8.50000000E-01  8.50000000E-01  8.50000000E-01
  8.50000000E-01  8.50000000E-01  8.50000000E-01  8.50000000E-01  8.50000000E-01
  8.50000000E-01  8.50000000E-01  8.50000000E-01  8.50000000E-01  8.50000000E-01
  8.50000000E-01  8.50000000E-01  8.50000000E-01  8.50000000E-01  8.50000000E-01
  8.50000000E-01  8.50000000E-01  8.50000000E-01  8.50000000E-01  8.50000000E-01
  8.50000000E-01  8.50000000E-01  8.50000000E-01  8.50000000E-01  8.50000000E-01
  8.50000000E-01  8.50000000E-01  8.50000000E-01  8.50000000E-01  8.50000000E-01
  8.50000000E-01  8.50000000E-01  8.50000000E-01  8.50000000E-01  8.50000000E-01
  8.50000000E-01  8.50000000E-01  8.50000000E-01  8.50000000E-01  8.50000000E-01
  8.50000000E-01  8.50000000E-01  8.50000000E-01  8.50000000E-01  8.50000000E-01
  8.50000000E-01  8.50000000E-01  8.50000000E-01  8.50000000E-01  8.50000000E-01
  8.50000000E-01  8.50000000E-01  8.50000000E-01  8.50000000E-01  8.50000000E-01
  8.50000000E-01  8.50000000E-01  8.50000000E-01  8.50000000E-01  8.50000000E-01
  8.50000000E-01  8.50000000E-01  8.50000000E-01  8.50000000E-01  8.50000000E-01
  8.50000000E-01  8.50000000E-01  8.50000000E-01  8.50000000E-01  8.50000000E-01
  8.50000000E-01  8.50000000E-01  8.50000000E-01  8.50000000E-01  8.50000000E-01
  8.50000000E-01  8.50000000E-01  8.50000000E-01  8.50000000E-01  8.50000000E-01
  8.50000000E-01  8.50000000E-01  8.50000000E-01  8.50000000E-01  8.50000000E-01
  8.50000000E-01  8.50000000E-01  8.50000000E-01  8.50000000E-01  8.50000000E-01
  8.50000000E-01  8.50000000E-01  8.50000000E-01  8.50000000E-01  8.50000000E-01
  8.50000000E-01  8.50000000E-01  8.50000000E-01  8.50000000E-01  8.50000000E-01
  8.50000000E-01  8.50000000E-01  8.50000000E-01  8.50000000E-01  8.50000000E-01
  8.50000000E-01  8.50000000E-01  8.50000000E-01  8.50000000E-01  8.50000000E-01
  8.50000000E-01  8.50000000E-01  8.50000000E-01  8.50000000E-01  8.50000000E-01
  8.50000000E-01  8.50000000E-01  8.50000000E-01  8.50000000E-01  8.50000000E-01
  8.50000000E-01  8.50000000E-01  8.50000000E-01  8.50000000E-01  8.50000000E-01
  8.50000000E-01  8.50000000E-01  8.50000000E-01  8.50000000E-01  8.50000000E-01
  8.50000000E-01  8.50000000E-01  8.50000000E-01  8.50000000E-01  8.50000000E-01
  8.50000000E-01  8.50000000E-01  8.50000000E-01  8.50000000E-01  8.50000000E-01
  8.50000000E-01  8.50000000E-01  8.50000000E-01  8.50000000E-01  8.50000000E-01
  8.50000000E-01  8.50000000E-01  8.50000000E-01  8.50000000E-01  8.50000000E-01
  8.50000000E-01  8.50000000E-01  8.50000000E-01  8.50000000E-01  8.50000000E-01
  8.50000000E-01  8.50000000E-01  8.50000000E-01  8.50000000E-01  8.50000000E-01
  8.50000000E-01  8.50000000E-01  8.50000000E-01  8.50000000E-01  8.50000000E-01
  8.50000000E-01  8.50000000E-01  8.50000000E-01  8.50000000E-01  8.50000000E-01
  8.50000000E-01  8.50000000E-01  8.50000000E-01  8.50000000E-01  8.50000000E-01
  8.50000000E-01  8.50000000E-01  8.50000000E-01  8.50000000E-01  8.50000000E-01
  8.50000000E-01  8.50000000E-01  8.50000000E-01  8.50000000E-01  8.50000000E-01
  8.50000000E-01  8.50000000E-01  8.50000000E-01  8.50000000E-01  8.50000000E-01
  8.50000000E-01  8.50000000E-01  8.50000000E-01  8.50000000E-01  8.50000000E-01
  8.50000000E-01  8.50000000E-01  8.50000000E-01  8.50000000E-01  8.50000000E-01
  8.50000000E-01  8.50000000E-01  8.50000000E-01  8.50000000E-01  8.50000000E-01
  8.50000000E-01  8.50000000E-01  8.50000000E-01  8.50000000E-01  8.50000000E-01
  8.50000000E-01  8.50000000E-01  8.50000000E-01  8.50000000E-01  8.50000000E-01
  8.50000000E-01  8.50000000E-01  8.50000000E-01  8.50000000E-01  8.50000000E-01
  8.50000000E-01  8.50000000E-01  8.50000000E-01  8.50000000E-01  8.50000000E-01
  8.50000000E-01  8.50000000E-01  8.50000000E-01  8.50000000E-01  8.50000000E-01
  8.50000000E-01  8.50000000E-01  8.50000000E-01  8.50000000E-01  8.50000000E-01
  8.50000000E-01  8.50000000E-01  8.50000000E-01  8.50000000E-01  8.50000000E-01
  8.50000000E-01  8.50000000E-01  8.50000000E-01  8.50000000E-01  8.50000000E-01
  8.50000000E-01  8.50000000E-01  8.50000000E-01  8.50000000E-01  8.50000000E-01
  8.50000000E-01  8.50000000E-01  8.50000000E-01  8.50000000E-01  8.50000000E-01
  8.50000000E-01  8.50000000E-01  8.50000000E-01  8.50000000E-01  8.50000000E-01
  8.50000000E-01  8.50000000E-01  8.50000000E-01  8.50000000E-01  8.50000000E-01
  8.50000000E-01  8.50000000E-01  8.50000000E-01  8.50000000E-01  8.50000000E-01
  8.50000000E-01  8.50000000E-01  8.50000000E-01  8.50000000E-01  8.50000000E-01
  8.50000000E-01  8.50000000E-01  8.50000000E-01  8.50000000E-01  8.50000000E-01
  8.50000000E-01  8.50000000E-01  8.50000000E-01  8.50000000E-01  8.50000000E-01
  8.50000000E-01  8.50000000E-01  8.50000000E-01  8.50000000E-01  8.50000000E-01
  8.50000000E-01  8.50000000E-01  8.50000000E-01  8.50000000E-01  8.50000000E-01
  8.50000000E-01  8.50000000E-01  8.50000000E-01  8.50000000E-01  8.50000000E-01
  8.50000000E-01  8.50000000E-01  8.50000000E-01  8.50000000E-01  8.50000000E-01
  8.50000000E-01  8.50000000E-01  8.50000000E-01  8.50000000E-01  8.50000000E-01
  8.50000000E-01  8.50000000E-01  8.50000000E-01  8.50000000E-01  8.50000000E-01
  8.50000000E-01  8.50000000E-01  8.50000000E-01  8.50000000E-01  8.50000000E-01
  8.50000000E-01  8.50000000E-01  8.50000000E-01  8.50000000E-01  8.50000000E-01
  8.50000000E-01  8.50000000E-01  8.50000000E-01  8.50000000E-01  8.50000000E-01
  8.50000000E-01  8.50000000E-01  8.50000000E-01  8.50000000E-01  8.50000000E-01
  8.50000000E-01  8.50000000E-01  8.50000000E-01  8.50000000E-01  8.50000000E-01
  8.50000000E-01  8.50000000E-01  8.50000000E-01  8.50000000E-01  8.50000000E-01
  8.50000000E-01  8.50000000E-01  8.50000000E-01  8.50000000E-01  8.50000000E-01
  8.50000000E-01  8.50000000E-01  8.50000000E-01  8.50000000E-01  8.50000000E-01
  8.50000000E-01  8.50000000E-01  8.50000000E-01  8.50000000E-01  8.50000000E-01
  8.50000000E-01  8.50000000E-01  8.50000000E-01  8.50000000E-01  8.50000000E-01
  8.50000000E-01  8.50000000E-01  8.50000000E-01  8.50000000E-01  8.50000000E-01
  8.50000000E-01  8.50000000E-01  8.50000000E-01  8.50000000E-01  8.50000000E-01
  8.50000000E-01  8.50000000E-01  8.50000000E-01  8.50000000E-01  8.50000000E-01
  8.50000000E-01  8.50000000E-01  8.50000000E-01  8.50000000E-01  8.50000000E-01
  8.50000000E-01  8.50000000E-01  8.50000000E-01  8.50000000E-01  8.50000000E-01
  8.50000000E-01  8.50000000E-01  8.50000000E-01  8.50000000E-01  8.50000000E-01
  8.50000000E-01  8.50000000E-01  8.50000000E-01  8.50000000E-01  8.50000000E-01
  8.50000000E-01  8.50000000E-01  8.50000000E-01  8.50000000E-01  8.50000000E-01
  8.50000000E-01  8.50000000E-01  8.50000000E-01  8.50000000E-01  8.50000000E-01
  8.50000000E-01  8.50000000E-01  8.50000000E-01  8.50000000E-01  8.50000000E-01
  8.50000000E-01  8.50000000E-01  8.50000000E-01  8.50000000E-01  8.50000000E-01
  8.50000000E-01  8.50000000E-01  8.50000000E-01  8.50000000E-01  8.50000000E-01
  8.50000000E-01  8.50000000E-01  8.50000000E-01  8.50000000E-01  8.50000000E-01
  8.50000000E-01  8.50000000E-01  8.50000000E-01  8.50000000E-01  8.50000000E-01
  8.50000000E-01  8.50000000E-01  8.50000000E-01  8.50000000E-01  8.50000000E-01
  8.50000000E-01  8.50000000E-01  8.50000000E-01  8.50000000E-01  8.50000000E-01
  8.50000000E-01  8.50000000E-01  8.50000000E-01  8.50000000E-01  8.50000000E-01
  8.50000000E-01  8.50000000E-01  8.50000000E-01  8.50000000E-01  8.50000000E-01
  8.50000000E-01  8.50000000E-01  8.50000000E-01  8.50000000E-01  8.50000000E-01
  8.50000000E-01  8.50000000E-01  8.50000000E-01  8.50000000E-01  8.50000000E-01
  8.50000000E-01  8.50000000E-01  8.50000000E-01  8.50000000E-01  8.50000000E-01
  8.50000000E-01  8.50000000E-01  8.50000000E-01  8.50000000E-01  8.50000000E-01
  8.50000000E-01  8.50000000E-01  8.50000000E-01  8.50000000E-01  8.50000000E-01
  8.50000000E-01  8.50000000E-01  8.50000000E-01  8.50000000E-01  8.50000000E-01
  8.50000000E-01  8.50000000E-01  8.50000000E-01  8.50000000E-01  8.50000000E-01
  8.50000000E-01  8.50000000E-01  8.50000000E-01  8.50000000E-01  8.50000000E-01
  8.50000000E-01  8.50000000E-01  8.50000000E-01  8.50000000E-01  8.50000000E-01
  8.50000000E-01  8.50000000E-01  8.50000000E-01  8.50000000E-01  8.50000000E-01
  8.50000000E-01  8.50000000E-01  8.50000000E-01  8.50000000E-01  8.50000000E-01
  8.50000000E-01  8.50000000E-01  8.50000000E-01  8.50000000E-01  8.50000000E-01
  8.50000000E-01  8.50000000E-01  8.50000000E-01  8.50000000E-01  8.50000000E-01
  8.50000000E-01  8.50000000E-01  8.50000000E-01  8.50000000E-01  8.50000000E-01
  8.50000000E-01  8.50000000E-01  8.50000000E-01  8.50000000E-01  8.50000000E-01
  8.50000000E-01  8.50000000E-01  8.50000000E-01  8.50000000E-01  8.50000000E-01
  8.50000000E-01  8.50000000E-01  8.50000000E-01  8.50000000E-01  8.50000000E-01
  8.50000000E-01  8.50000000E-01  8.50000000E-01  8.50000000E-01  8.50000000E-01
  8.50000000E-01  8.50000000E-01  8.50000000E-01  8.50000000E-01  8.50000000E-01
  8.50000000E-01  8.50000000E-01  8.50000000E-01  8.50000000E-01  8.50000000E-01
  8.50000000E-01  8.50000000E-01  8.50000000E-01  8.50000000E-01  8.50000000E-01
  8.50000000E-01  8.50000000E-01  8.50000000E-01  8.50000000E-01  8.50000000E-01
  8.50000000E-01  8.50000000E-01  8.50000000E-01  8.50000000E-01  8.50000000E-01
  8.50000000E-01  8.50000000E-01  8.50000000E-01  8.50000000E-01  8.50000000E-01
  8.50000000E-01  8.50000000E-01  8.50000000E-01  8.50000000E-01  8.50000000E-01
  8.50000000E-01  8.50000000E-01  8.50000000E-01  8.50000000E-01  8.50000000E-01
  8.50000000E-01  8.50000000E-01  8.50000000E-01  8.50000000E-01  8.50000000E-01
  8.50000000E-01  8.50000000E-01  8.50000000E-01  8.50000000E-01  8.50000000E-01
  8.50000000E-01  8.50000000E-01  8.50000000E-01  8.50000000E-01  8.50000000E-01
  8.50000000E-01  8.50000000E-01  8.50000000E-01  8.50000000E-01  8.50000000E-01
  8.50000000E-01  8.50000000E-01  8.50000000E-01  8.50000000E-01  8.50000000E-01
  8.50000000E-01  8.50000000E-01  8.50000000E-01  8.50000000E-01  8.50000000E-01
  8.50000000E-01  8.50000000E-01  8.50000000E-01  8.50000000E-01  8.50000000E-01
  8.50000000E-01  8.50000000E-01  8.50000000E-01  8.50000000E-01  8.50000000E-01
  8.50000000E-01  8.50000000E-01  8.50000000E-01  8.50000000E-01  8.50000000E-01
  8.50000000E-01  8.50000000E-01  8.50000000E-01  8.50000000E-01  8.50000000E-01
  8.50000000E-01  8.50000000E-01  8.50000000E-01  8.50000000E-01  8.50000000E-01
  8.50000000E-01  8.50000000E-01  8.50000000E-01  8.50000000E-01  8.50000000E-01
  8.50000000E-01  8.50000000E-01  8.50000000E-01  8.50000000E-01  8.50000000E-01
  8.50000000E-01  8.50000000E-01  8.50000000E-01  8.50000000E-01  8.50000000E-01
  8.50000000E-01  8.50000000E-01  8.50000000E-01  8.50000000E-01  8.50000000E-01
  8.50000000E-01  8.50000000E-01  8.50000000E-01  8.50000000E-01  8.50000000E-01
  8.50000000E-01  8.50000000E-01  8.50000000E-01  8.50000000E-01  8.50000000E-01
  8.50000000E-01  8.50000000E-01  8.50000000E-01  8.50000000E-01  8.50000000E-01
  8.50000000E-01  8.50000000E-01  8.50000000E-01  8.50000000E-01  8.50000000E-01
  8.50000000E-01  8.50000000E-01  8.50000000E-01  8.50000000E-01  8.50000000E-01
  8.50000000E-01  8.50000000E-01  8.50000000E-01  8.50000000E-01  8.50000000E-01
  8.50000000E-01  8.50000000E-01  8.50000000E-01  8.50000000E-01  8.50000000E-01
  8.50000000E-01  8.50000000E-01  8.50000000E-01  8.50000000E-01  8.50000000E-01
  8.50000000E-01  8.50000000E-01  8.50000000E-01  8.50000000E-01  8.50000000E-01
  8.50000000E-01  8.50000000E-01  8.50000000E-01  8.50000000E-01  8.50000000E-01
  8.50000000E-01  8.50000000E-01  8.50000000E-01  8.50000000E-01  8.50000000E-01
  8.50000000E-01  8.50000000E-01  8.50000000E-01  8.50000000E-01  8.50000000E-01
  8.50000000E-01  8.50000000E-01  8.50000000E-01  8.50000000E-01  8.50000000E-01
  8.50000000E-01  8.50000000E-01  8.50000000E-01  8.50000000E-01  8.50000000E-01
  8.50000000E-01  8.50000000E-01  8.50000000E-01  8.50000000E-01  8.50000000E-01
  8.50000000E-01  8.50000000E-01  8.50000000E-01  8.50000000E-01  8.50000000E-01
  8.50000000E-01  8.50000000E-01  8.50000000E-01  8.50000000E-01  8.50000000E-01
  8.50000000E-01  8.50000000E-01  8.50000000E-01  8.50000000E-01  8.50000000E-01
  8.50000000E-01  8.50000000E-01  8.50000000E-01  8.50000000E-01  8.50000000E-01
  8.50000000E-01  8.50000000E-01  8.50000000E-01  8.50000000E-01  8.50000000E-01
  8.50000000E-01  8.50000000E-01  8.50000000E-01  8.50000000E-01  8.50000000E-01
  8.50000000E-01  8.50000000E-01  8.50000000E-01  8.50000000E-01  8.50000000E-01
  8.50000000E-01  8.50000000E-01  8.50000000E-01  8.50000000E-01  8.50000000E-01
  8.50000000E-01  8.50000000E-01  8.50000000E-01  8.50000000E-01  8.50000000E-01
  8.50000000E-01  8.50000000E-01  8.50000000E-01  8.50000000E-01  8.50000000E-01
  8.50000000E-01  8.50000000E-01  8.50000000E-01  8.50000000E-01  8.50000000E-01
  8.50000000E-01  8.50000000E-01  8.50000000E-01  8.50000000E-01  8.50000000E-01
  8.50000000E-01  8.50000000E-01  8.50000000E-01  8.50000000E-01  8.50000000E-01
  8.50000000E-01  8.50000000E-01  8.50000000E-01  8.50000000E-01  8.50000000E-01
  8.50000000E-01  8.50000000E-01  8.50000000E-01  8.50000000E-01  8.50000000E-01
  8.50000000E-01  8.50000000E-01  8.50000000E-01  8.50000000E-01  8.50000000E-01
  8.50000000E-01  8.50000000E-01  8.50000000E-01  8.50000000E-01  8.50000000E-01
  8.50000000E-01  8.50000000E-01  8.50000000E-01  8.50000000E-01  8.50000000E-01
  8.50000000E-01  8.50000000E-01  8.50000000E-01  8.50000000E-01  8.50000000E-01
  8.50000000E-01  8.50000000E-01  8.50000000E-01  8.50000000E-01  8.50000000E-01
  8.50000000E-01  8.50000000E-01  8.50000000E-01  8.50000000E-01  8.50000000E-01
  8.50000000E-01  8.50000000E-01  8.50000000E-01  8.50000000E-01  8.50000000E-01
  8.50000000E-01  8.50000000E-01  8.50000000E-01  8.50000000E-01  8.50000000E-01
  8.50000000E-01  8.50000000E-01  8.50000000E-01  8.50000000E-01  8.50000000E-01
  8.50000000E-01  8.50000000E-01  8.50000000E-01  8.50000000E-01  8.50000000E-01
  8.50000000E-01  8.50000000E-01  8.50000000E-01  8.50000000E-01  8.50000000E-01
  8.50000000E-01  8.50000000E-01  8.50000000E-01  8.50000000E-01  8.50000000E-01
  8.50000000E-01  8.50000000E-01  8.50000000E-01  8.50000000E-01  8.50000000E-01
  8.50000000E-01  8.50000000E-01  8.50000000E-01  8.50000000E-01  8.50000000E-01
  8.50000000E-01  8.50000000E-01  8.50000000E-01  8.50000000E-01  8.50000000E-01
  8.50000000E-01  8.50000000E-01  8.50000000E-01  8.50000000E-01  8.50000000E-01
  8.50000000E-01  8.50000000E-01  8.50000000E-01  8.50000000E-01  8.50000000E-01
  8.50000000E-01  8.50000000E-01  8.50000000E-01  8.50000000E-01  8.50000000E-01
  8.50000000E-01  8.50000000E-01  8.50000000E-01  8.50000000E-01  8.50000000E-01
  8.50000000E-01  8.50000000E-01  8.50000000E-01  8.50000000E-01  8.50000000E-01
  8.50000000E-01  8.50000000E-01  8.50000000E-01  8.50000000E-01  8.50000000E-01
  8.50000000E-01  8.50000000E-01  8.50000000E-01  8.50000000E-01  8.50000000E-01
  8.50000000E-01  8.50000000E-01  8.50000000E-01  8.50000000E-01  8.50000000E-01
  8.50000000E-01  8.50000000E-01  8.50000000E-01  8.50000000E-01  8.50000000E-01
  8.50000000E-01  8.50000000E-01  8.50000000E-01  8.50000000E-01  8.50000000E-01
  8.50000000E-01  8.50000000E-01  8.50000000E-01  8.50000000E-01  8.50000000E-01
  8.50000000E-01  8.50000000E-01  8.50000000E-01  8.50000000E-01  8.50000000E-01
  8.50000000E-01  8.50000000E-01  8.50000000E-01  8.50000000E-01  8.50000000E-01
  8.50000000E-01  8.50000000E-01  8.50000000E-01  8.50000000E-01  8.50000000E-01
  8.50000000E-01  8.50000000E-01  8.50000000E-01  8.50000000E-01  8.50000000E-01
  8.50000000E-01  8.50000000E-01  8.50000000E-01  8.50000000E-01  8.50000000E-01
  8.50000000E-01  8.50000000E-01  8.50000000E-01  8.50000000E-01  8.50000000E-01
  8.50000000E-01  8.50000000E-01  8.50000000E-01  8.50000000E-01  8.50000000E-01
  8.50000000E-01  8.50000000E-01  8.50000000E-01  8.50000000E-01  8.50000000E-01
  8.50000000E-01  8.50000000E-01  8.50000000E-01  8.50000000E-01  8.50000000E-01
  8.50000000E-01  8.50000000E-01  8.50000000E-01  8.50000000E-01  8.50000000E-01
  8.50000000E-01  8.50000000E-01  8.50000000E-01  8.50000000E-01  8.50000000E-01
  8.50000000E-01  8.50000000E-01  8.50000000E-01  8.50000000E-01  8.50000000E-01
  8.50000000E-01  8.50000000E-01  8.50000000E-01  8.50000000E-01  8.50000000E-01
  8.50000000E-01  8.50000000E-01  8.50000000E-01  8.50000000E-01  8.50000000E-01
  8.50000000E-01  8.50000000E-01  8.50000000E-01  8.50000000E-01  8.50000000E-01
  8.50000000E-01  8.50000000E-01  8.50000000E-01  8.50000000E-01  8.50000000E-01
  8.50000000E-01  8.50000000E-01  8.50000000E-01  8.50000000E-01  8.50000000E-01
  8.50000000E-01  8.50000000E-01  8.50000000E-01  8.50000000E-01  8.50000000E-01
  8.50000000E-01  8.50000000E-01  8.50000000E-01  8.50000000E-01  8.50000000E-01
  8.50000000E-01  8.50000000E-01  8.50000000E-01  8.50000000E-01  8.50000000E-01
  8.50000000E-01  8.50000000E-01  8.50000000E-01  8.50000000E-01  8.50000000E-01
  8.50000000E-01  8.50000000E-01  8.50000000E-01  8.50000000E-01  8.50000000E-01
  8.50000000E-01  8.50000000E-01  8.50000000E-01  8.50000000E-01  8.50000000E-01
  8.50000000E-01  8.50000000E-01  8.50000000E-01  8.50000000E-01  8.50000000E-01
  8.50000000E-01  8.50000000E-01  8.50000000E-01  8.50000000E-01  8.50000000E-01
  8.50000000E-01  8.50000000E-01  8.50000000E-01  8.50000000E-01  8.50000000E-01
  8.50000000E-01  8.50000000E-01  8.50000000E-01  8.50000000E-01  8.50000000E-01
  8.50000000E-01  8.50000000E-01  8.50000000E-01  8.50000000E-01  8.50000000E-01
  8.50000000E-01  8.50000000E-01  8.50000000E-01  8.50000000E-01  8.50000000E-01
  8.50000000E-01  8.50000000E-01  8.50000000E-01  8.50000000E-01  8.50000000E-01
  8.50000000E-01  8.50000000E-01  8.50000000E-01  8.50000000E-01  8.50000000E-01
  8.50000000E-01  8.50000000E-01  8.50000000E-01  8.50000000E-01  8.50000000E-01
  8.50000000E-01  8.50000000E-01  8.50000000E-01  8.50000000E-01  8.50000000E-01
  8.50000000E-01  8.50000000E-01  8.50000000E-01  8.50000000E-01  8.50000000E-01
  8.50000000E-01  8.50000000E-01  8.50000000E-01  8.50000000E-01  8.50000000E-01
  8.50000000E-01  8.50000000E-01  8.50000000E-01  8.50000000E-01  8.50000000E-01
  8.50000000E-01  8.50000000E-01  8.50000000E-01  8.50000000E-01  8.50000000E-01
  8.50000000E-01  8.50000000E-01  8.50000000E-01  8.50000000E-01  8.50000000E-01
  8.50000000E-01  8.50000000E-01  8.50000000E-01  8.50000000E-01  8.50000000E-01
  8.50000000E-01  8.50000000E-01  8.50000000E-01  8.50000000E-01  8.50000000E-01
  8.50000000E-01  8.50000000E-01  8.50000000E-01  8.50000000E-01  8.50000000E-01
  8.50000000E-01  8.50000000E-01  8.50000000E-01  8.50000000E-01  8.50000000E-01
  8.50000000E-01  8.50000000E-01  8.50000000E-01  8.50000000E-01  8.50000000E-01
  8.50000000E-01  8.50000000E-01  8.50000000E-01  8.50000000E-01  8.50000000E-01
  8.50000000E-01  8.50000000E-01  8.50000000E-01  8.50000000E-01  8.50000000E-01
  8.50000000E-01  8.50000000E-01  8.50000000E-01  8.50000000E-01  8.50000000E-01
  8.50000000E-01  8.50000000E-01  8.50000000E-01  8.50000000E-01  8.50000000E-01
  8.50000000E-01  8.50000000E-01  8.50000000E-01  8.50000000E-01  8.50000000E-01
  8.50000000E-01  8.50000000E-01  8.50000000E-01  8.50000000E-01  8.50000000E-01
  8.50000000E-01  8.50000000E-01  8.50000000E-01  8.50000000E-01  8.50000000E-01
  8.50000000E-01  8.50000000E-01  8.50000000E-01  8.50000000E-01  8.50000000E-01
  8.50000000E-01  8.50000000E-01  8.50000000E-01  8.50000000E-01  8.50000000E-01
  8.50000000E-01  8.50000000E-01  8.50000000E-01  8.50000000E-01  8.50000000E-01
  8.50000000E-01  8.50000000E-01  8.50000000E-01  8.50000000E-01  8.50000000E-01
  8.50000000E-01  8.50000000E-01  8.50000000E-01  8.50000000E-01  8.50000000E-01
  8.50000000E-01  8.50000000E-01  8.50000000E-01  8.50000000E-01  8.50000000E-01
  8.50000000E-01  8.50000000E-01  8.50000000E-01  8.50000000E-01  8.50000000E-01
  8.50000000E-01  8.50000000E-01  8.50000000E-01  8.50000000E-01  8.50000000E-01
  8.50000000E-01  8.50000000E-01  8.50000000E-01  8.50000000E-01  8.50000000E-01
  8.50000000E-01  8.50000000E-01  8.50000000E-01  8.50000000E-01  8.50000000E-01
  8.50000000E-01  8.50000000E-01  8.50000000E-01  8.50000000E-01  8.50000000E-01
  8.50000000E-01  8.50000000E-01  8.50000000E-01  8.50000000E-01  8.50000000E-01
  8.50000000E-01  8.50000000E-01  8.50000000E-01  8.50000000E-01  8.50000000E-01
  8.50000000E-01  8.50000000E-01  8.50000000E-01  8.50000000E-01  8.50000000E-01
  8.50000000E-01  8.50000000E-01  8.50000000E-01  8.50000000E-01  8.50000000E-01
  8.50000000E-01  8.50000000E-01  8.50000000E-01  8.50000000E-01  8.50000000E-01
  8.50000000E-01  8.50000000E-01  8.50000000E-01  8.50000000E-01  8.50000000E-01
  8.50000000E-01  8.50000000E-01  8.50000000E-01  8.50000000E-01  8.50000000E-01
  8.50000000E-01  8.50000000E-01  8.50000000E-01  8.50000000E-01  8.50000000E-01
  8.50000000E-01  8.50000000E-01  8.50000000E-01  8.50000000E-01  8.50000000E-01
  8.50000000E-01  8.50000000E-01  8.50000000E-01  8.50000000E-01  8.50000000E-01
  8.50000000E-01  8.50000000E-01  8.50000000E-01  8.50000000E-01  8.50000000E-01
  8.50000000E-01  8.50000000E-01  8.50000000E-01  8.50000000E-01  8.50000000E-01
  8.50000000E-01  8.50000000E-01  8.50000000E-01  8.50000000E-01  8.50000000E-01
  8.50000000E-01  8.50000000E-01  8.50000000E-01  8.50000000E-01  8.50000000E-01
  8.50000000E-01  8.50000000E-01  8.50000000E-01  8.50000000E-01  8.50000000E-01
  8.50000000E-01  8.50000000E-01  8.50000000E-01  8.50000000E-01  8.50000000E-01
  8.50000000E-01  8.50000000E-01  8.50000000E-01  8.50000000E-01  8.50000000E-01
  8.50000000E-01  8.50000000E-01  8.50000000E-01  8.50000000E-01  8.50000000E-01
  8.50000000E-01  8.50000000E-01  8.50000000E-01  8.50000000E-01  8.50000000E-01
  8.50000000E-01  8.50000000E-01  8.50000000E-01  8.50000000E-01  8.50000000E-01
  8.50000000E-01  8.50000000E-01  8.50000000E-01  8.50000000E-01  8.50000000E-01
  8.50000000E-01  8.50000000E-01  8.50000000E-01  8.50000000E-01  8.50000000E-01
  8.50000000E-01  8.50000000E-01  8.50000000E-01  8.50000000E-01  8.50000000E-01
  8.50000000E-01  8.50000000E-01  8.50000000E-01  8.50000000E-01  8.50000000E-01
  8.50000000E-01  8.50000000E-01  8.50000000E-01  8.50000000E-01  8.50000000E-01
  8.50000000E-01  8.50000000E-01  8.50000000E-01  8.50000000E-01  8.50000000E-01
  8.50000000E-01  8.50000000E-01  8.50000000E-01  8.50000000E-01  8.50000000E-01
  8.50000000E-01  8.50000000E-01  8.50000000E-01  8.50000000E-01  8.50000000E-01
  8.50000000E-01  8.50000000E-01  8.50000000E-01  8.50000000E-01  8.50000000E-01
  8.50000000E-01  8.50000000E-01  8.50000000E-01  8.50000000E-01  8.50000000E-01
  8.50000000E-01  8.50000000E-01  8.50000000E-01  8.50000000E-01  8.50000000E-01
  8.50000000E-01  8.50000000E-01  8.50000000E-01  8.50000000E-01  8.50000000E-01
  8.50000000E-01  8.50000000E-01  8.50000000E-01  8.50000000E-01  8.50000000E-01
  8.50000000E-01  8.50000000E-01  8.50000000E-01  8.50000000E-01  8.50000000E-01
  8.50000000E-01  8.50000000E-01  8.50000000E-01  8.50000000E-01  8.50000000E-01
  8.50000000E-01  8.50000000E-01  8.50000000E-01  8.50000000E-01  8.50000000E-01
  8.50000000E-01  8.50000000E-01  8.50000000E-01  8.50000000E-01  8.50000000E-01
  8.50000000E-01  8.50000000E-01  8.50000000E-01  8.50000000E-01  8.50000000E-01
  8.50000000E-01  8.50000000E-01  8.50000000E-01  8.50000000E-01  8.50000000E-01
  8.50000000E-01  8.50000000E-01  8.50000000E-01  8.50000000E-01  8.50000000E-01
  8.50000000E-01  8.50000000E-01  8.50000000E-01  8.50000000E-01  8.50000000E-01
  8.50000000E-01  8.50000000E-01  8.50000000E-01  8.50000000E-01  8.50000000E-01
  8.50000000E-01  8.50000000E-01  8.50000000E-01  8.50000000E-01  8.50000000E-01
  8.50000000E-01  8.50000000E-01  8.50000000E-01  8.50000000E-01  8.50000000E-01
  8.50000000E-01  8.50000000E-01  8.50000000E-01  8.50000000E-01  8.50000000E-01
  8.50000000E-01  8.50000000E-01  8.50000000E-01  8.50000000E-01  8.50000000E-01
  8.50000000E-01  8.50000000E-01  8.50000000E-01  8.50000000E-01  8.50000000E-01
  8.50000000E-01  8.50000000E-01  8.50000000E-01  8.50000000E-01  8.50000000E-01
  8.50000000E-01  8.50000000E-01  8.50000000E-01  8.50000000E-01  8.50000000E-01
  8.50000000E-01  8.50000000E-01  8.50000000E-01  8.50000000E-01  8.50000000E-01
  8.50000000E-01  8.50000000E-01  8.50000000E-01  8.50000000E-01  8.50000000E-01
  8.50000000E-01  8.50000000E-01  8.50000000E-01  8.50000000E-01  8.50000000E-01
  8.50000000E-01  8.50000000E-01  8.50000000E-01  8.50000000E-01  8.50000000E-01
  8.50000000E-01  8.50000000E-01  8.50000000E-01  8.50000000E-01  8.50000000E-01
  8.50000000E-01  8.50000000E-01  8.50000000E-01  8.50000000E-01  8.50000000E-01
  8.50000000E-01  8.50000000E-01  8.50000000E-01  8.50000000E-01  8.50000000E-01
  8.50000000E-01  8.50000000E-01  8.50000000E-01  8.50000000E-01  8.50000000E-01
  8.50000000E-01  8.50000000E-01  8.50000000E-01  8.50000000E-01  8.50000000E-01
  8.50000000E-01  8.50000000E-01  8.50000000E-01  8.50000000E-01  8.50000000E-01
  8.50000000E-01  8.50000000E-01  8.50000000E-01  8.50000000E-01  8.50000000E-01
  8.50000000E-01  8.50000000E-01  8.50000000E-01  8.50000000E-01  8.50000000E-01
  8.50000000E-01  8.50000000E-01  8.50000000E-01  8.50000000E-01  8.50000000E-01
  8.50000000E-01  8.50000000E-01  8.50000000E-01  8.50000000E-01  8.50000000E-01
  8.50000000E-01  8.50000000E-01  8.50000000E-01  8.50000000E-01  8.50000000E-01
  8.50000000E-01  8.50000000E-01  8.50000000E-01  8.50000000E-01  8.50000000E-01
  8.50000000E-01  8.50000000E-01  8.50000000E-01  8.50000000E-01  8.50000000E-01
  8.50000000E-01  8.50000000E-01  8.50000000E-01  8.50000000E-01  8.50000000E-01
  8.50000000E-01  8.50000000E-01  8.50000000E-01  8.50000000E-01  8.50000000E-01
  8.50000000E-01  8.50000000E-01  8.50000000E-01  8.50000000E-01  8.50000000E-01
  8.50000000E-01  8.50000000E-01  8.50000000E-01  8.50000000E-01  8.50000000E-01
  8.50000000E-01  8.50000000E-01  8.50000000E-01  8.50000000E-01  8.50000000E-01
  8.50000000E-01  8.50000000E-01  8.50000000E-01  8.50000000E-01  8.50000000E-01
  8.50000000E-01  8.50000000E-01  8.50000000E-01  8.50000000E-01  8.50000000E-01
  8.50000000E-01  8.50000000E-01  8.50000000E-01  8.50000000E-01  8.50000000E-01
  8.50000000E-01  8.50000000E-01  8.50000000E-01  8.50000000E-01  8.50000000E-01
  8.50000000E-01  8.50000000E-01  8.50000000E-01  8.50000000E-01  8.50000000E-01
  8.50000000E-01  8.50000000E-01  8.50000000E-01  8.50000000E-01  8.50000000E-01
  8.50000000E-01  8.50000000E-01  8.50000000E-01  8.50000000E-01  8.50000000E-01
  8.50000000E-01  8.50000000E-01  8.50000000E-01  8.50000000E-01  8.50000000E-01
  8.50000000E-01  8.50000000E-01  8.50000000E-01  8.50000000E-01  8.50000000E-01
  8.50000000E-01  8.50000000E-01  8.50000000E-01  8.50000000E-01  8.50000000E-01
  8.50000000E-01  8.50000000E-01  8.50000000E-01  8.50000000E-01  8.50000000E-01
  8.50000000E-01  8.50000000E-01  8.50000000E-01  8.50000000E-01  8.50000000E-01
  8.50000000E-01  8.50000000E-01  8.50000000E-01  8.50000000E-01  8.50000000E-01
  8.50000000E-01  8.50000000E-01  8.50000000E-01  8.50000000E-01  8.50000000E-01
  8.50000000E-01  8.50000000E-01  8.50000000E-01  8.50000000E-01  8.50000000E-01
  8.50000000E-01  8.50000000E-01  8.50000000E-01  8.50000000E-01  8.50000000E-01
  8.50000000E-01  8.50000000E-01  8.50000000E-01  8.50000000E-01  8.50000000E-01
  8.50000000E-01  8.50000000E-01  8.50000000E-01  8.50000000E-01  8.50000000E-01
  8.50000000E-01  8.50000000E-01  8.50000000E-01  8.50000000E-01  8.50000000E-01
  8.50000000E-01  8.50000000E-01  8.50000000E-01  8.50000000E-01  8.50000000E-01
  8.50000000E-01  8.50000000E-01  8.50000000E-01  8.50000000E-01  8.50000000E-01
  8.50000000E-01  8.50000000E-01  8.50000000E-01  8.50000000E-01  8.50000000E-01
  8.50000000E-01  8.50000000E-01  8.50000000E-01  8.50000000E-01  8.50000000E-01
  8.50000000E-01  8.50000000E-01  8.50000000E-01  8.50000000E-01  8.50000000E-01
  8.50000000E-01  8.50000000E-01  8.50000000E-01  8.50000000E-01  8.50000000E-01
  8.50000000E-01  8.50000000E-01  8.50000000E-01  8.50000000E-01  8.50000000E-01
  8.50000000E-01  8.50000000E-01  8.50000000E-01  8.50000000E-01  8.50000000E-01
  8.50000000E-01  8.50000000E-01  8.50000000E-01  8.50000000E-01  8.50000000E-01
  8.50000000E-01  8.50000000E-01  8.50000000E-01  8.50000000E-01  8.50000000E-01
  8.50000000E-01  8.50000000E-01  8.50000000E-01  8.50000000E-01  8.50000000E-01
  8.50000000E-01  8.50000000E-01  8.50000000E-01  8.50000000E-01  8.50000000E-01
  8.50000000E-01  8.50000000E-01  8.50000000E-01  8.50000000E-01  8.50000000E-01
  8.50000000E-01  8.50000000E-01  8.50000000E-01  8.50000000E-01  8.50000000E-01
  8.50000000E-01  8.50000000E-01  8.50000000E-01  8.50000000E-01  8.50000000E-01
  8.50000000E-01  8.50000000E-01  8.50000000E-01  8.50000000E-01  8.50000000E-01
  8.50000000E-01  8.50000000E-01  8.50000000E-01  8.50000000E-01  8.50000000E-01
  8.50000000E-01  8.50000000E-01  8.50000000E-01  8.50000000E-01  8.50000000E-01
  8.50000000E-01  8.50000000E-01  8.50000000E-01  8.50000000E-01  8.50000000E-01
  8.50000000E-01  8.50000000E-01  8.50000000E-01  8.50000000E-01  8.50000000E-01
  8.50000000E-01  8.50000000E-01  8.50000000E-01  8.50000000E-01  8.50000000E-01
  8.50000000E-01  8.50000000E-01  8.50000000E-01  8.50000000E-01  8.50000000E-01
  8.50000000E-01  8.50000000E-01  8.50000000E-01  8.50000000E-01  8.50000000E-01
  8.50000000E-01  8.50000000E-01  8.50000000E-01  8.50000000E-01  8.50000000E-01
  8.50000000E-01  8.50000000E-01  8.50000000E-01  8.50000000E-01  8.50000000E-01
  8.50000000E-01  8.50000000E-01  8.50000000E-01  8.50000000E-01  8.50000000E-01
  8.50000000E-01  8.50000000E-01  8.50000000E-01  8.50000000E-01  8.50000000E-01
  8.50000000E-01  8.50000000E-01  8.50000000E-01  8.50000000E-01  8.50000000E-01
  8.50000000E-01  8.50000000E-01  8.50000000E-01  8.50000000E-01  8.50000000E-01
  8.50000000E-01  8.50000000E-01  8.50000000E-01  8.50000000E-01  8.50000000E-01
  8.50000000E-01  8.50000000E-01  8.50000000E-01  8.50000000E-01  8.50000000E-01
  8.50000000E-01  8.50000000E-01  8.50000000E-01  8.50000000E-01  8.50000000E-01
  8.50000000E-01  8.50000000E-01  8.50000000E-01  8.50000000E-01  8.50000000E-01
  8.50000000E-01  8.50000000E-01  8.50000000E-01  8.50000000E-01  8.50000000E-01
  8.50000000E-01  8.50000000E-01  8.50000000E-01  8.50000000E-01  8.50000000E-01
  8.50000000E-01  8.50000000E-01  8.50000000E-01  8.50000000E-01  8.50000000E-01
  8.50000000E-01  8.50000000E-01  8.50000000E-01  8.50000000E-01  8.50000000E-01
  8.50000000E-01  8.50000000E-01  8.50000000E-01  8.50000000E-01  8.50000000E-01
  8.50000000E-01  8.50000000E-01  8.50000000E-01  8.50000000E-01  8.50000000E-01
  8.50000000E-01  8.50000000E-01  8.50000000E-01  8.50000000E-01  8.50000000E-01
  8.50000000E-01  8.50000000E-01  8.50000000E-01  8.50000000E-01  8.50000000E-01
  8.50000000E-01  8.50000000E-01  8.50000000E-01  8.50000000E-01  8.50000000E-01
  8.50000000E-01  8.50000000E-01  8.50000000E-01  8.50000000E-01  8.50000000E-01
  8.50000000E-01  8.50000000E-01  8.50000000E-01  8.50000000E-01  8.50000000E-01
  8.50000000E-01  8.50000000E-01  8.50000000E-01  8.50000000E-01  8.50000000E-01
  8.50000000E-01  8.50000000E-01  8.50000000E-01  8.50000000E-01  8.50000000E-01
  8.50000000E-01  8.50000000E-01  8.50000000E-01  8.50000000E-01  8.50000000E-01
  8.50000000E-01  8.50000000E-01  8.50000000E-01  8.50000000E-01  8.50000000E-01
  8.50000000E-01  8.50000000E-01  8.50000000E-01  8.50000000E-01  8.50000000E-01
  8.50000000E-01  8.50000000E-01  8.50000000E-01  8.50000000E-01  8.50000000E-01
  8.50000000E-01  8.50000000E-01  8.50000000E-01  8.50000000E-01  8.50000000E-01
  8.50000000E-01  8.50000000E-01  8.50000000E-01  8.50000000E-01  8.50000000E-01
  8.50000000E-01  8.50000000E-01  8.50000000E-01  8.50000000E-01  8.50000000E-01
  8.50000000E-01  8.50000000E-01  8.50000000E-01  8.50000000E-01  8.50000000E-01
  8.50000000E-01  8.50000000E-01  8.50000000E-01  8.50000000E-01  8.50000000E-01
  8.50000000E-01  8.50000000E-01  8.50000000E-01  8.50000000E-01  8.50000000E-01
  8.50000000E-01  8.50000000E-01  8.50000000E-01  8.50000000E-01  8.50000000E-01
  8.50000000E-01  8.50000000E-01  8.50000000E-01  8.50000000E-01  8.50000000E-01
  8.50000000E-01  8.50000000E-01  8.50000000E-01  8.50000000E-01  8.50000000E-01
  8.50000000E-01  8.50000000E-01  8.50000000E-01  8.50000000E-01  8.50000000E-01
  8.50000000E-01  8.50000000E-01  8.50000000E-01  8.50000000E-01  8.50000000E-01
  8.50000000E-01  8.50000000E-01  8.50000000E-01  8.50000000E-01  8.50000000E-01
  8.50000000E-01  8.50000000E-01  8.50000000E-01  8.50000000E-01  8.50000000E-01
  8.50000000E-01  8.50000000E-01  8.50000000E-01  8.50000000E-01  8.50000000E-01
  8.50000000E-01  8.50000000E-01  8.50000000E-01  8.50000000E-01  8.50000000E-01
  8.50000000E-01  8.50000000E-01  8.50000000E-01  8.50000000E-01  8.50000000E-01
  8.50000000E-01  8.50000000E-01  8.50000000E-01  8.50000000E-01  8.50000000E-01
  8.50000000E-01  8.50000000E-01  8.50000000E-01  8.50000000E-01  8.50000000E-01
  8.50000000E-01  8.50000000E-01  8.50000000E-01  8.50000000E-01  8.50000000E-01
  8.50000000E-01  8.50000000E-01  8.50000000E-01  8.50000000E-01  8.50000000E-01
  8.50000000E-01  8.50000000E-01  8.50000000E-01  8.50000000E-01  8.50000000E-01
  8.50000000E-01  8.50000000E-01  8.50000000E-01  8.50000000E-01  8.50000000E-01
  8.50000000E-01  8.50000000E-01  8.50000000E-01  8.50000000E-01  8.50000000E-01
  8.50000000E-01  8.50000000E-01  8.50000000E-01  8.50000000E-01  8.50000000E-01
  8.50000000E-01  8.50000000E-01  8.50000000E-01  8.50000000E-01  8.50000000E-01
  8.50000000E-01  8.50000000E-01  8.50000000E-01  8.50000000E-01  8.50000000E-01
  8.50000000E-01  8.50000000E-01  8.50000000E-01  8.50000000E-01  8.50000000E-01
  8.50000000E-01  8.50000000E-01  8.50000000E-01  8.50000000E-01  8.50000000E-01
  8.50000000E-01  8.50000000E-01  8.50000000E-01  8.50000000E-01  8.50000000E-01
  8.50000000E-01  8.50000000E-01  8.50000000E-01  8.50000000E-01  8.50000000E-01
  8.50000000E-01  8.50000000E-01  8.50000000E-01  8.50000000E-01  8.50000000E-01
  8.50000000E-01  8.50000000E-01  8.50000000E-01  8.50000000E-01  8.50000000E-01
  8.50000000E-01  8.50000000E-01  8.50000000E-01  8.50000000E-01  8.50000000E-01
  8.50000000E-01  8.50000000E-01  8.50000000E-01  8.50000000E-01  8.50000000E-01
  8.50000000E-01  8.50000000E-01  8.50000000E-01  8.50000000E-01  8.50000000E-01
  8.50000000E-01  8.50000000E-01  8.50000000E-01  8.50000000E-01  8.50000000E-01
  8.50000000E-01  8.50000000E-01  8.50000000E-01  8.50000000E-01  8.50000000E-01
  8.50000000E-01  8.50000000E-01  8.50000000E-01  8.50000000E-01  8.50000000E-01
  8.50000000E-01  8.50000000E-01  8.50000000E-01  8.50000000E-01  8.50000000E-01
  8.50000000E-01  8.50000000E-01  8.50000000E-01  8.50000000E-01  8.50000000E-01
  8.50000000E-01  8.50000000E-01  8.50000000E-01  8.50000000E-01  8.50000000E-01
  8.50000000E-01  8.50000000E-01  8.50000000E-01  8.50000000E-01  8.50000000E-01
  8.50000000E-01  8.50000000E-01  8.50000000E-01  8.50000000E-01  8.50000000E-01
  8.50000000E-01  8.50000000E-01  8.50000000E-01  8.50000000E-01  8.50000000E-01
  8.50000000E-01  8.50000000E-01  8.50000000E-01  8.50000000E-01  8.50000000E-01
  8.50000000E-01  8.50000000E-01  8.50000000E-01  8.50000000E-01  8.50000000E-01
  8.50000000E-01  8.50000000E-01  8.50000000E-01  8.50000000E-01  8.50000000E-01
  8.50000000E-01  8.50000000E-01  8.50000000E-01  8.50000000E-01  8.50000000E-01
  8.50000000E-01  8.50000000E-01  8.50000000E-01  8.50000000E-01  8.50000000E-01
  8.50000000E-01  8.50000000E-01  8.50000000E-01  8.50000000E-01  8.50000000E-01
  8.50000000E-01  8.50000000E-01  8.50000000E-01  8.50000000E-01  8.50000000E-01
  8.50000000E-01  8.50000000E-01  8.50000000E-01  8.50000000E-01  8.50000000E-01
  8.50000000E-01  8.50000000E-01  8.50000000E-01  8.50000000E-01  8.50000000E-01
  8.50000000E-01  8.50000000E-01  8.50000000E-01  8.50000000E-01  8.50000000E-01
  8.50000000E-01  8.50000000E-01  8.50000000E-01  8.50000000E-01  8.50000000E-01
  8.50000000E-01  8.50000000E-01  8.50000000E-01  8.50000000E-01  8.50000000E-01
  8.50000000E-01  8.50000000E-01  8.50000000E-01  8.50000000E-01  8.50000000E-01
  8.50000000E-01  8.50000000E-01  8.50000000E-01  8.50000000E-01  8.50000000E-01
  8.50000000E-01  8.50000000E-01  8.50000000E-01  8.50000000E-01  8.50000000E-01
  8.50000000E-01  8.50000000E-01  8.50000000E-01  8.50000000E-01  8.50000000E-01
  8.50000000E-01  8.50000000E-01  8.50000000E-01  8.50000000E-01  8.50000000E-01
  8.50000000E-01  8.50000000E-01  8.50000000E-01  8.50000000E-01  8.50000000E-01
  8.50000000E-01  8.50000000E-01  8.50000000E-01  8.50000000E-01  8.50000000E-01
  8.50000000E-01  8.50000000E-01  8.50000000E-01  8.50000000E-01  8.50000000E-01
  8.50000000E-01  8.50000000E-01  8.50000000E-01  8.50000000E-01  8.50000000E-01
  8.50000000E-01  8.50000000E-01  8.50000000E-01  8.50000000E-01  8.50000000E-01
  8.50000000E-01  8.50000000E-01  8.50000000E-01  8.50000000E-01  8.50000000E-01
  8.50000000E-01  8.50000000E-01  8.50000000E-01  8.50000000E-01  8.50000000E-01
  8.50000000E-01  8.50000000E-01  8.50000000E-01  8.50000000E-01  8.50000000E-01
  8.50000000E-01  8.50000000E-01  8.50000000E-01  8.50000000E-01  8.50000000E-01
  8.50000000E-01  8.50000000E-01  8.50000000E-01  8.50000000E-01  8.50000000E-01
  8.50000000E-01  8.50000000E-01  8.50000000E-01  8.50000000E-01  8.50000000E-01
  8.50000000E-01  8.50000000E-01  8.50000000E-01  8.50000000E-01  8.50000000E-01
  8.50000000E-01  8.50000000E-01  8.50000000E-01  8.50000000E-01  8.50000000E-01
  8.50000000E-01  8.50000000E-01  8.50000000E-01  8.50000000E-01  8.50000000E-01
  8.50000000E-01  8.50000000E-01  8.50000000E-01  8.50000000E-01  8.50000000E-01
  8.50000000E-01  8.50000000E-01  8.50000000E-01  8.50000000E-01  8.50000000E-01
  8.50000000E-01  8.50000000E-01  8.50000000E-01  8.50000000E-01  8.50000000E-01
  8.50000000E-01  8.50000000E-01  8.50000000E-01  8.50000000E-01  8.50000000E-01
  8.50000000E-01  8.50000000E-01  8.50000000E-01  8.50000000E-01  8.50000000E-01
  8.50000000E-01  8.50000000E-01  8.50000000E-01  8.50000000E-01  8.50000000E-01
  8.50000000E-01  8.50000000E-01  8.50000000E-01  8.50000000E-01  8.50000000E-01
  8.50000000E-01  8.50000000E-01  8.50000000E-01  8.50000000E-01  8.50000000E-01
  8.50000000E-01  8.50000000E-01  8.50000000E-01  8.50000000E-01  8.50000000E-01
  8.50000000E-01  8.50000000E-01  8.50000000E-01  8.50000000E-01  8.50000000E-01
  8.50000000E-01  8.50000000E-01  8.50000000E-01  8.50000000E-01  8.50000000E-01
  8.50000000E-01  8.50000000E-01  8.50000000E-01  8.50000000E-01  8.50000000E-01
  8.50000000E-01  8.50000000E-01  8.50000000E-01  8.50000000E-01  8.50000000E-01
  8.50000000E-01  8.50000000E-01  8.50000000E-01  8.50000000E-01  8.50000000E-01
  8.50000000E-01  8.50000000E-01  8.50000000E-01  8.50000000E-01  8.50000000E-01
  8.50000000E-01  8.50000000E-01  8.50000000E-01  8.50000000E-01  8.50000000E-01
  8.50000000E-01  8.50000000E-01  8.50000000E-01  8.50000000E-01  8.50000000E-01
  8.50000000E-01  8.50000000E-01  8.50000000E-01  8.50000000E-01  8.50000000E-01
  8.50000000E-01  8.50000000E-01  8.50000000E-01  8.50000000E-01  8.50000000E-01
  8.50000000E-01  8.50000000E-01  8.50000000E-01  8.50000000E-01  8.50000000E-01
  8.50000000E-01  8.50000000E-01  8.50000000E-01  8.50000000E-01  8.50000000E-01
  8.50000000E-01  8.50000000E-01  8.50000000E-01  8.50000000E-01  8.50000000E-01
  8.50000000E-01  8.50000000E-01  8.50000000E-01  8.50000000E-01  8.50000000E-01
  8.50000000E-01  8.50000000E-01  8.50000000E-01  8.50000000E-01  8.50000000E-01
  8.50000000E-01  8.50000000E-01  8.50000000E-01  8.50000000E-01  8.50000000E-01
  8.50000000E-01  8.50000000E-01  8.50000000E-01  8.50000000E-01  8.50000000E-01
  8.50000000E-01  8.50000000E-01  8.50000000E-01  8.50000000E-01  8.50000000E-01
  8.50000000E-01  8.50000000E-01  8.50000000E-01  8.50000000E-01  8.50000000E-01
  8.50000000E-01  8.50000000E-01  8.50000000E-01  8.50000000E-01  8.50000000E-01
  8.50000000E-01  8.50000000E-01  8.50000000E-01  8.50000000E-01  8.50000000E-01
  8.50000000E-01  8.50000000E-01  8.50000000E-01  8.50000000E-01  8.50000000E-01
  8.50000000E-01  8.50000000E-01  8.50000000E-01  8.50000000E-01  8.50000000E-01
  8.50000000E-01  8.50000000E-01  8.50000000E-01  8.50000000E-01  8.50000000E-01
  8.50000000E-01  8.50000000E-01  8.50000000E-01  8.50000000E-01  8.50000000E-01
  8.50000000E-01  8.50000000E-01  8.50000000E-01  8.50000000E-01  8.50000000E-01
  8.50000000E-01  8.50000000E-01  8.50000000E-01  8.50000000E-01  8.50000000E-01
  8.50000000E-01  8.50000000E-01  8.50000000E-01  8.50000000E-01  8.50000000E-01
  8.50000000E-01  8.50000000E-01  8.50000000E-01  8.50000000E-01  8.50000000E-01
  8.50000000E-01  8.50000000E-01  8.50000000E-01  8.50000000E-01  8.50000000E-01
  8.50000000E-01  8.50000000E-01  8.50000000E-01  8.50000000E-01  8.50000000E-01
  8.50000000E-01  8.50000000E-01  8.50000000E-01  8.50000000E-01  8.50000000E-01
  8.50000000E-01  8.50000000E-01  8.50000000E-01  8.50000000E-01  8.50000000E-01
  8.50000000E-01  8.50000000E-01  8.50000000E-01  8.50000000E-01  8.50000000E-01
  8.50000000E-01  8.50000000E-01  8.50000000E-01  8.50000000E-01  8.50000000E-01
  8.50000000E-01  8.50000000E-01  8.50000000E-01  8.50000000E-01  8.50000000E-01
  8.50000000E-01  8.50000000E-01  8.50000000E-01  8.50000000E-01  8.50000000E-01
  8.50000000E-01  8.50000000E-01  8.50000000E-01  8.50000000E-01  8.50000000E-01
  8.50000000E-01  8.50000000E-01  8.50000000E-01  8.50000000E-01  8.50000000E-01
  8.50000000E-01  8.50000000E-01  8.50000000E-01  8.50000000E-01  8.50000000E-01
  8.50000000E-01  8.50000000E-01  8.50000000E-01  8.50000000E-01  8.50000000E-01
  8.50000000E-01  8.50000000E-01  8.50000000E-01  8.50000000E-01  8.50000000E-01
  8.50000000E-01  8.50000000E-01  8.50000000E-01  8.50000000E-01  8.50000000E-01
  8.50000000E-01  8.50000000E-01  8.50000000E-01  8.50000000E-01  8.50000000E-01
  8.50000000E-01  8.50000000E-01  8.50000000E-01  8.50000000E-01  8.50000000E-01
  8.50000000E-01  8.50000000E-01  8.50000000E-01  8.50000000E-01  8.50000000E-01
  8.50000000E-01  8.50000000E-01  8.50000000E-01  8.50000000E-01  8.50000000E-01
  8.50000000E-01  8.50000000E-01  8.50000000E-01  8.50000000E-01  8.50000000E-01
  8.50000000E-01  8.50000000E-01  8.50000000E-01  8.50000000E-01  8.50000000E-01
  8.50000000E-01  8.50000000E-01  8.50000000E-01  8.50000000E-01  8.50000000E-01
  8.50000000E-01  8.50000000E-01  8.50000000E-01  8.50000000E-01  8.50000000E-01
  8.50000000E-01  8.50000000E-01  8.50000000E-01  8.50000000E-01  8.50000000E-01
  8.50000000E-01  8.50000000E-01  8.50000000E-01  8.50000000E-01  8.50000000E-01
  8.50000000E-01  8.50000000E-01  8.50000000E-01  8.50000000E-01  8.50000000E-01
  8.50000000E-01  8.50000000E-01  8.50000000E-01  8.50000000E-01  8.50000000E-01
  8.50000000E-01  8.50000000E-01  8.50000000E-01  8.50000000E-01  8.50000000E-01
  8.50000000E-01  8.50000000E-01  8.50000000E-01  8.50000000E-01  8.50000000E-01
  8.50000000E-01  8.50000000E-01  8.50000000E-01  8.50000000E-01  8.50000000E-01
  8.50000000E-01  8.50000000E-01  8.50000000E-01  8.50000000E-01  8.50000000E-01
  8.50000000E-01  8.50000000E-01  8.50000000E-01  8.50000000E-01  8.50000000E-01
  8.50000000E-01  8.50000000E-01  8.50000000E-01  8.50000000E-01  8.50000000E-01
  8.50000000E-01  8.50000000E-01  8.50000000E-01  8.50000000E-01  8.50000000E-01
  8.50000000E-01  8.50000000E-01  8.50000000E-01  8.50000000E-01  8.50000000E-01
  8.50000000E-01  8.50000000E-01  8.50000000E-01  8.50000000E-01  8.50000000E-01
  8.50000000E-01  8.50000000E-01  8.50000000E-01  8.50000000E-01  8.50000000E-01
  8.50000000E-01  8.50000000E-01  8.50000000E-01  8.50000000E-01  8.50000000E-01
  8.50000000E-01  8.50000000E-01  8.50000000E-01  8.50000000E-01  8.50000000E-01
  8.50000000E-01  8.50000000E-01  8.50000000E-01  8.50000000E-01  8.50000000E-01
  8.50000000E-01  8.50000000E-01  8.50000000E-01  8.50000000E-01  8.50000000E-01
  8.50000000E-01  8.50000000E-01  8.50000000E-01  8.50000000E-01  8.50000000E-01
  8.50000000E-01  8.50000000E-01  8.50000000E-01  8.50000000E-01  8.50000000E-01
  8.50000000E-01  8.50000000E-01  8.50000000E-01  8.50000000E-01  8.50000000E-01
  8.50000000E-01  8.50000000E-01  8.50000000E-01  8.50000000E-01  8.50000000E-01
  8.50000000E-01  8.50000000E-01  8.50000000E-01  8.50000000E-01  8.50000000E-01
  8.50000000E-01  8.50000000E-01  8.50000000E-01  8.50000000E-01  8.50000000E-01
  8.50000000E-01  8.50000000E-01  8.50000000E-01  8.50000000E-01  8.50000000E-01
  8.50000000E-01  8.50000000E-01  8.50000000E-01  8.50000000E-01  8.50000000E-01
  8.50000000E-01  8.50000000E-01  8.50000000E-01  8.50000000E-01  8.50000000E-01
  8.50000000E-01  8.50000000E-01  8.50000000E-01  8.50000000E-01  8.50000000E-01
  8.50000000E-01  8.50000000E-01  8.50000000E-01  8.50000000E-01  8.50000000E-01
  8.50000000E-01  8.50000000E-01  8.50000000E-01  8.50000000E-01  8.50000000E-01
  8.50000000E-01  8.50000000E-01  8.50000000E-01  8.50000000E-01  8.50000000E-01
  8.50000000E-01  8.50000000E-01  8.50000000E-01  8.50000000E-01  8.50000000E-01
  8.50000000E-01  8.50000000E-01  8.50000000E-01  8.50000000E-01  8.50000000E-01
  8.50000000E-01  8.50000000E-01  8.50000000E-01  8.50000000E-01  8.50000000E-01
  8.50000000E-01  8.50000000E-01  8.50000000E-01  8.50000000E-01  8.50000000E-01
  8.50000000E-01  8.50000000E-01  8.50000000E-01  8.50000000E-01  8.50000000E-01
  8.50000000E-01  8.50000000E-01  8.50000000E-01  8.50000000E-01  8.50000000E-01
  8.50000000E-01  8.50000000E-01  8.50000000E-01  8.50000000E-01  8.50000000E-01
  8.50000000E-01  8.50000000E-01  8.50000000E-01  8.50000000E-01  8.50000000E-01
  8.50000000E-01  8.50000000E-01  8.50000000E-01  8.50000000E-01  8.50000000E-01
  8.50000000E-01  8.50000000E-01  8.50000000E-01  8.50000000E-01  8.50000000E-01
  8.50000000E-01  8.50000000E-01  8.50000000E-01  8.50000000E-01  8.50000000E-01
  8.50000000E-01  8.50000000E-01  8.50000000E-01  8.50000000E-01  8.50000000E-01
  8.50000000E-01  8.50000000E-01  8.50000000E-01  8.50000000E-01  8.50000000E-01
  8.50000000E-01  8.50000000E-01  8.50000000E-01  8.50000000E-01  8.50000000E-01
  8.50000000E-01  8.50000000E-01  8.50000000E-01  8.50000000E-01  8.50000000E-01
  8.50000000E-01  8.50000000E-01  8.50000000E-01  8.50000000E-01  8.50000000E-01
  8.50000000E-01  8.50000000E-01  8.50000000E-01  8.50000000E-01  8.50000000E-01
  8.50000000E-01  8.50000000E-01  8.50000000E-01  8.50000000E-01  8.50000000E-01
  8.50000000E-01  8.50000000E-01  8.50000000E-01  8.50000000E-01  8.50000000E-01
  8.50000000E-01  8.50000000E-01  8.50000000E-01  8.50000000E-01  8.50000000E-01
  8.50000000E-01  8.50000000E-01  8.50000000E-01  8.50000000E-01  8.50000000E-01
  8.50000000E-01  8.50000000E-01  8.50000000E-01  8.50000000E-01  8.50000000E-01
  8.50000000E-01  8.50000000E-01  8.50000000E-01  8.50000000E-01  8.50000000E-01
  8.50000000E-01  8.50000000E-01  8.50000000E-01  8.50000000E-01  8.50000000E-01
  8.50000000E-01  8.50000000E-01  8.50000000E-01  8.50000000E-01  8.50000000E-01
  8.50000000E-01  8.50000000E-01  8.50000000E-01  8.50000000E-01  8.50000000E-01
  8.50000000E-01  8.50000000E-01  8.50000000E-01  8.50000000E-01  8.50000000E-01
  8.50000000E-01  8.50000000E-01  8.50000000E-01  8.50000000E-01  8.50000000E-01
  8.50000000E-01  8.50000000E-01  8.50000000E-01  8.50000000E-01  8.50000000E-01
  8.50000000E-01  8.50000000E-01  8.50000000E-01  8.50000000E-01  8.50000000E-01
  8.50000000E-01  8.50000000E-01  8.50000000E-01  8.50000000E-01  8.50000000E-01
  8.50000000E-01  8.50000000E-01  8.50000000E-01  8.50000000E-01  8.50000000E-01
  8.50000000E-01  8.50000000E-01  8.50000000E-01  8.50000000E-01  8.50000000E-01
  8.50000000E-01  8.50000000E-01  8.50000000E-01  8.50000000E-01  8.50000000E-01
  8.50000000E-01  8.50000000E-01  8.50000000E-01  8.50000000E-01  8.50000000E-01
  8.50000000E-01  8.50000000E-01  8.50000000E-01  8.50000000E-01  8.50000000E-01
  8.50000000E-01  8.50000000E-01  8.50000000E-01  8.50000000E-01  8.50000000E-01
  8.50000000E-01  8.50000000E-01  8.50000000E-01  8.50000000E-01  8.50000000E-01
  8.50000000E-01  8.50000000E-01  8.50000000E-01  8.50000000E-01  8.50000000E-01
  8.50000000E-01  8.50000000E-01  8.50000000E-01  8.50000000E-01  8.50000000E-01
  8.50000000E-01  8.50000000E-01  8.50000000E-01  8.50000000E-01  8.50000000E-01
  8.50000000E-01  8.50000000E-01  8.50000000E-01  8.50000000E-01  8.50000000E-01
  8.50000000E-01  8.50000000E-01  8.50000000E-01  8.50000000E-01  8.50000000E-01
  8.50000000E-01  8.50000000E-01  8.50000000E-01  8.50000000E-01  8.50000000E-01
  8.50000000E-01  8.50000000E-01  8.50000000E-01  8.50000000E-01  8.50000000E-01
  8.50000000E-01  8.50000000E-01  8.50000000E-01  8.50000000E-01  8.50000000E-01
  8.50000000E-01  8.50000000E-01  8.50000000E-01  8.50000000E-01  8.50000000E-01
  8.50000000E-01  8.50000000E-01  8.50000000E-01  8.50000000E-01  8.50000000E-01
  8.50000000E-01  8.50000000E-01  8.50000000E-01  8.50000000E-01  8.50000000E-01
  8.50000000E-01  8.50000000E-01  8.50000000E-01  8.50000000E-01  8.50000000E-01
  8.50000000E-01  8.50000000E-01  8.50000000E-01  8.50000000E-01  8.50000000E-01
  8.50000000E-01  8.50000000E-01  8.50000000E-01  8.50000000E-01  8.50000000E-01
  8.50000000E-01  8.50000000E-01  8.50000000E-01  8.50000000E-01  8.50000000E-01
  8.50000000E-01  8.50000000E-01  8.50000000E-01  8.50000000E-01  8.50000000E-01
  8.50000000E-01  8.50000000E-01  8.50000000E-01  8.50000000E-01  8.50000000E-01
  8.50000000E-01  8.50000000E-01  8.50000000E-01  8.50000000E-01  8.50000000E-01
  8.50000000E-01  8.50000000E-01  8.50000000E-01  8.50000000E-01  8.50000000E-01
  8.50000000E-01  8.50000000E-01  8.50000000E-01  8.50000000E-01  8.50000000E-01
  8.50000000E-01  8.50000000E-01  8.50000000E-01  8.50000000E-01  8.50000000E-01
  8.50000000E-01  8.50000000E-01  8.50000000E-01  8.50000000E-01  8.50000000E-01
  8.50000000E-01  8.50000000E-01  8.50000000E-01  8.50000000E-01  8.50000000E-01
  8.50000000E-01  8.50000000E-01  8.50000000E-01  8.50000000E-01  8.50000000E-01
  8.50000000E-01  8.50000000E-01  8.50000000E-01  8.50000000E-01  8.50000000E-01
  8.50000000E-01  8.50000000E-01  8.50000000E-01  8.50000000E-01  8.50000000E-01
  8.50000000E-01  8.50000000E-01  8.50000000E-01  8.50000000E-01  8.50000000E-01
  8.50000000E-01  8.50000000E-01  8.50000000E-01  8.50000000E-01  8.50000000E-01
  8.50000000E-01  8.50000000E-01  8.50000000E-01  8.50000000E-01  8.50000000E-01
  8.50000000E-01  8.50000000E-01  8.50000000E-01  8.50000000E-01  8.50000000E-01
  8.50000000E-01  8.50000000E-01  8.50000000E-01  8.50000000E-01  8.50000000E-01
  8.50000000E-01  8.50000000E-01  8.50000000E-01  8.50000000E-01  8.50000000E-01
  8.50000000E-01  8.50000000E-01  8.50000000E-01  8.50000000E-01  8.50000000E-01
  8.50000000E-01  8.50000000E-01  8.50000000E-01  8.50000000E-01  8.50000000E-01
  8.50000000E-01  8.50000000E-01  8.50000000E-01  8.50000000E-01  8.50000000E-01
  8.50000000E-01  8.50000000E-01  8.50000000E-01  8.50000000E-01  8.50000000E-01
  8.50000000E-01  8.50000000E-01  8.50000000E-01  8.50000000E-01  8.50000000E-01
  8.50000000E-01  8.50000000E-01  8.50000000E-01  8.50000000E-01  8.50000000E-01
  8.50000000E-01  8.50000000E-01  8.50000000E-01  8.50000000E-01  8.50000000E-01
  8.50000000E-01  8.50000000E-01  8.50000000E-01  8.50000000E-01  8.50000000E-01
  8.50000000E-01  8.50000000E-01  8.50000000E-01  8.50000000E-01  8.50000000E-01
  8.50000000E-01  8.50000000E-01  8.50000000E-01  8.50000000E-01  8.50000000E-01
  8.50000000E-01  8.50000000E-01  8.50000000E-01  8.50000000E-01  8.50000000E-01
  8.50000000E-01  8.50000000E-01  8.50000000E-01  8.50000000E-01  8.50000000E-01
  8.50000000E-01  8.50000000E-01  8.50000000E-01  8.50000000E-01  8.50000000E-01
  8.50000000E-01  8.50000000E-01  8.50000000E-01  8.50000000E-01  8.50000000E-01
  8.50000000E-01  8.50000000E-01  8.50000000E-01  8.50000000E-01  8.50000000E-01
  8.50000000E-01  8.50000000E-01  8.50000000E-01  8.50000000E-01  8.50000000E-01
  8.50000000E-01  8.50000000E-01  8.50000000E-01  8.50000000E-01  8.50000000E-01
  8.50000000E-01  8.50000000E-01  8.50000000E-01  8.50000000E-01  8.50000000E-01
  8.50000000E-01  8.50000000E-01  8.50000000E-01  8.50000000E-01  8.50000000E-01
  8.50000000E-01  8.50000000E-01  8.50000000E-01  8.50000000E-01  8.50000000E-01
  8.50000000E-01  8.50000000E-01  8.50000000E-01  8.50000000E-01  8.50000000E-01
  8.50000000E-01  8.50000000E-01  8.50000000E-01  8.50000000E-01  8.50000000E-01
  8.50000000E-01  8.50000000E-01  8.50000000E-01  8.50000000E-01  8.50000000E-01
  8.50000000E-01  8.50000000E-01  8.50000000E-01  8.50000000E-01  8.50000000E-01
  8.50000000E-01  8.50000000E-01  8.50000000E-01  8.50000000E-01  8.50000000E-01
  8.50000000E-01  8.50000000E-01  8.50000000E-01  8.50000000E-01  8.50000000E-01
  8.50000000E-01  8.50000000E-01  8.50000000E-01  8.50000000E-01  8.50000000E-01
  8.50000000E-01  8.50000000E-01  8.50000000E-01  8.50000000E-01  8.50000000E-01
  8.50000000E-01  8.50000000E-01  8.50000000E-01  8.50000000E-01  8.50000000E-01
  8.50000000E-01  8.50000000E-01  8.50000000E-01  8.50000000E-01  8.50000000E-01
  8.50000000E-01  8.50000000E-01  8.50000000E-01  8.50000000E-01  8.50000000E-01
  8.50000000E-01  8.50000000E-01  8.50000000E-01  8.50000000E-01  8.50000000E-01
  8.50000000E-01  8.50000000E-01  8.50000000E-01  8.50000000E-01  8.50000000E-01
  8.50000000E-01  8.50000000E-01  8.50000000E-01  8.50000000E-01  8.50000000E-01
  8.50000000E-01  8.50000000E-01  8.50000000E-01  8.50000000E-01  8.50000000E-01
  8.50000000E-01  8.50000000E-01  8.50000000E-01  8.50000000E-01  8.50000000E-01
  8.50000000E-01  8.50000000E-01  8.50000000E-01  8.50000000E-01  8.50000000E-01
  8.50000000E-01  8.50000000E-01  8.50000000E-01  8.50000000E-01  8.50000000E-01
  8.50000000E-01  8.50000000E-01  8.50000000E-01  8.50000000E-01  8.50000000E-01
  8.50000000E-01  8.50000000E-01  8.50000000E-01  8.50000000E-01  8.50000000E-01
  8.50000000E-01  8.50000000E-01  8.50000000E-01  8.50000000E-01  8.50000000E-01
  8.50000000E-01  8.50000000E-01  8.50000000E-01  8.50000000E-01  8.50000000E-01
  8.50000000E-01  8.50000000E-01  8.50000000E-01  8.50000000E-01  8.50000000E-01
  8.50000000E-01  8.50000000E-01  8.50000000E-01  8.50000000E-01  8.50000000E-01
  8.50000000E-01  8.50000000E-01  8.50000000E-01  8.50000000E-01  8.50000000E-01
  8.50000000E-01  8.50000000E-01  8.50000000E-01  8.50000000E-01  8.50000000E-01
  8.50000000E-01  8.50000000E-01  8.50000000E-01  8.50000000E-01  8.50000000E-01
  8.50000000E-01  8.50000000E-01  8.50000000E-01  8.50000000E-01  8.50000000E-01
  8.50000000E-01  8.50000000E-01  8.50000000E-01  8.50000000E-01  8.50000000E-01
  8.50000000E-01  8.50000000E-01  8.50000000E-01  8.50000000E-01  8.50000000E-01
  8.50000000E-01  8.50000000E-01  8.50000000E-01  8.50000000E-01  8.50000000E-01
  8.50000000E-01  8.50000000E-01  8.50000000E-01  8.50000000E-01  8.50000000E-01
  8.50000000E-01  8.50000000E-01  8.50000000E-01  8.50000000E-01  8.50000000E-01
  8.50000000E-01  8.50000000E-01  8.50000000E-01  8.50000000E-01  8.50000000E-01
  8.50000000E-01  8.50000000E-01  8.50000000E-01  8.50000000E-01  8.50000000E-01
  8.50000000E-01  8.50000000E-01  8.50000000E-01  8.50000000E-01  8.50000000E-01
  8.50000000E-01  8.50000000E-01  8.50000000E-01  8.50000000E-01  8.50000000E-01
  8.50000000E-01  8.50000000E-01  8.50000000E-01  8.50000000E-01  8.50000000E-01
  8.50000000E-01  8.50000000E-01  8.50000000E-01  8.50000000E-01  8.50000000E-01
  8.50000000E-01  8.50000000E-01  8.50000000E-01  8.50000000E-01  8.50000000E-01
  8.50000000E-01  8.50000000E-01  8.50000000E-01  8.50000000E-01  8.50000000E-01
  8.50000000E-01  8.50000000E-01  8.50000000E-01  8.50000000E-01  8.50000000E-01
  8.50000000E-01  8.50000000E-01  8.50000000E-01  8.50000000E-01  8.50000000E-01
  8.50000000E-01  8.50000000E-01  8.50000000E-01  8.50000000E-01  8.50000000E-01
  8.50000000E-01  8.50000000E-01  8.50000000E-01  8.50000000E-01  8.50000000E-01
  8.50000000E-01  8.50000000E-01  8.50000000E-01  8.50000000E-01  8.50000000E-01
  8.50000000E-01  8.50000000E-01  8.50000000E-01  8.50000000E-01  8.50000000E-01
  8.50000000E-01  8.50000000E-01  8.50000000E-01  8.50000000E-01  8.50000000E-01
  8.50000000E-01  8.50000000E-01  8.50000000E-01  8.50000000E-01  8.50000000E-01
  8.50000000E-01  8.50000000E-01  8.50000000E-01  8.50000000E-01  8.50000000E-01
  8.50000000E-01  8.50000000E-01  8.50000000E-01  8.50000000E-01  8.50000000E-01
  8.50000000E-01  8.50000000E-01  8.50000000E-01  8.50000000E-01  8.50000000E-01
  8.50000000E-01  8.50000000E-01  8.50000000E-01  8.50000000E-01  8.50000000E-01
  8.50000000E-01  8.50000000E-01  8.50000000E-01  8.50000000E-01  8.50000000E-01
  8.50000000E-01  8.50000000E-01  8.50000000E-01  8.50000000E-01  8.50000000E-01
  8.50000000E-01  8.50000000E-01  8.50000000E-01  8.50000000E-01  8.50000000E-01
  8.50000000E-01  8.50000000E-01  8.50000000E-01  8.50000000E-01  8.50000000E-01
  8.50000000E-01  8.50000000E-01  8.50000000E-01  8.50000000E-01  8.50000000E-01
  8.50000000E-01  8.50000000E-01  8.50000000E-01  8.50000000E-01  8.50000000E-01
  8.50000000E-01  8.50000000E-01  8.50000000E-01  8.50000000E-01  8.50000000E-01
  8.50000000E-01  8.50000000E-01  8.50000000E-01  8.50000000E-01  8.50000000E-01
  8.50000000E-01  8.50000000E-01  8.50000000E-01  8.50000000E-01  8.50000000E-01
  8.50000000E-01  8.50000000E-01  8.50000000E-01  8.50000000E-01  8.50000000E-01
  8.50000000E-01  8.50000000E-01  8.50000000E-01  8.50000000E-01  8.50000000E-01
  8.50000000E-01  8.50000000E-01  8.50000000E-01  8.50000000E-01  8.50000000E-01
  8.50000000E-01  8.50000000E-01  8.50000000E-01  8.50000000E-01  8.50000000E-01
  8.50000000E-01  8.50000000E-01  8.50000000E-01  8.50000000E-01  8.50000000E-01
  8.50000000E-01  8.50000000E-01  8.50000000E-01  8.50000000E-01  8.50000000E-01
  8.50000000E-01  8.50000000E-01  8.50000000E-01  8.50000000E-01  8.50000000E-01
  8.50000000E-01  8.50000000E-01  8.50000000E-01  8.50000000E-01  8.50000000E-01
  8.50000000E-01  8.50000000E-01  8.50000000E-01  8.50000000E-01  8.50000000E-01
  8.50000000E-01  8.50000000E-01  8.50000000E-01  8.50000000E-01  8.50000000E-01
  8.50000000E-01  8.50000000E-01  8.50000000E-01  8.50000000E-01  8.50000000E-01
  8.50000000E-01  8.50000000E-01  8.50000000E-01  8.50000000E-01  8.50000000E-01
  8.50000000E-01  8.50000000E-01  8.50000000E-01  8.50000000E-01  8.50000000E-01
  8.50000000E-01  8.50000000E-01  8.50000000E-01  8.50000000E-01  8.50000000E-01
  8.50000000E-01  8.50000000E-01  8.50000000E-01  8.50000000E-01  8.50000000E-01
  8.50000000E-01  8.50000000E-01  8.50000000E-01  8.50000000E-01  8.50000000E-01
  8.50000000E-01  8.50000000E-01  8.50000000E-01  8.50000000E-01  8.50000000E-01
  8.50000000E-01  8.50000000E-01  8.50000000E-01  8.50000000E-01  8.50000000E-01
  8.50000000E-01  8.50000000E-01  8.50000000E-01  8.50000000E-01  8.50000000E-01
  8.50000000E-01  8.50000000E-01  8.50000000E-01  8.50000000E-01  8.50000000E-01
  8.50000000E-01  8.50000000E-01  8.50000000E-01  8.50000000E-01  8.50000000E-01
  8.50000000E-01  8.50000000E-01  8.50000000E-01  8.50000000E-01  8.50000000E-01
  8.50000000E-01  8.50000000E-01  8.50000000E-01  8.50000000E-01  8.50000000E-01
  8.50000000E-01  8.50000000E-01  8.50000000E-01  8.50000000E-01  8.50000000E-01
  8.50000000E-01  8.50000000E-01  8.50000000E-01  8.50000000E-01  8.50000000E-01
  8.50000000E-01  8.50000000E-01  8.50000000E-01  8.50000000E-01  8.50000000E-01
  8.50000000E-01  8.50000000E-01  8.50000000E-01  8.50000000E-01  8.50000000E-01
  8.50000000E-01  8.50000000E-01  8.50000000E-01  8.50000000E-01  8.50000000E-01
  8.50000000E-01  8.50000000E-01  8.50000000E-01  8.50000000E-01  8.50000000E-01
  8.50000000E-01  8.50000000E-01  8.50000000E-01  8.50000000E-01  8.50000000E-01
  8.50000000E-01  8.50000000E-01  8.50000000E-01  8.50000000E-01  8.50000000E-01
  8.50000000E-01  8.50000000E-01  8.50000000E-01  8.50000000E-01  8.50000000E-01
  8.50000000E-01  8.50000000E-01  8.50000000E-01  8.50000000E-01  8.50000000E-01
  8.50000000E-01  8.50000000E-01  8.50000000E-01  8.50000000E-01  8.50000000E-01
  8.50000000E-01  8.50000000E-01  8.50000000E-01  8.50000000E-01  8.50000000E-01
  8.50000000E-01  8.50000000E-01  8.50000000E-01  8.50000000E-01  8.50000000E-01
  8.50000000E-01  8.50000000E-01  8.50000000E-01  8.50000000E-01  8.50000000E-01
  8.50000000E-01  8.50000000E-01  8.50000000E-01  8.50000000E-01  8.50000000E-01
  8.50000000E-01  8.50000000E-01  8.50000000E-01  8.50000000E-01  8.50000000E-01
  8.50000000E-01  8.50000000E-01  8.50000000E-01  8.50000000E-01  8.50000000E-01
  8.50000000E-01  8.50000000E-01  8.50000000E-01  8.50000000E-01  8.50000000E-01
  8.50000000E-01  8.50000000E-01  8.50000000E-01  8.50000000E-01  8.50000000E-01
  8.50000000E-01  8.50000000E-01  8.50000000E-01  8.50000000E-01  8.50000000E-01
  8.50000000E-01  8.50000000E-01  8.50000000E-01  8.50000000E-01  8.50000000E-01
  8.50000000E-01  8.50000000E-01  8.50000000E-01  8.50000000E-01  8.50000000E-01
  8.50000000E-01  8.50000000E-01  8.50000000E-01  8.50000000E-01  8.50000000E-01
  8.50000000E-01  8.50000000E-01  8.50000000E-01  8.50000000E-01  8.50000000E-01
  8.50000000E-01  8.50000000E-01  8.50000000E-01  8.50000000E-01  8.50000000E-01
  8.50000000E-01  8.50000000E-01  8.50000000E-01  8.50000000E-01  8.50000000E-01
  8.50000000E-01  8.50000000E-01  8.50000000E-01  8.50000000E-01  8.50000000E-01
  8.50000000E-01  8.50000000E-01  8.50000000E-01  8.50000000E-01  8.50000000E-01
  8.50000000E-01  8.50000000E-01  8.50000000E-01  8.50000000E-01  8.50000000E-01
  8.50000000E-01  8.50000000E-01  8.50000000E-01  8.50000000E-01  8.50000000E-01
  8.50000000E-01  8.50000000E-01  8.50000000E-01  8.50000000E-01  8.50000000E-01
  8.50000000E-01  8.50000000E-01  8.50000000E-01  8.50000000E-01  8.50000000E-01
  8.50000000E-01  8.50000000E-01  8.50000000E-01  8.50000000E-01  8.50000000E-01
  8.50000000E-01  8.50000000E-01  8.50000000E-01  8.50000000E-01  8.50000000E-01
  8.50000000E-01  8.50000000E-01  8.50000000E-01  8.50000000E-01  8.50000000E-01
  8.50000000E-01  8.50000000E-01  8.50000000E-01  8.50000000E-01  8.50000000E-01
  8.50000000E-01  8.50000000E-01  8.50000000E-01  8.50000000E-01  8.50000000E-01
  8.50000000E-01  8.50000000E-01  8.50000000E-01  8.50000000E-01  8.50000000E-01
  8.50000000E-01  8.50000000E-01  8.50000000E-01  8.50000000E-01  8.50000000E-01
  8.50000000E-01  8.50000000E-01  8.50000000E-01  8.50000000E-01  8.50000000E-01
  8.50000000E-01  8.50000000E-01  8.50000000E-01  8.50000000E-01  8.50000000E-01
  8.50000000E-01  8.50000000E-01  8.50000000E-01  8.50000000E-01  8.50000000E-01
  8.50000000E-01  8.50000000E-01  8.50000000E-01  8.50000000E-01  8.50000000E-01
  8.50000000E-01  8.50000000E-01  8.50000000E-01  8.50000000E-01  8.50000000E-01
  8.50000000E-01  8.50000000E-01  8.50000000E-01  8.50000000E-01  8.50000000E-01
  8.50000000E-01  8.50000000E-01  8.50000000E-01  8.50000000E-01  8.50000000E-01
  8.50000000E-01  8.50000000E-01  8.50000000E-01  8.50000000E-01  8.50000000E-01
  8.50000000E-01  8.50000000E-01  8.50000000E-01  8.50000000E-01  8.50000000E-01
  8.50000000E-01  8.50000000E-01  8.50000000E-01  8.50000000E-01  8.50000000E-01
  8.50000000E-01  8.50000000E-01  8.50000000E-01  8.50000000E-01  8.50000000E-01
  8.50000000E-01  8.50000000E-01  8.50000000E-01  8.50000000E-01  8.50000000E-01
  8.50000000E-01  8.50000000E-01  8.50000000E-01  8.50000000E-01  8.50000000E-01
  8.50000000E-01  8.50000000E-01  8.50000000E-01  8.50000000E-01  8.50000000E-01
  8.50000000E-01  8.50000000E-01  8.50000000E-01  8.50000000E-01  8.50000000E-01
  8.50000000E-01  8.50000000E-01  8.50000000E-01  8.50000000E-01  8.50000000E-01
  8.50000000E-01  8.50000000E-01  8.50000000E-01  8.50000000E-01  8.50000000E-01
  8.50000000E-01  8.50000000E-01  8.50000000E-01  8.50000000E-01  8.50000000E-01
  8.50000000E-01  8.50000000E-01  8.50000000E-01  8.50000000E-01  8.50000000E-01
  8.50000000E-01  8.50000000E-01  8.50000000E-01  8.50000000E-01  8.50000000E-01
  8.50000000E-01  8.50000000E-01  8.50000000E-01  8.50000000E-01  8.50000000E-01
  8.50000000E-01  8.50000000E-01  8.50000000E-01  8.50000000E-01  8.50000000E-01
  8.50000000E-01  8.50000000E-01  8.50000000E-01  8.50000000E-01  8.50000000E-01
  8.50000000E-01  8.50000000E-01  8.50000000E-01  8.50000000E-01  8.50000000E-01
  8.50000000E-01  8.50000000E-01  8.50000000E-01  8.50000000E-01  8.50000000E-01
  8.50000000E-01  8.50000000E-01  8.50000000E-01  8.50000000E-01  8.50000000E-01
  8.50000000E-01  8.50000000E-01  8.50000000E-01  8.50000000E-01  8.50000000E-01
  8.50000000E-01  8.50000000E-01  8.50000000E-01  8.50000000E-01  8.50000000E-01
  8.50000000E-01  8.50000000E-01  8.50000000E-01  8.50000000E-01  8.50000000E-01
  8.50000000E-01  8.50000000E-01  8.50000000E-01  8.50000000E-01  8.50000000E-01
  8.50000000E-01  8.50000000E-01  8.50000000E-01  8.50000000E-01  8.50000000E-01
  8.50000000E-01  8.50000000E-01  8.50000000E-01  8.50000000E-01  8.50000000E-01
  8.50000000E-01  8.50000000E-01  8.50000000E-01  8.50000000E-01  8.50000000E-01
  8.50000000E-01  8.50000000E-01  8.50000000E-01  8.50000000E-01  8.50000000E-01
  8.50000000E-01  8.50000000E-01  8.50000000E-01  8.50000000E-01  8.50000000E-01
  8.50000000E-01  8.50000000E-01  8.50000000E-01  8.50000000E-01  8.50000000E-01
  8.50000000E-01  8.50000000E-01  8.50000000E-01  8.50000000E-01  8.50000000E-01
  8.50000000E-01  8.50000000E-01  8.50000000E-01  8.50000000E-01  8.50000000E-01
  8.50000000E-01  8.50000000E-01  8.50000000E-01  8.50000000E-01  8.50000000E-01
  8.50000000E-01  8.50000000E-01  8.50000000E-01  8.50000000E-01  8.50000000E-01
  8.50000000E-01  8.50000000E-01  8.50000000E-01  8.50000000E-01  8.50000000E-01
  8.50000000E-01  8.50000000E-01  8.50000000E-01  8.50000000E-01  8.50000000E-01
  8.50000000E-01  8.50000000E-01  8.50000000E-01  8.50000000E-01  8.50000000E-01
  8.50000000E-01  8.50000000E-01  8.50000000E-01  8.50000000E-01  8.50000000E-01
  8.50000000E-01  8.50000000E-01  8.50000000E-01  8.50000000E-01  8.50000000E-01
  8.50000000E-01  8.50000000E-01  8.50000000E-01  8.50000000E-01  8.50000000E-01
  8.50000000E-01  8.50000000E-01  8.50000000E-01  8.50000000E-01  8.50000000E-01
  8.50000000E-01  8.50000000E-01  8.50000000E-01  8.50000000E-01  8.50000000E-01
  8.50000000E-01  8.50000000E-01  8.50000000E-01  8.50000000E-01  8.50000000E-01
  8.50000000E-01  8.50000000E-01  8.50000000E-01  8.50000000E-01  8.50000000E-01
  8.50000000E-01  8.50000000E-01  8.50000000E-01  8.50000000E-01  8.50000000E-01
  8.50000000E-01  8.50000000E-01  8.50000000E-01  8.50000000E-01  8.50000000E-01
  8.50000000E-01  8.50000000E-01  8.50000000E-01  8.50000000E-01  8.50000000E-01
  8.50000000E-01  8.50000000E-01  8.50000000E-01  8.50000000E-01  8.50000000E-01
  8.50000000E-01  8.50000000E-01  8.50000000E-01  8.50000000E-01  8.50000000E-01
  8.50000000E-01  8.50000000E-01  8.50000000E-01  8.50000000E-01  8.50000000E-01
  8.50000000E-01  8.50000000E-01  8.50000000E-01  8.50000000E-01  8.50000000E-01
  8.50000000E-01  8.50000000E-01  8.50000000E-01  8.50000000E-01  8.50000000E-01
  8.50000000E-01  8.50000000E-01  8.50000000E-01  8.50000000E-01  8.50000000E-01
  8.50000000E-01  8.50000000E-01  8.50000000E-01  8.50000000E-01  8.50000000E-01
  8.50000000E-01  8.50000000E-01  8.50000000E-01  8.50000000E-01  8.50000000E-01
  8.50000000E-01  8.50000000E-01  8.50000000E-01  8.50000000E-01  8.50000000E-01
  8.50000000E-01  8.50000000E-01  8.50000000E-01  8.50000000E-01  8.50000000E-01
  8.50000000E-01  8.50000000E-01  8.50000000E-01  8.50000000E-01  8.50000000E-01
  8.50000000E-01  8.50000000E-01  8.50000000E-01  8.50000000E-01  8.50000000E-01
  8.50000000E-01  8.50000000E-01  8.50000000E-01  8.50000000E-01  8.50000000E-01
  8.50000000E-01  8.50000000E-01  8.50000000E-01  8.50000000E-01  8.50000000E-01
  8.50000000E-01  8.50000000E-01  8.50000000E-01  8.50000000E-01  8.50000000E-01
  8.50000000E-01  8.50000000E-01  8.50000000E-01  8.50000000E-01  8.50000000E-01
  8.50000000E-01  8.50000000E-01  8.50000000E-01  8.50000000E-01  8.50000000E-01
  8.50000000E-01  8.50000000E-01  8.50000000E-01  8.50000000E-01  8.50000000E-01
  8.50000000E-01  8.50000000E-01  8.50000000E-01  8.50000000E-01  8.50000000E-01
  8.50000000E-01  8.50000000E-01  8.50000000E-01  8.50000000E-01  8.50000000E-01
  8.50000000E-01  8.50000000E-01  8.50000000E-01  8.50000000E-01  8.50000000E-01
  8.50000000E-01  8.50000000E-01  8.50000000E-01  8.50000000E-01  8.50000000E-01
  8.50000000E-01  8.50000000E-01  8.50000000E-01  8.50000000E-01  8.50000000E-01
  8.50000000E-01  8.50000000E-01  8.50000000E-01  8.50000000E-01  8.50000000E-01
  8.50000000E-01  8.50000000E-01  8.50000000E-01  8.50000000E-01  8.50000000E-01
  8.50000000E-01  8.50000000E-01  8.50000000E-01  8.50000000E-01  8.50000000E-01
  8.50000000E-01  8.50000000E-01  8.50000000E-01  8.50000000E-01  8.50000000E-01
  8.50000000E-01  8.50000000E-01  8.50000000E-01  8.50000000E-01  8.50000000E-01
  8.50000000E-01  8.50000000E-01  8.50000000E-01  8.50000000E-01  8.50000000E-01
  8.50000000E-01  8.50000000E-01  8.50000000E-01  8.50000000E-01  8.50000000E-01
  8.50000000E-01  8.50000000E-01  8.50000000E-01  8.50000000E-01  8.50000000E-01
  8.50000000E-01  8.50000000E-01  8.50000000E-01  8.50000000E-01  8.50000000E-01
  8.50000000E-01  8.50000000E-01  8.50000000E-01  8.50000000E-01  8.50000000E-01
  8.50000000E-01  8.50000000E-01  8.50000000E-01  8.50000000E-01  8.50000000E-01
  8.50000000E-01  8.50000000E-01  8.50000000E-01  8.50000000E-01  8.50000000E-01
  8.50000000E-01  8.50000000E-01  8.50000000E-01  8.50000000E-01  8.50000000E-01
  8.50000000E-01  8.50000000E-01  8.50000000E-01  8.50000000E-01  8.50000000E-01
  8.50000000E-01  8.50000000E-01  8.50000000E-01  8.50000000E-01  8.50000000E-01
  8.50000000E-01  8.50000000E-01  8.50000000E-01  8.50000000E-01  8.50000000E-01
  8.50000000E-01  8.50000000E-01  8.50000000E-01  8.50000000E-01  8.50000000E-01
  8.50000000E-01  8.50000000E-01  8.50000000E-01  8.50000000E-01  8.50000000E-01
  8.50000000E-01  8.50000000E-01  8.50000000E-01  8.50000000E-01  8.50000000E-01
  8.50000000E-01  8.50000000E-01  8.50000000E-01  8.50000000E-01  8.50000000E-01
  8.50000000E-01  8.50000000E-01  8.50000000E-01  8.50000000E-01  8.50000000E-01
  8.50000000E-01  8.50000000E-01  8.50000000E-01  8.50000000E-01  8.50000000E-01
  8.50000000E-01  8.50000000E-01  8.50000000E-01  8.50000000E-01  8.50000000E-01
  8.50000000E-01  8.50000000E-01  8.50000000E-01  8.50000000E-01  8.50000000E-01
  8.50000000E-01  8.50000000E-01  8.50000000E-01  8.50000000E-01  8.50000000E-01
  8.50000000E-01  8.50000000E-01  8.50000000E-01  8.50000000E-01  8.50000000E-01
  8.50000000E-01  8.50000000E-01  8.50000000E-01  8.50000000E-01  8.50000000E-01
  8.50000000E-01  8.50000000E-01  8.50000000E-01  8.50000000E-01  8.50000000E-01
  8.50000000E-01  8.50000000E-01  8.50000000E-01  8.50000000E-01  8.50000000E-01
  8.50000000E-01  8.50000000E-01  8.50000000E-01  8.50000000E-01  8.50000000E-01
  8.50000000E-01  8.50000000E-01  8.50000000E-01  8.50000000E-01  8.50000000E-01
  8.50000000E-01  8.50000000E-01  8.50000000E-01  8.50000000E-01  8.50000000E-01
  8.50000000E-01  8.50000000E-01  8.50000000E-01  8.50000000E-01  8.50000000E-01
  8.50000000E-01  8.50000000E-01  8.50000000E-01  8.50000000E-01  8.50000000E-01
  8.50000000E-01  8.50000000E-01  8.50000000E-01  8.50000000E-01  8.50000000E-01
  8.50000000E-01  8.50000000E-01  8.50000000E-01  8.50000000E-01  8.50000000E-01
  8.50000000E-01  8.50000000E-01  8.50000000E-01  8.50000000E-01  8.50000000E-01
  8.50000000E-01  8.50000000E-01  8.50000000E-01  8.50000000E-01  8.50000000E-01
  8.50000000E-01  8.50000000E-01  8.50000000E-01  8.50000000E-01  8.50000000E-01
  8.50000000E-01  8.50000000E-01  8.50000000E-01  8.50000000E-01  8.50000000E-01
  8.50000000E-01  8.50000000E-01  8.50000000E-01  8.50000000E-01  8.50000000E-01
  8.50000000E-01  8.50000000E-01  8.50000000E-01  8.50000000E-01  8.50000000E-01
  8.50000000E-01  8.50000000E-01  8.50000000E-01  8.50000000E-01  8.50000000E-01
  8.50000000E-01  8.50000000E-01  8.50000000E-01  8.50000000E-01  8.50000000E-01
  8.50000000E-01  8.50000000E-01  8.50000000E-01  8.50000000E-01  8.50000000E-01
  8.50000000E-01  8.50000000E-01  8.50000000E-01  8.50000000E-01  8.50000000E-01
  8.50000000E-01  8.50000000E-01  8.50000000E-01  8.50000000E-01  8.50000000E-01
  8.50000000E-01  8.50000000E-01  8.50000000E-01  8.50000000E-01  8.50000000E-01
  8.50000000E-01  8.50000000E-01  8.50000000E-01  8.50000000E-01  8.50000000E-01
  8.50000000E-01  8.50000000E-01  8.50000000E-01  8.50000000E-01  8.50000000E-01
  8.50000000E-01  8.50000000E-01  8.50000000E-01  8.50000000E-01  8.50000000E-01
  8.50000000E-01  8.50000000E-01  8.50000000E-01  8.50000000E-01  8.50000000E-01
  8.50000000E-01  8.50000000E-01  8.50000000E-01  8.50000000E-01  8.50000000E-01
  8.50000000E-01  8.50000000E-01  8.50000000E-01  8.50000000E-01  8.50000000E-01
  8.50000000E-01  8.50000000E-01  8.50000000E-01  8.50000000E-01  8.50000000E-01
  8.50000000E-01  8.50000000E-01  8.50000000E-01  8.50000000E-01  8.50000000E-01
  8.50000000E-01  8.50000000E-01  8.50000000E-01  8.50000000E-01  8.50000000E-01
  8.50000000E-01  8.50000000E-01  8.50000000E-01  8.50000000E-01  8.50000000E-01
  8.50000000E-01  8.50000000E-01  8.50000000E-01  8.50000000E-01  8.50000000E-01
  8.50000000E-01  8.50000000E-01  8.50000000E-01  8.50000000E-01  8.50000000E-01
  8.50000000E-01  8.50000000E-01  8.50000000E-01  8.50000000E-01  8.50000000E-01
  8.50000000E-01  8.50000000E-01  8.50000000E-01  8.50000000E-01  8.50000000E-01
  8.50000000E-01  8.50000000E-01  8.50000000E-01  8.50000000E-01  8.50000000E-01
  8.50000000E-01  8.50000000E-01  8.50000000E-01  8.50000000E-01  8.50000000E-01
  8.50000000E-01  8.50000000E-01  8.50000000E-01  8.50000000E-01  8.50000000E-01
  8.50000000E-01  8.50000000E-01  8.50000000E-01  8.50000000E-01  8.50000000E-01
  8.50000000E-01  8.50000000E-01  8.50000000E-01  8.50000000E-01  8.50000000E-01
  8.50000000E-01  8.50000000E-01  8.50000000E-01  8.50000000E-01  8.50000000E-01
  8.50000000E-01  8.50000000E-01  8.50000000E-01  8.50000000E-01  8.50000000E-01
  8.50000000E-01  8.50000000E-01  8.50000000E-01  8.50000000E-01  8.50000000E-01
  8.50000000E-01  8.50000000E-01  8.50000000E-01  8.50000000E-01  8.50000000E-01
  8.50000000E-01  8.50000000E-01  8.50000000E-01  8.50000000E-01  8.50000000E-01
  8.50000000E-01  8.50000000E-01  8.50000000E-01  8.50000000E-01  8.50000000E-01
  8.50000000E-01  8.50000000E-01  8.50000000E-01  8.50000000E-01  8.50000000E-01
  8.50000000E-01  8.50000000E-01  8.50000000E-01  8.50000000E-01  8.50000000E-01
  8.50000000E-01  8.50000000E-01  8.50000000E-01  8.50000000E-01  8.50000000E-01
  8.50000000E-01  8.50000000E-01  8.50000000E-01  8.50000000E-01  8.50000000E-01
  8.50000000E-01  8.50000000E-01  8.50000000E-01  8.50000000E-01  8.50000000E-01
  8.50000000E-01  8.50000000E-01  8.50000000E-01  8.50000000E-01  8.50000000E-01
  8.50000000E-01  8.50000000E-01  8.50000000E-01  8.50000000E-01  8.50000000E-01
  8.50000000E-01  8.50000000E-01  8.50000000E-01  8.50000000E-01  8.50000000E-01
  8.50000000E-01  8.50000000E-01  8.50000000E-01  8.50000000E-01  8.50000000E-01
  8.50000000E-01  8.50000000E-01  8.50000000E-01  8.50000000E-01  8.50000000E-01
  8.50000000E-01  8.50000000E-01  8.50000000E-01  8.50000000E-01  8.50000000E-01
  8.50000000E-01  8.50000000E-01  8.50000000E-01  8.50000000E-01  8.50000000E-01
  8.50000000E-01  8.50000000E-01  8.50000000E-01  8.50000000E-01  8.50000000E-01
  8.50000000E-01  8.50000000E-01  8.50000000E-01  8.50000000E-01  8.50000000E-01
  8.50000000E-01  8.50000000E-01  8.50000000E-01  8.50000000E-01  8.50000000E-01
  8.50000000E-01  8.50000000E-01  8.50000000E-01  8.50000000E-01  8.50000000E-01
  8.50000000E-01  8.50000000E-01  8.50000000E-01  8.50000000E-01  8.50000000E-01
  8.50000000E-01  8.50000000E-01  8.50000000E-01  8.50000000E-01  8.50000000E-01
  8.50000000E-01  8.50000000E-01  8.50000000E-01  8.50000000E-01  8.50000000E-01
  8.50000000E-01  8.50000000E-01  8.50000000E-01  8.50000000E-01  8.50000000E-01
  8.50000000E-01  8.50000000E-01  8.50000000E-01  8.50000000E-01  8.50000000E-01
  8.50000000E-01  8.50000000E-01  8.50000000E-01  8.50000000E-01  8.50000000E-01
  8.50000000E-01  8.50000000E-01  8.50000000E-01  8.50000000E-01  8.50000000E-01
  8.50000000E-01  8.50000000E-01  8.50000000E-01  8.50000000E-01  8.50000000E-01
  8.50000000E-01  8.50000000E-01  8.50000000E-01  8.50000000E-01  8.50000000E-01
  8.50000000E-01  8.50000000E-01  8.50000000E-01  8.50000000E-01  8.50000000E-01
  8.50000000E-01  8.50000000E-01  8.50000000E-01  8.50000000E-01  8.50000000E-01
  8.50000000E-01  8.50000000E-01  8.50000000E-01  8.50000000E-01  8.50000000E-01
  8.50000000E-01  8.50000000E-01  8.50000000E-01  8.50000000E-01  8.50000000E-01
  8.50000000E-01  8.50000000E-01  8.50000000E-01  8.50000000E-01  8.50000000E-01
  8.50000000E-01  8.50000000E-01  8.50000000E-01  8.50000000E-01  8.50000000E-01
  8.50000000E-01  8.50000000E-01  8.50000000E-01  8.50000000E-01  8.50000000E-01
  8.50000000E-01  8.50000000E-01  8.50000000E-01  8.50000000E-01  8.50000000E-01
  8.50000000E-01  8.50000000E-01  8.50000000E-01  8.50000000E-01  8.50000000E-01
  8.50000000E-01  8.50000000E-01  8.50000000E-01  8.50000000E-01  8.50000000E-01
  8.50000000E-01  8.50000000E-01  8.50000000E-01  8.50000000E-01  8.50000000E-01
  8.50000000E-01  8.50000000E-01  8.50000000E-01  8.50000000E-01  8.50000000E-01
  8.50000000E-01  8.50000000E-01  8.50000000E-01  8.50000000E-01  8.50000000E-01
  8.50000000E-01  8.50000000E-01  8.50000000E-01  8.50000000E-01  8.50000000E-01
  8.50000000E-01  8.50000000E-01  8.50000000E-01  8.50000000E-01  8.50000000E-01
  8.50000000E-01  8.50000000E-01  8.50000000E-01  8.50000000E-01  8.50000000E-01
  8.50000000E-01  8.50000000E-01  8.50000000E-01  8.50000000E-01  8.50000000E-01
  8.50000000E-01  8.50000000E-01  8.50000000E-01  8.50000000E-01  8.50000000E-01
  8.50000000E-01  8.50000000E-01  8.50000000E-01  8.50000000E-01  8.50000000E-01
  8.50000000E-01  8.50000000E-01  8.50000000E-01  8.50000000E-01  8.50000000E-01
  8.50000000E-01  8.50000000E-01  8.50000000E-01  8.50000000E-01  8.50000000E-01
  8.50000000E-01  8.50000000E-01  8.50000000E-01  8.50000000E-01  8.50000000E-01
  8.50000000E-01  8.50000000E-01  8.50000000E-01  8.50000000E-01  8.50000000E-01
  8.50000000E-01  8.50000000E-01  8.50000000E-01  8.50000000E-01  8.50000000E-01
  8.50000000E-01  8.50000000E-01  8.50000000E-01  8.50000000E-01  8.50000000E-01
  8.50000000E-01  8.50000000E-01  8.50000000E-01  8.50000000E-01  8.50000000E-01
  8.50000000E-01  8.50000000E-01  8.50000000E-01  8.50000000E-01  8.50000000E-01
  8.50000000E-01  8.50000000E-01  8.50000000E-01  8.50000000E-01  8.50000000E-01
  8.50000000E-01  8.50000000E-01  8.50000000E-01  8.50000000E-01  8.50000000E-01
  8.50000000E-01  8.50000000E-01  8.50000000E-01  8.50000000E-01  8.50000000E-01
  8.50000000E-01  8.50000000E-01  8.50000000E-01  8.50000000E-01  8.50000000E-01
  8.50000000E-01  8.50000000E-01  8.50000000E-01  8.50000000E-01  8.50000000E-01
  8.50000000E-01  8.50000000E-01  8.50000000E-01  8.50000000E-01  8.50000000E-01
  8.50000000E-01  8.50000000E-01  8.50000000E-01  8.50000000E-01  8.50000000E-01
  8.50000000E-01  8.50000000E-01  8.50000000E-01  8.50000000E-01  8.50000000E-01
  8.50000000E-01  8.50000000E-01  8.50000000E-01  8.50000000E-01  8.50000000E-01
  8.50000000E-01  8.50000000E-01  8.50000000E-01  8.50000000E-01  8.50000000E-01
  8.50000000E-01  8.50000000E-01  8.50000000E-01  8.50000000E-01  8.50000000E-01
  8.50000000E-01  8.50000000E-01  8.50000000E-01  8.50000000E-01  8.50000000E-01
  8.50000000E-01  8.50000000E-01  8.50000000E-01  8.50000000E-01  8.50000000E-01
  8.50000000E-01  8.50000000E-01  8.50000000E-01  8.50000000E-01  8.50000000E-01
  8.50000000E-01  8.50000000E-01  8.50000000E-01  8.50000000E-01  8.50000000E-01
  8.50000000E-01  8.50000000E-01  8.50000000E-01  8.50000000E-01  8.50000000E-01
  8.50000000E-01  8.50000000E-01  8.50000000E-01  8.50000000E-01  8.50000000E-01
  8.50000000E-01  8.50000000E-01  8.50000000E-01  8.50000000E-01  8.50000000E-01
  8.50000000E-01  8.50000000E-01  8.50000000E-01  8.50000000E-01  8.50000000E-01
  8.50000000E-01  8.50000000E-01  8.50000000E-01  8.50000000E-01  8.50000000E-01
  8.50000000E-01  8.50000000E-01  8.50000000E-01  8.50000000E-01  8.50000000E-01
  8.50000000E-01  8.50000000E-01  8.50000000E-01  8.50000000E-01  8.50000000E-01
  8.50000000E-01  8.50000000E-01  8.50000000E-01  8.50000000E-01  8.50000000E-01
  8.50000000E-01  8.50000000E-01  8.50000000E-01  8.50000000E-01  8.50000000E-01
  8.50000000E-01  8.50000000E-01  8.50000000E-01  8.50000000E-01  8.50000000E-01
  8.50000000E-01  8.50000000E-01  8.50000000E-01  8.50000000E-01  8.50000000E-01
  8.50000000E-01  8.50000000E-01  8.50000000E-01  8.50000000E-01  8.50000000E-01
  8.50000000E-01  8.50000000E-01  8.50000000E-01  8.50000000E-01  8.50000000E-01
  8.50000000E-01  8.50000000E-01  8.50000000E-01  8.50000000E-01  8.50000000E-01
  8.50000000E-01  8.50000000E-01  8.50000000E-01  8.50000000E-01  8.50000000E-01
  8.50000000E-01  8.50000000E-01  8.50000000E-01  8.50000000E-01  8.50000000E-01
  8.50000000E-01  8.50000000E-01  8.50000000E-01  8.50000000E-01  8.50000000E-01
  8.50000000E-01  8.50000000E-01  8.50000000E-01  8.50000000E-01  8.50000000E-01
  8.50000000E-01  8.50000000E-01  8.50000000E-01  8.50000000E-01  8.50000000E-01
  8.50000000E-01  8.50000000E-01  8.50000000E-01  8.50000000E-01  8.50000000E-01
  8.50000000E-01  8.50000000E-01  8.50000000E-01  8.50000000E-01  8.50000000E-01
  8.50000000E-01  8.50000000E-01  8.50000000E-01  8.50000000E-01  8.50000000E-01
  8.50000000E-01  8.50000000E-01  8.50000000E-01  8.50000000E-01  8.50000000E-01
  8.50000000E-01  8.50000000E-01  8.50000000E-01  8.50000000E-01  8.50000000E-01
  8.50000000E-01  8.50000000E-01  8.50000000E-01  8.50000000E-01  8.50000000E-01
  8.50000000E-01  8.50000000E-01  8.50000000E-01  8.50000000E-01  8.50000000E-01
  8.50000000E-01  8.50000000E-01  8.50000000E-01  8.50000000E-01  8.50000000E-01
  8.50000000E-01  8.50000000E-01  8.50000000E-01  8.50000000E-01  8.50000000E-01
  8.50000000E-01  8.50000000E-01  8.50000000E-01  8.50000000E-01  8.50000000E-01
  8.50000000E-01  8.50000000E-01  8.50000000E-01  8.50000000E-01  8.50000000E-01
  8.50000000E-01  8.50000000E-01  8.50000000E-01  8.50000000E-01  8.50000000E-01
  8.50000000E-01  8.50000000E-01  8.50000000E-01  8.50000000E-01  8.50000000E-01
  8.50000000E-01  8.50000000E-01  8.50000000E-01  8.50000000E-01  8.50000000E-01
  8.50000000E-01  8.50000000E-01  8.50000000E-01  8.50000000E-01  8.50000000E-01
  8.50000000E-01  8.50000000E-01  8.50000000E-01  8.50000000E-01  8.50000000E-01
  8.50000000E-01  8.50000000E-01  8.50000000E-01  8.50000000E-01  8.50000000E-01
  8.50000000E-01  8.50000000E-01  8.50000000E-01  8.50000000E-01  8.50000000E-01
  8.50000000E-01  8.50000000E-01  8.50000000E-01  8.50000000E-01  8.50000000E-01
  8.50000000E-01  8.50000000E-01  8.50000000E-01  8.50000000E-01  8.50000000E-01
  8.50000000E-01  8.50000000E-01  8.50000000E-01  8.50000000E-01  8.50000000E-01
  8.50000000E-01  8.50000000E-01  8.50000000E-01  8.50000000E-01  8.50000000E-01
  8.50000000E-01  8.50000000E-01  8.50000000E-01  8.50000000E-01  8.50000000E-01
  8.50000000E-01  8.50000000E-01  8.50000000E-01  8.50000000E-01  8.50000000E-01
  8.50000000E-01  8.50000000E-01  8.50000000E-01  8.50000000E-01  8.50000000E-01
  8.50000000E-01  8.50000000E-01  8.50000000E-01  8.50000000E-01  8.50000000E-01
  8.50000000E-01  8.50000000E-01  8.50000000E-01  8.50000000E-01  8.50000000E-01
  8.50000000E-01  8.50000000E-01  8.50000000E-01  8.50000000E-01  8.50000000E-01
  8.50000000E-01  8.50000000E-01  8.50000000E-01  8.50000000E-01  8.50000000E-01
  8.50000000E-01  8.50000000E-01  8.50000000E-01  8.50000000E-01  8.50000000E-01
  8.50000000E-01  8.50000000E-01  8.50000000E-01  8.50000000E-01  8.50000000E-01
  8.50000000E-01  8.50000000E-01  8.50000000E-01  8.50000000E-01  8.50000000E-01
  8.50000000E-01  8.50000000E-01  8.50000000E-01  8.50000000E-01  8.50000000E-01
  8.50000000E-01  8.50000000E-01  8.50000000E-01  8.50000000E-01  8.50000000E-01
  8.50000000E-01  8.50000000E-01  8.50000000E-01  8.50000000E-01  8.50000000E-01
  8.50000000E-01  8.50000000E-01  8.50000000E-01  8.50000000E-01  8.50000000E-01
  8.50000000E-01  8.50000000E-01  8.50000000E-01  8.50000000E-01  8.50000000E-01
  8.50000000E-01  8.50000000E-01  8.50000000E-01  8.50000000E-01  8.50000000E-01
  8.50000000E-01  8.50000000E-01  8.50000000E-01  8.50000000E-01  8.50000000E-01
  8.50000000E-01  8.50000000E-01  8.50000000E-01  8.50000000E-01  8.50000000E-01
  8.50000000E-01  8.50000000E-01  8.50000000E-01  8.50000000E-01  8.50000000E-01
  8.50000000E-01  8.50000000E-01  8.50000000E-01  8.50000000E-01  8.50000000E-01
  8.50000000E-01  8.50000000E-01  8.50000000E-01  8.50000000E-01  8.50000000E-01
  8.50000000E-01  8.50000000E-01  8.50000000E-01  8.50000000E-01  8.50000000E-01
  8.50000000E-01  8.50000000E-01  8.50000000E-01  8.50000000E-01  8.50000000E-01
  8.50000000E-01  8.50000000E-01  8.50000000E-01  8.50000000E-01  8.50000000E-01
  8.50000000E-01  8.50000000E-01  8.50000000E-01  8.50000000E-01  8.50000000E-01
  8.50000000E-01  8.50000000E-01  8.50000000E-01  8.50000000E-01  8.50000000E-01
  8.50000000E-01  8.50000000E-01  8.50000000E-01  8.50000000E-01  8.50000000E-01
  8.50000000E-01  8.50000000E-01  8.50000000E-01  8.50000000E-01  8.50000000E-01
  8.50000000E-01  8.50000000E-01  8.50000000E-01  8.50000000E-01  8.50000000E-01
  8.50000000E-01  8.50000000E-01  8.50000000E-01  8.50000000E-01  8.50000000E-01
  8.50000000E-01  8.50000000E-01  8.50000000E-01  8.50000000E-01  8.50000000E-01
  8.50000000E-01  8.50000000E-01  8.50000000E-01  8.50000000E-01  8.50000000E-01
  8.50000000E-01  8.50000000E-01  8.50000000E-01  8.50000000E-01  8.50000000E-01
  8.50000000E-01  8.50000000E-01  8.50000000E-01  8.50000000E-01  8.50000000E-01
  8.50000000E-01  8.50000000E-01  8.50000000E-01  8.50000000E-01  8.50000000E-01
  8.50000000E-01  8.50000000E-01  8.50000000E-01  8.50000000E-01  8.50000000E-01
  8.50000000E-01  8.50000000E-01  8.50000000E-01  8.50000000E-01  8.50000000E-01
  8.50000000E-01  8.50000000E-01  8.50000000E-01  8.50000000E-01  8.50000000E-01
  8.50000000E-01  8.50000000E-01  8.50000000E-01  8.50000000E-01  8.50000000E-01
  8.50000000E-01  8.50000000E-01  8.50000000E-01  8.50000000E-01  8.50000000E-01
  8.50000000E-01  8.50000000E-01  8.50000000E-01  8.50000000E-01  8.50000000E-01
  8.50000000E-01  8.50000000E-01  8.50000000E-01  8.50000000E-01  8.50000000E-01
  8.50000000E-01  8.50000000E-01  8.50000000E-01  8.50000000E-01  8.50000000E-01
  8.50000000E-01  8.50000000E-01  8.50000000E-01  8.50000000E-01  8.50000000E-01
  8.50000000E-01  8.50000000E-01  8.50000000E-01  8.50000000E-01  8.50000000E-01
  8.50000000E-01  8.50000000E-01  8.50000000E-01  8.50000000E-01  8.50000000E-01
  8.50000000E-01  8.50000000E-01  8.50000000E-01  8.50000000E-01  8.50000000E-01
  8.50000000E-01  8.50000000E-01  8.50000000E-01  8.50000000E-01  8.50000000E-01
  8.50000000E-01  8.50000000E-01  8.50000000E-01  8.50000000E-01  8.50000000E-01
  8.50000000E-01  8.50000000E-01  8.50000000E-01  8.50000000E-01  8.50000000E-01
  8.50000000E-01  8.50000000E-01  8.50000000E-01  8.50000000E-01  8.50000000E-01
  8.50000000E-01  8.50000000E-01  8.50000000E-01  8.50000000E-01  8.50000000E-01
  8.50000000E-01  8.50000000E-01  8.50000000E-01  8.50000000E-01  8.50000000E-01
  8.50000000E-01  8.50000000E-01  8.50000000E-01  8.50000000E-01  8.50000000E-01
  8.50000000E-01  8.50000000E-01  8.50000000E-01  8.50000000E-01  8.50000000E-01
  8.50000000E-01  8.50000000E-01  8.50000000E-01  8.50000000E-01  8.50000000E-01
  8.50000000E-01  8.50000000E-01  8.50000000E-01  8.50000000E-01  8.50000000E-01
  8.50000000E-01  8.50000000E-01  8.50000000E-01  8.50000000E-01  8.50000000E-01
  8.50000000E-01  8.50000000E-01  8.50000000E-01  8.50000000E-01  8.50000000E-01
  8.50000000E-01  8.50000000E-01  8.50000000E-01  8.50000000E-01  8.50000000E-01
  8.50000000E-01  8.50000000E-01  8.50000000E-01  8.50000000E-01  8.50000000E-01
  8.50000000E-01  8.50000000E-01  8.50000000E-01  8.50000000E-01  8.50000000E-01
  8.50000000E-01  8.50000000E-01  8.50000000E-01  8.50000000E-01  8.50000000E-01
  8.50000000E-01  8.50000000E-01  8.50000000E-01  8.50000000E-01  8.50000000E-01
  8.50000000E-01  8.50000000E-01  8.50000000E-01  8.50000000E-01  8.50000000E-01
  8.50000000E-01  8.50000000E-01  8.50000000E-01  8.50000000E-01  8.50000000E-01
  8.50000000E-01  8.50000000E-01  8.50000000E-01  8.50000000E-01  8.50000000E-01
  8.50000000E-01  8.50000000E-01  8.50000000E-01  8.50000000E-01  8.50000000E-01
  8.50000000E-01  8.50000000E-01  8.50000000E-01  8.50000000E-01  8.50000000E-01
  8.50000000E-01  8.50000000E-01  8.50000000E-01  8.50000000E-01  8.50000000E-01
  8.50000000E-01  8.50000000E-01  8.50000000E-01  8.50000000E-01  8.50000000E-01
  8.50000000E-01  8.50000000E-01  8.50000000E-01  8.50000000E-01  8.50000000E-01
  8.50000000E-01  8.50000000E-01  8.50000000E-01  8.50000000E-01  8.50000000E-01
  8.50000000E-01  8.50000000E-01  8.50000000E-01  8.50000000E-01  8.50000000E-01
  8.50000000E-01  8.50000000E-01  8.50000000E-01  8.50000000E-01  8.50000000E-01
  8.50000000E-01  8.50000000E-01  8.50000000E-01  8.50000000E-01  8.50000000E-01
  8.50000000E-01  8.50000000E-01  8.50000000E-01  8.50000000E-01  8.50000000E-01
  8.50000000E-01  8.50000000E-01  8.50000000E-01  8.50000000E-01  8.50000000E-01
  8.50000000E-01  8.50000000E-01  8.50000000E-01  8.50000000E-01  8.50000000E-01
  8.50000000E-01  8.50000000E-01  8.50000000E-01  8.50000000E-01  8.50000000E-01
  8.50000000E-01  8.50000000E-01  8.50000000E-01  8.50000000E-01  8.50000000E-01
  8.50000000E-01  8.50000000E-01  8.50000000E-01  8.50000000E-01  8.50000000E-01
  8.50000000E-01  8.50000000E-01  8.50000000E-01  8.50000000E-01  8.50000000E-01
  8.50000000E-01  8.50000000E-01  8.50000000E-01  8.50000000E-01  8.50000000E-01
  8.50000000E-01  8.50000000E-01  8.50000000E-01  8.50000000E-01  8.50000000E-01
  8.50000000E-01  8.50000000E-01  8.50000000E-01  8.50000000E-01  8.50000000E-01
  8.50000000E-01  8.50000000E-01  8.50000000E-01  8.50000000E-01  8.50000000E-01
  8.50000000E-01  8.50000000E-01  8.50000000E-01  8.50000000E-01  8.50000000E-01
  8.50000000E-01  8.50000000E-01  8.50000000E-01  8.50000000E-01  8.50000000E-01
  8.50000000E-01  8.50000000E-01  8.50000000E-01  8.50000000E-01  8.50000000E-01
  8.50000000E-01  8.50000000E-01  8.50000000E-01  8.50000000E-01  8.50000000E-01
  8.50000000E-01  8.50000000E-01  8.50000000E-01  8.50000000E-01  8.50000000E-01
  8.50000000E-01  8.50000000E-01  8.50000000E-01  8.50000000E-01  8.50000000E-01
  8.50000000E-01  8.50000000E-01  8.50000000E-01  8.50000000E-01  8.50000000E-01
  8.50000000E-01  8.50000000E-01  8.50000000E-01  8.50000000E-01  8.50000000E-01
  8.50000000E-01  8.50000000E-01  8.50000000E-01  8.50000000E-01  8.50000000E-01
  8.50000000E-01  8.50000000E-01  8.50000000E-01  8.50000000E-01  8.50000000E-01
  8.50000000E-01  8.50000000E-01  8.50000000E-01  8.50000000E-01  8.50000000E-01
  8.50000000E-01  8.50000000E-01  8.50000000E-01  8.50000000E-01  8.50000000E-01
  8.50000000E-01  8.50000000E-01  8.50000000E-01  8.50000000E-01  8.50000000E-01
  8.50000000E-01  8.50000000E-01  8.50000000E-01  8.50000000E-01  8.50000000E-01
  8.50000000E-01  8.50000000E-01  8.50000000E-01  8.50000000E-01  8.50000000E-01
  8.50000000E-01  8.50000000E-01  8.50000000E-01  8.50000000E-01  8.50000000E-01
  8.50000000E-01  8.50000000E-01  8.50000000E-01  8.50000000E-01  8.50000000E-01
  8.50000000E-01  8.50000000E-01  8.50000000E-01  8.50000000E-01  8.50000000E-01
  8.50000000E-01  8.50000000E-01  8.50000000E-01  8.50000000E-01  8.50000000E-01
  8.50000000E-01  8.50000000E-01  8.50000000E-01  8.50000000E-01  8.50000000E-01
  8.50000000E-01  8.50000000E-01  8.50000000E-01  8.50000000E-01  8.50000000E-01
  8.50000000E-01  8.50000000E-01  8.50000000E-01  8.50000000E-01  8.50000000E-01
  8.50000000E-01  8.50000000E-01  8.50000000E-01  8.50000000E-01  8.50000000E-01
  8.50000000E-01  8.50000000E-01  8.50000000E-01  8.50000000E-01  8.50000000E-01
  8.50000000E-01  8.50000000E-01  8.50000000E-01  8.50000000E-01  8.50000000E-01
  8.50000000E-01  8.50000000E-01  8.50000000E-01  8.50000000E-01  8.50000000E-01
  8.50000000E-01  8.50000000E-01  8.50000000E-01  8.50000000E-01  8.50000000E-01
  8.50000000E-01  8.50000000E-01  8.50000000E-01  8.50000000E-01  8.50000000E-01
  8.50000000E-01  8.50000000E-01  8.50000000E-01  8.50000000E-01  8.50000000E-01
  8.50000000E-01  8.50000000E-01  8.50000000E-01  8.50000000E-01  8.50000000E-01
  8.50000000E-01  8.50000000E-01  8.50000000E-01  8.50000000E-01  8.50000000E-01
  8.50000000E-01  8.50000000E-01  8.50000000E-01  8.50000000E-01  8.50000000E-01
  8.50000000E-01  8.50000000E-01  8.50000000E-01  8.50000000E-01  8.50000000E-01
  8.50000000E-01  8.50000000E-01  8.50000000E-01  8.50000000E-01  8.50000000E-01
  8.50000000E-01  8.50000000E-01  8.50000000E-01  8.50000000E-01  8.50000000E-01
  8.50000000E-01  8.50000000E-01  8.50000000E-01  8.50000000E-01  8.50000000E-01
  8.50000000E-01  8.50000000E-01  8.50000000E-01  8.50000000E-01  8.50000000E-01
  8.50000000E-01  8.50000000E-01  8.50000000E-01  8.50000000E-01  8.50000000E-01
  8.50000000E-01  8.50000000E-01  8.50000000E-01  8.50000000E-01  8.50000000E-01
  8.50000000E-01  8.50000000E-01  8.50000000E-01  8.50000000E-01  8.50000000E-01
  8.50000000E-01  8.50000000E-01  8.50000000E-01  8.50000000E-01  8.50000000E-01
  8.50000000E-01  8.50000000E-01  8.50000000E-01  8.50000000E-01  8.50000000E-01
  8.50000000E-01  8.50000000E-01  8.50000000E-01  8.50000000E-01  8.50000000E-01
  8.50000000E-01  8.50000000E-01  8.50000000E-01  8.50000000E-01  8.50000000E-01
  8.50000000E-01  8.50000000E-01  8.50000000E-01  8.50000000E-01  8.50000000E-01
  8.50000000E-01  8.50000000E-01  8.50000000E-01  8.50000000E-01  8.50000000E-01
  8.50000000E-01  8.50000000E-01  8.50000000E-01  8.50000000E-01  8.50000000E-01
  8.50000000E-01  8.50000000E-01  8.50000000E-01  8.50000000E-01  8.50000000E-01
  8.50000000E-01  8.50000000E-01  8.50000000E-01  8.50000000E-01  8.50000000E-01
  8.50000000E-01  8.50000000E-01  8.50000000E-01  8.50000000E-01  8.50000000E-01
  8.50000000E-01  8.50000000E-01  8.50000000E-01  8.50000000E-01  8.50000000E-01
  8.50000000E-01  8.50000000E-01  8.50000000E-01  8.50000000E-01  8.50000000E-01
  8.50000000E-01  8.50000000E-01  8.50000000E-01  8.50000000E-01  8.50000000E-01
  8.50000000E-01  8.50000000E-01  8.50000000E-01  8.50000000E-01  8.50000000E-01
  8.50000000E-01  8.50000000E-01  8.50000000E-01  8.50000000E-01  8.50000000E-01
  8.50000000E-01  8.50000000E-01  8.50000000E-01  8.50000000E-01  8.50000000E-01
  8.50000000E-01  8.50000000E-01  8.50000000E-01  8.50000000E-01  8.50000000E-01
  8.50000000E-01  8.50000000E-01  8.50000000E-01  8.50000000E-01  8.50000000E-01
  8.50000000E-01  8.50000000E-01  8.50000000E-01  8.50000000E-01  8.50000000E-01
  8.50000000E-01  8.50000000E-01  8.50000000E-01  8.50000000E-01  8.50000000E-01
  8.50000000E-01  8.50000000E-01  8.50000000E-01  8.50000000E-01  8.50000000E-01
  8.50000000E-01  8.50000000E-01  8.50000000E-01  8.50000000E-01  8.50000000E-01
  8.50000000E-01  8.50000000E-01  8.50000000E-01  8.50000000E-01  8.50000000E-01
  8.50000000E-01  8.50000000E-01  8.50000000E-01  8.50000000E-01  8.50000000E-01
  8.50000000E-01  8.50000000E-01  8.50000000E-01  8.50000000E-01  8.50000000E-01
  8.50000000E-01  8.50000000E-01  8.50000000E-01  8.50000000E-01  8.50000000E-01
  8.50000000E-01  8.50000000E-01  8.50000000E-01  8.50000000E-01  8.50000000E-01
  8.50000000E-01  8.50000000E-01  8.50000000E-01  8.50000000E-01  8.50000000E-01
  8.50000000E-01  8.50000000E-01  8.50000000E-01  8.50000000E-01  8.50000000E-01
  8.50000000E-01  8.50000000E-01  8.50000000E-01  8.50000000E-01  8.50000000E-01
  8.50000000E-01  8.50000000E-01  8.50000000E-01  8.50000000E-01  8.50000000E-01
  8.50000000E-01  8.50000000E-01  8.50000000E-01  8.50000000E-01  8.50000000E-01
  8.50000000E-01  8.50000000E-01  8.50000000E-01  8.50000000E-01  8.50000000E-01
  8.50000000E-01  8.50000000E-01  8.50000000E-01  8.50000000E-01  8.50000000E-01
  8.50000000E-01  8.50000000E-01  8.50000000E-01  8.50000000E-01  8.50000000E-01
  8.50000000E-01  8.50000000E-01  8.50000000E-01  8.50000000E-01  8.50000000E-01
  8.50000000E-01  8.50000000E-01  8.50000000E-01  8.50000000E-01  8.50000000E-01
  8.50000000E-01  8.50000000E-01  8.50000000E-01  8.50000000E-01  8.50000000E-01
  8.50000000E-01  8.50000000E-01  8.50000000E-01  8.50000000E-01  8.50000000E-01
  8.50000000E-01  8.50000000E-01  8.50000000E-01  8.50000000E-01  8.50000000E-01
  8.50000000E-01  8.50000000E-01  8.50000000E-01  8.50000000E-01  8.50000000E-01
  8.50000000E-01  8.50000000E-01  8.50000000E-01  8.50000000E-01  8.50000000E-01
  8.50000000E-01  8.50000000E-01  8.50000000E-01  8.50000000E-01  8.50000000E-01
  8.50000000E-01  8.50000000E-01  8.50000000E-01  8.50000000E-01  8.50000000E-01
  8.50000000E-01  8.50000000E-01  8.50000000E-01  8.50000000E-01  8.50000000E-01
  8.50000000E-01  8.50000000E-01  8.50000000E-01  8.50000000E-01  8.50000000E-01
  8.50000000E-01  8.50000000E-01  8.50000000E-01  8.50000000E-01  8.50000000E-01
  8.50000000E-01  8.50000000E-01  8.50000000E-01  8.50000000E-01  8.50000000E-01
  8.50000000E-01  8.50000000E-01  8.50000000E-01  8.50000000E-01  8.50000000E-01
  8.50000000E-01  8.50000000E-01  8.50000000E-01  8.50000000E-01  8.50000000E-01
  8.50000000E-01  8.50000000E-01  8.50000000E-01  8.50000000E-01  8.50000000E-01
  8.50000000E-01  8.50000000E-01  8.50000000E-01  8.50000000E-01  8.50000000E-01
  8.50000000E-01  8.50000000E-01  8.50000000E-01  8.50000000E-01  8.50000000E-01
  8.50000000E-01  8.50000000E-01  8.50000000E-01  8.50000000E-01  8.50000000E-01
  8.50000000E-01  8.50000000E-01  8.50000000E-01  8.50000000E-01  8.50000000E-01
  8.50000000E-01  8.50000000E-01  8.50000000E-01  8.50000000E-01  8.50000000E-01
  8.50000000E-01  8.50000000E-01  8.50000000E-01  8.50000000E-01  8.50000000E-01
  8.50000000E-01  8.50000000E-01  8.50000000E-01  8.50000000E-01  8.50000000E-01
  8.50000000E-01  8.50000000E-01  8.50000000E-01  8.50000000E-01  8.50000000E-01
  8.50000000E-01  8.50000000E-01  8.50000000E-01  8.50000000E-01  8.50000000E-01
  8.50000000E-01  8.50000000E-01  8.50000000E-01  8.50000000E-01  8.50000000E-01
  8.50000000E-01  8.50000000E-01  8.50000000E-01  8.50000000E-01  8.50000000E-01
  8.50000000E-01  8.50000000E-01  8.50000000E-01  8.50000000E-01  8.50000000E-01
  8.50000000E-01  8.50000000E-01  8.50000000E-01  8.50000000E-01  8.50000000E-01
  8.50000000E-01  8.50000000E-01  8.50000000E-01  8.50000000E-01  8.50000000E-01
  8.50000000E-01  8.50000000E-01  8.50000000E-01  8.50000000E-01  8.50000000E-01
  8.50000000E-01  8.50000000E-01  8.50000000E-01  8.50000000E-01  8.50000000E-01
  8.50000000E-01  8.50000000E-01  8.50000000E-01  8.50000000E-01  8.50000000E-01
  8.50000000E-01  8.50000000E-01  8.50000000E-01  8.50000000E-01  8.50000000E-01
  8.50000000E-01  8.50000000E-01  8.50000000E-01  8.50000000E-01  8.50000000E-01
  8.50000000E-01  8.50000000E-01  8.50000000E-01  8.50000000E-01  8.50000000E-01
  8.50000000E-01  8.50000000E-01  8.50000000E-01  8.50000000E-01  8.50000000E-01
  8.50000000E-01  8.50000000E-01  8.50000000E-01  8.50000000E-01  8.50000000E-01
  8.50000000E-01  8.50000000E-01  8.50000000E-01  8.50000000E-01  8.50000000E-01
  8.50000000E-01  8.50000000E-01  8.50000000E-01  8.50000000E-01  8.50000000E-01
  8.50000000E-01  8.50000000E-01  8.50000000E-01  8.50000000E-01  8.50000000E-01
  8.50000000E-01  8.50000000E-01  8.50000000E-01  8.50000000E-01  8.50000000E-01
  8.50000000E-01  8.50000000E-01  8.50000000E-01  8.50000000E-01  8.50000000E-01
  8.50000000E-01  8.50000000E-01  8.50000000E-01  8.50000000E-01  8.50000000E-01
  8.50000000E-01  8.50000000E-01  8.50000000E-01  8.50000000E-01  8.50000000E-01
  8.50000000E-01  8.50000000E-01  8.50000000E-01  8.50000000E-01  8.50000000E-01
  8.50000000E-01  8.50000000E-01  8.50000000E-01  8.50000000E-01  8.50000000E-01
  8.50000000E-01  8.50000000E-01  8.50000000E-01  8.50000000E-01  8.50000000E-01
  8.50000000E-01  8.50000000E-01  8.50000000E-01  8.50000000E-01  8.50000000E-01
  8.50000000E-01  8.50000000E-01  8.50000000E-01  8.50000000E-01  8.50000000E-01
  8.50000000E-01  8.50000000E-01  8.50000000E-01  8.50000000E-01  8.50000000E-01
  8.50000000E-01  8.50000000E-01  8.50000000E-01  8.50000000E-01  8.50000000E-01
  8.50000000E-01  8.50000000E-01  8.50000000E-01  8.50000000E-01  8.50000000E-01
  8.50000000E-01  8.50000000E-01  8.50000000E-01  8.50000000E-01  8.50000000E-01
  8.50000000E-01  8.50000000E-01  8.50000000E-01  8.50000000E-01  8.50000000E-01
  8.50000000E-01  8.50000000E-01  8.50000000E-01  8.50000000E-01  8.50000000E-01
  8.50000000E-01  8.50000000E-01  8.50000000E-01  8.50000000E-01  8.50000000E-01
  8.50000000E-01  8.50000000E-01  8.50000000E-01  8.50000000E-01  8.50000000E-01
  8.50000000E-01  8.50000000E-01  8.50000000E-01  8.50000000E-01  8.50000000E-01
  8.50000000E-01  8.50000000E-01  8.50000000E-01  8.50000000E-01  8.50000000E-01
  8.50000000E-01  8.50000000E-01  8.50000000E-01  8.50000000E-01  8.50000000E-01
  8.50000000E-01  8.50000000E-01  8.50000000E-01  8.50000000E-01  8.50000000E-01
  8.50000000E-01  8.50000000E-01  8.50000000E-01  8.50000000E-01  8.50000000E-01
  8.50000000E-01  8.50000000E-01  8.50000000E-01  8.50000000E-01  8.50000000E-01
  8.50000000E-01  8.50000000E-01  8.50000000E-01  8.50000000E-01  8.50000000E-01
  8.50000000E-01  8.50000000E-01  8.50000000E-01  8.50000000E-01  8.50000000E-01
  8.50000000E-01  8.50000000E-01  8.50000000E-01  8.50000000E-01  8.50000000E-01
  8.50000000E-01  8.50000000E-01  8.50000000E-01  8.50000000E-01  8.50000000E-01
  8.50000000E-01  8.50000000E-01  8.50000000E-01  8.50000000E-01  8.50000000E-01
  8.50000000E-01  8.50000000E-01  8.50000000E-01  8.50000000E-01  8.50000000E-01
  8.50000000E-01  8.50000000E-01  8.50000000E-01  8.50000000E-01  8.50000000E-01
  8.50000000E-01  8.50000000E-01  8.50000000E-01  8.50000000E-01  8.50000000E-01
  8.50000000E-01  8.50000000E-01  8.50000000E-01  8.50000000E-01  8.50000000E-01
  8.50000000E-01  8.50000000E-01  8.50000000E-01  8.50000000E-01  8.50000000E-01
  8.50000000E-01  8.50000000E-01  8.50000000E-01  8.50000000E-01  8.50000000E-01
  8.50000000E-01  8.50000000E-01  8.50000000E-01  8.50000000E-01  8.50000000E-01
  8.50000000E-01  8.50000000E-01  8.50000000E-01  8.50000000E-01  8.50000000E-01
  8.50000000E-01  8.50000000E-01  8.50000000E-01  8.50000000E-01  8.50000000E-01
  8.50000000E-01  8.50000000E-01  8.50000000E-01  8.50000000E-01  8.50000000E-01
  8.50000000E-01  8.50000000E-01  8.50000000E-01  8.50000000E-01  8.50000000E-01
  8.50000000E-01  8.50000000E-01  8.50000000E-01  8.50000000E-01  8.50000000E-01
  8.50000000E-01  8.50000000E-01  8.50000000E-01  8.50000000E-01  8.50000000E-01
  8.50000000E-01  8.50000000E-01  8.50000000E-01  8.50000000E-01  8.50000000E-01
  8.50000000E-01  8.50000000E-01  8.50000000E-01  8.50000000E-01  8.50000000E-01
  8.50000000E-01  8.50000000E-01  8.50000000E-01  8.50000000E-01  8.50000000E-01
  8.50000000E-01  8.50000000E-01  8.50000000E-01  8.50000000E-01  8.50000000E-01
  8.50000000E-01  8.50000000E-01  8.50000000E-01  8.50000000E-01  8.50000000E-01
  8.50000000E-01  8.50000000E-01  8.50000000E-01  8.50000000E-01  8.50000000E-01
  8.50000000E-01  8.50000000E-01  8.50000000E-01  8.50000000E-01  8.50000000E-01
  8.50000000E-01  8.50000000E-01  8.50000000E-01  8.50000000E-01  8.50000000E-01
  8.50000000E-01  8.50000000E-01  8.50000000E-01  8.50000000E-01  8.50000000E-01
  8.50000000E-01  8.50000000E-01  8.50000000E-01  8.50000000E-01  8.50000000E-01
  8.50000000E-01  8.50000000E-01  8.50000000E-01  8.50000000E-01  8.50000000E-01
  8.50000000E-01  8.50000000E-01  8.50000000E-01  8.50000000E-01  8.50000000E-01
  8.50000000E-01  8.50000000E-01  8.50000000E-01  8.50000000E-01  8.50000000E-01
  8.50000000E-01  8.50000000E-01  8.50000000E-01  8.50000000E-01  8.50000000E-01
  8.50000000E-01  8.50000000E-01  8.50000000E-01  8.50000000E-01  8.50000000E-01
  8.50000000E-01  8.50000000E-01  8.50000000E-01  8.50000000E-01  8.50000000E-01
  8.50000000E-01  8.50000000E-01  8.50000000E-01  8.50000000E-01  8.50000000E-01
  8.50000000E-01  8.50000000E-01  8.50000000E-01  8.50000000E-01  8.50000000E-01
  8.50000000E-01  8.50000000E-01  8.50000000E-01  8.50000000E-01  8.50000000E-01
  8.50000000E-01  8.50000000E-01  8.50000000E-01  8.50000000E-01  8.50000000E-01
  8.50000000E-01  8.50000000E-01  8.50000000E-01  8.50000000E-01  8.50000000E-01
  8.50000000E-01  8.50000000E-01  8.50000000E-01  8.50000000E-01  8.50000000E-01
  8.50000000E-01  8.50000000E-01  8.50000000E-01  8.50000000E-01  8.50000000E-01
  8.50000000E-01  8.50000000E-01  8.50000000E-01  8.50000000E-01  8.50000000E-01
  8.50000000E-01  8.50000000E-01  8.50000000E-01  8.50000000E-01  8.50000000E-01
  8.50000000E-01  8.50000000E-01  8.50000000E-01  8.50000000E-01  8.50000000E-01
  8.50000000E-01  8.50000000E-01  8.50000000E-01  8.50000000E-01  8.50000000E-01
  8.50000000E-01  8.50000000E-01  8.50000000E-01  8.50000000E-01  8.50000000E-01
  8.50000000E-01  8.50000000E-01  8.50000000E-01  8.50000000E-01  8.50000000E-01
  8.50000000E-01  8.50000000E-01  8.50000000E-01  8.50000000E-01  8.50000000E-01
  8.50000000E-01  8.50000000E-01  8.50000000E-01  8.50000000E-01  8.50000000E-01
  8.50000000E-01  8.50000000E-01  8.50000000E-01  8.50000000E-01  8.50000000E-01
  8.50000000E-01  8.50000000E-01  8.50000000E-01  8.50000000E-01  8.50000000E-01
  8.50000000E-01  8.50000000E-01  8.50000000E-01  8.50000000E-01  8.50000000E-01
  8.50000000E-01  8.50000000E-01  8.50000000E-01  8.50000000E-01  8.50000000E-01
  8.50000000E-01  8.50000000E-01  8.50000000E-01  8.50000000E-01  8.50000000E-01
  8.50000000E-01  8.50000000E-01  8.50000000E-01  8.50000000E-01  8.50000000E-01
  8.50000000E-01  8.50000000E-01  8.50000000E-01  8.50000000E-01  8.50000000E-01
  8.50000000E-01  8.50000000E-01  8.50000000E-01  8.50000000E-01  8.50000000E-01
  8.50000000E-01  8.50000000E-01  8.50000000E-01  8.50000000E-01  8.50000000E-01
  8.50000000E-01  8.50000000E-01  8.50000000E-01  8.50000000E-01  8.50000000E-01
  8.50000000E-01  8.50000000E-01  8.50000000E-01  8.50000000E-01  8.50000000E-01
  8.50000000E-01  8.50000000E-01  8.50000000E-01  8.50000000E-01  8.50000000E-01
  8.50000000E-01  8.50000000E-01  8.50000000E-01  8.50000000E-01  8.50000000E-01
  8.50000000E-01  8.50000000E-01  8.50000000E-01  8.50000000E-01  8.50000000E-01
  8.50000000E-01  8.50000000E-01  8.50000000E-01  8.50000000E-01  8.50000000E-01
  8.50000000E-01  8.50000000E-01  8.50000000E-01  8.50000000E-01  8.50000000E-01
  8.50000000E-01  8.50000000E-01  8.50000000E-01  8.50000000E-01  8.50000000E-01
  8.50000000E-01  8.50000000E-01  8.50000000E-01  8.50000000E-01  8.50000000E-01
  8.50000000E-01  8.50000000E-01  8.50000000E-01  8.50000000E-01  8.50000000E-01
  8.50000000E-01  8.50000000E-01  8.50000000E-01  8.50000000E-01  8.50000000E-01
  8.50000000E-01  8.50000000E-01  8.50000000E-01  8.50000000E-01  8.50000000E-01
  8.50000000E-01  8.50000000E-01  8.50000000E-01  8.50000000E-01  8.50000000E-01
  8.50000000E-01  8.50000000E-01  8.50000000E-01  8.50000000E-01  8.50000000E-01
  8.50000000E-01  8.50000000E-01  8.50000000E-01  8.50000000E-01  8.50000000E-01
  8.50000000E-01  8.50000000E-01  8.50000000E-01  8.50000000E-01  8.50000000E-01
  8.50000000E-01  8.50000000E-01  8.50000000E-01  8.50000000E-01  8.50000000E-01
  8.50000000E-01  8.50000000E-01  8.50000000E-01  8.50000000E-01  8.50000000E-01
  8.50000000E-01  8.50000000E-01  8.50000000E-01  8.50000000E-01  8.50000000E-01
  8.50000000E-01  8.50000000E-01  8.50000000E-01  8.50000000E-01  8.50000000E-01
  8.50000000E-01  8.50000000E-01  8.50000000E-01  8.50000000E-01  8.50000000E-01
  8.50000000E-01  8.50000000E-01  8.50000000E-01  8.50000000E-01  8.50000000E-01
  8.50000000E-01  8.50000000E-01  8.50000000E-01  8.50000000E-01  8.50000000E-01
  8.50000000E-01  8.50000000E-01  8.50000000E-01  8.50000000E-01  8.50000000E-01
  8.50000000E-01  8.50000000E-01  8.50000000E-01  8.50000000E-01  8.50000000E-01
  8.50000000E-01  8.50000000E-01  8.50000000E-01  8.50000000E-01  8.50000000E-01
  8.50000000E-01  8.50000000E-01  8.50000000E-01  8.50000000E-01  8.50000000E-01
  8.50000000E-01  8.50000000E-01  8.50000000E-01  8.50000000E-01  8.50000000E-01
  8.50000000E-01  8.50000000E-01  8.50000000E-01  8.50000000E-01  8.50000000E-01
  8.50000000E-01  8.50000000E-01  8.50000000E-01  8.50000000E-01  8.50000000E-01
  8.50000000E-01  8.50000000E-01  8.50000000E-01  8.50000000E-01  8.50000000E-01
  8.50000000E-01  8.50000000E-01  8.50000000E-01  8.50000000E-01  8.50000000E-01
  8.50000000E-01  8.50000000E-01  8.50000000E-01  8.50000000E-01  8.50000000E-01
  8.50000000E-01  8.50000000E-01  8.50000000E-01  8.50000000E-01  8.50000000E-01
  8.50000000E-01  8.50000000E-01  8.50000000E-01  8.50000000E-01  8.50000000E-01
  8.50000000E-01  8.50000000E-01  8.50000000E-01  8.50000000E-01  8.50000000E-01
  8.50000000E-01  8.50000000E-01  8.50000000E-01  8.50000000E-01  8.50000000E-01
  8.50000000E-01  8.50000000E-01  8.50000000E-01  8.50000000E-01  8.50000000E-01
  8.50000000E-01  8.50000000E-01  8.50000000E-01  8.50000000E-01  8.50000000E-01
  8.50000000E-01  8.50000000E-01  8.50000000E-01  8.50000000E-01  8.50000000E-01
  8.50000000E-01  8.50000000E-01  8.50000000E-01  8.50000000E-01  8.50000000E-01
  8.50000000E-01  8.50000000E-01  8.50000000E-01  8.50000000E-01  8.50000000E-01
  8.50000000E-01  8.50000000E-01  8.50000000E-01  8.50000000E-01  8.50000000E-01
  8.50000000E-01  8.50000000E-01  8.50000000E-01  8.50000000E-01  8.50000000E-01
  8.50000000E-01  8.50000000E-01  8.50000000E-01  8.50000000E-01  8.50000000E-01
  8.50000000E-01  8.50000000E-01  8.50000000E-01  8.50000000E-01  8.50000000E-01
  8.50000000E-01  8.50000000E-01  8.50000000E-01  8.50000000E-01  8.50000000E-01
  8.50000000E-01  8.50000000E-01  8.50000000E-01  8.50000000E-01  8.50000000E-01
  8.50000000E-01  8.50000000E-01  8.50000000E-01  8.50000000E-01  8.50000000E-01
  8.50000000E-01  8.50000000E-01  8.50000000E-01  8.50000000E-01  8.50000000E-01
  8.50000000E-01  8.50000000E-01  8.50000000E-01  8.50000000E-01  8.50000000E-01
  8.50000000E-01  8.50000000E-01  8.50000000E-01  8.50000000E-01  8.50000000E-01
  8.50000000E-01  8.50000000E-01  8.50000000E-01  8.50000000E-01  8.50000000E-01
  8.50000000E-01  8.50000000E-01  8.50000000E-01  8.50000000E-01  8.50000000E-01
  8.50000000E-01  8.50000000E-01  8.50000000E-01  8.50000000E-01  8.50000000E-01
  8.50000000E-01  8.50000000E-01  8.50000000E-01  8.50000000E-01  8.50000000E-01
  8.50000000E-01  8.50000000E-01  8.50000000E-01  8.50000000E-01  8.50000000E-01
  8.50000000E-01  8.50000000E-01  8.50000000E-01  8.50000000E-01  8.50000000E-01
  8.50000000E-01  8.50000000E-01  8.50000000E-01  8.50000000E-01  8.50000000E-01
  8.50000000E-01  8.50000000E-01  8.50000000E-01  8.50000000E-01  8.50000000E-01
  8.50000000E-01  8.50000000E-01  8.50000000E-01  8.50000000E-01  8.50000000E-01
  8.50000000E-01  8.50000000E-01  8.50000000E-01  8.50000000E-01  8.50000000E-01
  8.50000000E-01  8.50000000E-01  8.50000000E-01  8.50000000E-01  8.50000000E-01
  8.50000000E-01  8.50000000E-01  8.50000000E-01  8.50000000E-01  8.50000000E-01
  8.50000000E-01  8.50000000E-01  8.50000000E-01  8.50000000E-01  8.50000000E-01
  8.50000000E-01  8.50000000E-01  8.50000000E-01  8.50000000E-01  8.50000000E-01
  8.50000000E-01  8.50000000E-01  8.50000000E-01  8.50000000E-01  8.50000000E-01
  8.50000000E-01  8.50000000E-01  8.50000000E-01  8.50000000E-01  8.50000000E-01
  8.50000000E-01  8.50000000E-01  8.50000000E-01  8.50000000E-01  8.50000000E-01
  8.50000000E-01  8.50000000E-01  8.50000000E-01  8.50000000E-01  8.50000000E-01
  8.50000000E-01  8.50000000E-01  8.50000000E-01  8.50000000E-01  8.50000000E-01
  8.50000000E-01  8.50000000E-01  8.50000000E-01  8.50000000E-01  8.50000000E-01
  8.50000000E-01  8.50000000E-01  8.50000000E-01  8.50000000E-01  8.50000000E-01
  8.50000000E-01  8.50000000E-01  8.50000000E-01  8.50000000E-01  8.50000000E-01
  8.50000000E-01  8.50000000E-01  8.50000000E-01  8.50000000E-01  8.50000000E-01
  8.50000000E-01  8.50000000E-01  8.50000000E-01  8.50000000E-01  8.50000000E-01
  8.50000000E-01  8.50000000E-01  8.50000000E-01  8.50000000E-01  8.50000000E-01
  8.50000000E-01  8.50000000E-01  8.50000000E-01  8.50000000E-01  8.50000000E-01
  8.50000000E-01  8.50000000E-01  8.50000000E-01  8.50000000E-01  8.50000000E-01
  8.50000000E-01  8.50000000E-01  8.50000000E-01  8.50000000E-01  8.50000000E-01
  8.50000000E-01  8.50000000E-01  8.50000000E-01  8.50000000E-01  8.50000000E-01
  8.50000000E-01  8.50000000E-01  8.50000000E-01  8.50000000E-01  8.50000000E-01
  8.50000000E-01  8.50000000E-01  8.50000000E-01  8.50000000E-01  8.50000000E-01
  8.50000000E-01  8.50000000E-01  8.50000000E-01  8.50000000E-01  8.50000000E-01
  8.50000000E-01  8.50000000E-01  8.50000000E-01  8.50000000E-01  8.50000000E-01
  8.50000000E-01  8.50000000E-01  8.50000000E-01  8.50000000E-01  8.50000000E-01
  8.50000000E-01  8.50000000E-01  8.50000000E-01  8.50000000E-01  8.50000000E-01
  8.50000000E-01  8.50000000E-01  8.50000000E-01  8.50000000E-01  8.50000000E-01
  8.50000000E-01  8.50000000E-01  8.50000000E-01  8.50000000E-01  8.50000000E-01
  8.50000000E-01  8.50000000E-01  8.50000000E-01  8.50000000E-01  8.50000000E-01
  8.50000000E-01  8.50000000E-01  8.50000000E-01  8.50000000E-01  8.50000000E-01
  8.50000000E-01  8.50000000E-01  8.50000000E-01  8.50000000E-01  8.50000000E-01
  8.50000000E-01  8.50000000E-01  8.50000000E-01  8.50000000E-01  8.50000000E-01
  8.50000000E-01  8.50000000E-01  8.50000000E-01  8.50000000E-01  8.50000000E-01
  8.50000000E-01  8.50000000E-01  8.50000000E-01  8.50000000E-01  8.50000000E-01
  8.50000000E-01  8.50000000E-01  8.50000000E-01  8.50000000E-01  8.50000000E-01
  8.50000000E-01  8.50000000E-01  8.50000000E-01  8.50000000E-01  8.50000000E-01
  8.50000000E-01  8.50000000E-01  8.50000000E-01  8.50000000E-01  8.50000000E-01
  8.50000000E-01  8.50000000E-01  8.50000000E-01  8.50000000E-01  8.50000000E-01
  8.50000000E-01  8.50000000E-01  8.50000000E-01  8.50000000E-01  8.50000000E-01
  8.50000000E-01  8.50000000E-01  8.50000000E-01  8.50000000E-01  8.50000000E-01
  8.50000000E-01  8.50000000E-01  8.50000000E-01  8.50000000E-01  8.50000000E-01
  8.50000000E-01  8.50000000E-01  8.50000000E-01  8.50000000E-01  8.50000000E-01
  8.50000000E-01  8.50000000E-01  8.50000000E-01  8.50000000E-01  8.50000000E-01
  8.50000000E-01  8.50000000E-01  8.50000000E-01  8.50000000E-01  8.50000000E-01
  8.50000000E-01  8.50000000E-01  8.50000000E-01  8.50000000E-01  8.50000000E-01
  8.50000000E-01  8.50000000E-01  8.50000000E-01  8.50000000E-01  8.50000000E-01
  8.50000000E-01  8.50000000E-01  8.50000000E-01  8.50000000E-01  8.50000000E-01
  8.50000000E-01  8.50000000E-01  8.50000000E-01  8.50000000E-01  8.50000000E-01
  8.50000000E-01  8.50000000E-01  8.50000000E-01  8.50000000E-01  8.50000000E-01
  8.50000000E-01  8.50000000E-01  8.50000000E-01  8.50000000E-01  8.50000000E-01
  8.50000000E-01  8.50000000E-01  8.50000000E-01  8.50000000E-01  8.50000000E-01
  8.50000000E-01  8.50000000E-01  8.50000000E-01  8.50000000E-01  8.50000000E-01
  8.50000000E-01  8.50000000E-01  8.50000000E-01  8.50000000E-01  8.50000000E-01
  8.50000000E-01  8.50000000E-01  8.50000000E-01  8.50000000E-01  8.50000000E-01
  8.50000000E-01  8.50000000E-01  8.50000000E-01  8.50000000E-01  8.50000000E-01
  8.50000000E-01  8.50000000E-01  8.50000000E-01  8.50000000E-01  8.50000000E-01
  8.50000000E-01  8.50000000E-01  8.50000000E-01  8.50000000E-01  8.50000000E-01
  8.50000000E-01  8.50000000E-01  8.50000000E-01  8.50000000E-01  8.50000000E-01
  8.50000000E-01  8.50000000E-01  8.50000000E-01  8.50000000E-01  8.50000000E-01
  8.50000000E-01  8.50000000E-01  8.50000000E-01  8.50000000E-01  8.50000000E-01
  8.50000000E-01  8.50000000E-01  8.50000000E-01  8.50000000E-01  8.50000000E-01
  8.50000000E-01  8.50000000E-01  8.50000000E-01  8.50000000E-01  8.50000000E-01
  8.50000000E-01  8.50000000E-01  8.50000000E-01  8.50000000E-01  8.50000000E-01
  8.50000000E-01  8.50000000E-01  8.50000000E-01  8.50000000E-01  8.50000000E-01
  8.50000000E-01  8.50000000E-01  8.50000000E-01  8.50000000E-01  8.50000000E-01
  8.50000000E-01  8.50000000E-01  8.50000000E-01  8.50000000E-01  8.50000000E-01
  8.50000000E-01  8.50000000E-01  8.50000000E-01  8.50000000E-01  8.50000000E-01
  8.50000000E-01  8.50000000E-01  8.50000000E-01  8.50000000E-01  8.50000000E-01
  8.50000000E-01  8.50000000E-01  8.50000000E-01  8.50000000E-01  8.50000000E-01
  8.50000000E-01  8.50000000E-01  8.50000000E-01  8.50000000E-01  8.50000000E-01
  8.50000000E-01  8.50000000E-01  8.50000000E-01  8.50000000E-01  8.50000000E-01
  8.50000000E-01  8.50000000E-01  8.50000000E-01  8.50000000E-01  8.50000000E-01
  8.50000000E-01  8.50000000E-01  8.50000000E-01  8.50000000E-01  8.50000000E-01
  8.50000000E-01  8.50000000E-01  8.50000000E-01  8.50000000E-01  8.50000000E-01
  8.50000000E-01  8.50000000E-01  8.50000000E-01  8.50000000E-01  8.50000000E-01
  8.50000000E-01  8.50000000E-01  8.50000000E-01  8.50000000E-01  8.50000000E-01
  8.50000000E-01  8.50000000E-01  8.50000000E-01  8.50000000E-01  8.50000000E-01
  8.50000000E-01  8.50000000E-01  8.50000000E-01  8.50000000E-01  8.50000000E-01
  8.50000000E-01  8.50000000E-01  8.50000000E-01  8.50000000E-01  8.50000000E-01
  8.50000000E-01  8.50000000E-01  8.50000000E-01  8.50000000E-01  8.50000000E-01
  8.50000000E-01  8.50000000E-01  8.50000000E-01  8.50000000E-01  8.50000000E-01
  8.50000000E-01  8.50000000E-01  8.50000000E-01  8.50000000E-01  8.50000000E-01
  8.50000000E-01  8.50000000E-01  8.50000000E-01  8.50000000E-01  8.50000000E-01
  8.50000000E-01  8.50000000E-01  8.50000000E-01  8.50000000E-01  8.50000000E-01
  8.50000000E-01  8.50000000E-01  8.50000000E-01  8.50000000E-01  8.50000000E-01
  8.50000000E-01  8.50000000E-01  8.50000000E-01  8.50000000E-01  8.50000000E-01
  8.50000000E-01  8.50000000E-01  8.50000000E-01  8.50000000E-01  8.50000000E-01
  8.50000000E-01  8.50000000E-01  8.50000000E-01  8.50000000E-01  8.50000000E-01
  8.50000000E-01  8.50000000E-01  8.50000000E-01  8.50000000E-01  8.50000000E-01
  8.50000000E-01  8.50000000E-01  8.50000000E-01  8.50000000E-01  8.50000000E-01
  8.50000000E-01  8.50000000E-01  8.50000000E-01  8.50000000E-01  8.50000000E-01
  8.50000000E-01  8.50000000E-01  8.50000000E-01  8.50000000E-01  8.50000000E-01
  8.50000000E-01  8.50000000E-01  8.50000000E-01  8.50000000E-01  8.50000000E-01
  8.50000000E-01  8.50000000E-01  8.50000000E-01  8.50000000E-01  8.50000000E-01
  8.50000000E-01  8.50000000E-01  8.50000000E-01  8.50000000E-01  8.50000000E-01
  8.50000000E-01  8.50000000E-01  8.50000000E-01  8.50000000E-01  8.50000000E-01
  8.50000000E-01  8.50000000E-01  8.50000000E-01  8.50000000E-01  8.50000000E-01
  8.50000000E-01  8.50000000E-01  8.50000000E-01  8.50000000E-01  8.50000000E-01
  8.50000000E-01  8.50000000E-01  8.50000000E-01  8.50000000E-01  8.50000000E-01
  8.50000000E-01  8.50000000E-01  8.50000000E-01  8.50000000E-01  8.50000000E-01
  8.50000000E-01  8.50000000E-01  8.50000000E-01  8.50000000E-01  8.50000000E-01
  8.50000000E-01  8.50000000E-01  8.50000000E-01  8.50000000E-01  8.50000000E-01
  8.50000000E-01  8.50000000E-01  8.50000000E-01  8.50000000E-01  8.50000000E-01
  8.50000000E-01  8.50000000E-01  8.50000000E-01  8.50000000E-01  8.50000000E-01
  8.50000000E-01  8.50000000E-01  8.50000000E-01  8.50000000E-01  8.50000000E-01
  8.50000000E-01  8.50000000E-01  8.50000000E-01  8.50000000E-01  8.50000000E-01
  8.50000000E-01  8.50000000E-01  8.50000000E-01  8.50000000E-01  8.50000000E-01
  8.50000000E-01  8.50000000E-01  8.50000000E-01  8.50000000E-01  8.50000000E-01
  8.50000000E-01  8.50000000E-01  8.50000000E-01  8.50000000E-01  8.50000000E-01
  8.50000000E-01  8.50000000E-01  8.50000000E-01  8.50000000E-01  8.50000000E-01
  8.50000000E-01  8.50000000E-01  8.50000000E-01  8.50000000E-01  8.50000000E-01
  8.50000000E-01  8.50000000E-01  8.50000000E-01  8.50000000E-01  8.50000000E-01
  8.50000000E-01  8.50000000E-01  8.50000000E-01  8.50000000E-01  8.50000000E-01
  8.50000000E-01  8.50000000E-01  8.50000000E-01  8.50000000E-01  8.50000000E-01
  8.50000000E-01  8.50000000E-01  8.50000000E-01  8.50000000E-01  8.50000000E-01
  8.50000000E-01  8.50000000E-01  8.50000000E-01  8.50000000E-01  8.50000000E-01
  8.50000000E-01  8.50000000E-01  8.50000000E-01  8.50000000E-01  8.50000000E-01
  8.50000000E-01  8.50000000E-01  8.50000000E-01  8.50000000E-01  8.50000000E-01
  8.50000000E-01  8.50000000E-01  8.50000000E-01  8.50000000E-01  8.50000000E-01
  8.50000000E-01  8.50000000E-01  8.50000000E-01  8.50000000E-01  8.50000000E-01
  8.50000000E-01  8.50000000E-01  8.50000000E-01  8.50000000E-01  8.50000000E-01
  8.50000000E-01  8.50000000E-01  8.50000000E-01  8.50000000E-01  8.50000000E-01
  8.50000000E-01  8.50000000E-01  8.50000000E-01  8.50000000E-01  8.50000000E-01
  8.50000000E-01  8.50000000E-01  8.50000000E-01  8.50000000E-01  8.50000000E-01
  8.50000000E-01  8.50000000E-01  8.50000000E-01  8.50000000E-01  8.50000000E-01
  8.50000000E-01  8.50000000E-01  8.50000000E-01  8.50000000E-01  8.50000000E-01
  8.50000000E-01  8.50000000E-01  8.50000000E-01  8.50000000E-01  8.50000000E-01
  8.50000000E-01  8.50000000E-01  8.50000000E-01  8.50000000E-01  8.50000000E-01
  8.50000000E-01  8.50000000E-01  8.50000000E-01  8.50000000E-01  8.50000000E-01
  8.50000000E-01  8.50000000E-01  8.50000000E-01  8.50000000E-01  8.50000000E-01
  8.50000000E-01  8.50000000E-01  8.50000000E-01  8.50000000E-01  8.50000000E-01
  8.50000000E-01  8.50000000E-01  8.50000000E-01  8.50000000E-01  8.50000000E-01
  8.50000000E-01  8.50000000E-01  8.50000000E-01  8.50000000E-01  8.50000000E-01
  8.50000000E-01  8.50000000E-01  8.50000000E-01  8.50000000E-01  8.50000000E-01
  8.50000000E-01  8.50000000E-01  8.50000000E-01  8.50000000E-01  8.50000000E-01
  8.50000000E-01  8.50000000E-01  8.50000000E-01  8.50000000E-01  8.50000000E-01
  8.50000000E-01  8.50000000E-01  8.50000000E-01  8.50000000E-01  8.50000000E-01
  8.50000000E-01  8.50000000E-01  8.50000000E-01  8.50000000E-01  8.50000000E-01
  8.50000000E-01  8.50000000E-01  8.50000000E-01  8.50000000E-01  8.50000000E-01
  8.50000000E-01  8.50000000E-01  8.50000000E-01  8.50000000E-01  8.50000000E-01
  8.50000000E-01  8.50000000E-01  8.50000000E-01  8.50000000E-01  8.50000000E-01
  8.50000000E-01  8.50000000E-01  8.50000000E-01  8.50000000E-01  8.50000000E-01
  8.50000000E-01  8.50000000E-01  8.50000000E-01  8.50000000E-01  8.50000000E-01
  8.50000000E-01  8.50000000E-01  8.50000000E-01  8.50000000E-01  8.50000000E-01
  8.50000000E-01  8.50000000E-01  8.50000000E-01  8.50000000E-01  8.50000000E-01
  8.50000000E-01  8.50000000E-01  8.50000000E-01  8.50000000E-01  8.50000000E-01
  8.50000000E-01  8.50000000E-01  8.50000000E-01  8.50000000E-01  8.50000000E-01
  8.50000000E-01  8.50000000E-01  8.50000000E-01  8.50000000E-01  8.50000000E-01
  8.50000000E-01  8.50000000E-01  8.50000000E-01  8.50000000E-01  8.50000000E-01
  8.50000000E-01  8.50000000E-01  8.50000000E-01  8.50000000E-01  8.50000000E-01
  8.50000000E-01  8.50000000E-01  8.50000000E-01  8.50000000E-01  8.50000000E-01
  8.50000000E-01  8.50000000E-01  8.50000000E-01  8.50000000E-01  8.50000000E-01
  8.50000000E-01  8.50000000E-01  8.50000000E-01  8.50000000E-01  8.50000000E-01
  8.50000000E-01  8.50000000E-01  8.50000000E-01  8.50000000E-01  8.50000000E-01
  8.50000000E-01  8.50000000E-01  8.50000000E-01  8.50000000E-01  8.50000000E-01
  8.50000000E-01  8.50000000E-01  8.50000000E-01  8.50000000E-01  8.50000000E-01
  8.50000000E-01  8.50000000E-01  8.50000000E-01  8.50000000E-01  8.50000000E-01
  8.50000000E-01  8.50000000E-01  8.50000000E-01  8.50000000E-01  8.50000000E-01
  8.50000000E-01  8.50000000E-01  8.50000000E-01  8.50000000E-01  8.50000000E-01
  8.50000000E-01  8.50000000E-01  8.50000000E-01  8.50000000E-01  8.50000000E-01
  8.50000000E-01  8.50000000E-01  8.50000000E-01  8.50000000E-01  8.50000000E-01
  8.50000000E-01  8.50000000E-01  8.50000000E-01  8.50000000E-01  8.50000000E-01
  8.50000000E-01  8.50000000E-01  8.50000000E-01  8.50000000E-01  8.50000000E-01
  8.50000000E-01  8.50000000E-01  8.50000000E-01  8.50000000E-01  8.50000000E-01
  8.50000000E-01  8.50000000E-01  8.50000000E-01  8.50000000E-01  8.50000000E-01
  8.50000000E-01  8.50000000E-01  8.50000000E-01  8.50000000E-01  8.50000000E-01
  8.50000000E-01  8.50000000E-01  8.50000000E-01  8.50000000E-01  8.50000000E-01
  8.50000000E-01  8.50000000E-01  8.50000000E-01  8.50000000E-01  8.50000000E-01
  8.50000000E-01  8.50000000E-01  8.50000000E-01  8.50000000E-01  8.50000000E-01
  8.50000000E-01  8.50000000E-01  8.50000000E-01  8.50000000E-01  8.50000000E-01
  8.50000000E-01  8.50000000E-01  8.50000000E-01  8.50000000E-01  8.50000000E-01
  8.50000000E-01  8.50000000E-01  8.50000000E-01  8.50000000E-01  8.50000000E-01
  8.50000000E-01  8.50000000E-01  8.50000000E-01  8.50000000E-01  8.50000000E-01
  8.50000000E-01  8.50000000E-01  8.50000000E-01  8.50000000E-01  8.50000000E-01
  8.50000000E-01  8.50000000E-01  8.50000000E-01  8.50000000E-01  8.50000000E-01
  8.50000000E-01  8.50000000E-01  8.50000000E-01  8.50000000E-01  8.50000000E-01
  8.50000000E-01  8.50000000E-01  8.50000000E-01  8.50000000E-01  8.50000000E-01
  8.50000000E-01  8.50000000E-01  8.50000000E-01  8.50000000E-01  8.50000000E-01
  8.50000000E-01  8.50000000E-01  8.50000000E-01  8.50000000E-01  8.50000000E-01
  8.50000000E-01  8.50000000E-01  8.50000000E-01  8.50000000E-01  8.50000000E-01
  8.50000000E-01  8.50000000E-01  8.50000000E-01  8.50000000E-01  8.50000000E-01
  8.50000000E-01  8.50000000E-01  8.50000000E-01  8.50000000E-01  8.50000000E-01
  8.50000000E-01  8.50000000E-01  8.50000000E-01  8.50000000E-01  8.50000000E-01
  8.50000000E-01  8.50000000E-01  8.50000000E-01  8.50000000E-01  8.50000000E-01
  8.50000000E-01  8.50000000E-01  8.50000000E-01  8.50000000E-01  8.50000000E-01
  8.50000000E-01  8.50000000E-01  8.50000000E-01  8.50000000E-01  8.50000000E-01
  8.50000000E-01  8.50000000E-01  8.50000000E-01  8.50000000E-01  8.50000000E-01
  8.50000000E-01  8.50000000E-01  8.50000000E-01  8.50000000E-01  8.50000000E-01
  8.50000000E-01  8.50000000E-01  8.50000000E-01  8.50000000E-01  8.50000000E-01
  8.50000000E-01  8.50000000E-01  8.50000000E-01  8.50000000E-01  8.50000000E-01
  8.50000000E-01  8.50000000E-01  8.50000000E-01  8.50000000E-01  8.50000000E-01
  8.50000000E-01  8.50000000E-01  8.50000000E-01  8.50000000E-01  8.50000000E-01
  8.50000000E-01  8.50000000E-01  8.50000000E-01  8.50000000E-01  8.50000000E-01
  8.50000000E-01  8.50000000E-01  8.50000000E-01  8.50000000E-01  8.50000000E-01
  8.50000000E-01  8.50000000E-01  8.50000000E-01  8.50000000E-01  8.50000000E-01
  8.50000000E-01  8.50000000E-01  8.50000000E-01  8.50000000E-01  8.50000000E-01
  8.50000000E-01  8.50000000E-01  8.50000000E-01  8.50000000E-01  8.50000000E-01
  8.50000000E-01  8.50000000E-01  8.50000000E-01  8.50000000E-01  8.50000000E-01
  8.50000000E-01  8.50000000E-01  8.50000000E-01  8.50000000E-01  8.50000000E-01
  8.50000000E-01  8.50000000E-01  8.50000000E-01  8.50000000E-01  8.50000000E-01
  8.50000000E-01  8.50000000E-01  8.50000000E-01  8.50000000E-01  8.50000000E-01
  8.50000000E-01  8.50000000E-01  8.50000000E-01  8.50000000E-01  8.50000000E-01
  8.50000000E-01  8.50000000E-01  8.50000000E-01  8.50000000E-01  8.50000000E-01
  8.50000000E-01  8.50000000E-01  8.50000000E-01  8.50000000E-01  8.50000000E-01
  8.50000000E-01  8.50000000E-01  8.50000000E-01  8.50000000E-01  8.50000000E-01
  8.50000000E-01  8.50000000E-01  8.50000000E-01  8.50000000E-01  8.50000000E-01
  8.50000000E-01  8.50000000E-01  8.50000000E-01  8.50000000E-01  8.50000000E-01
  8.50000000E-01  8.50000000E-01  8.50000000E-01  8.50000000E-01  8.50000000E-01
  8.50000000E-01  8.50000000E-01  8.50000000E-01  8.50000000E-01  8.50000000E-01
  8.50000000E-01  8.50000000E-01  8.50000000E-01  8.50000000E-01  8.50000000E-01
  8.50000000E-01  8.50000000E-01  8.50000000E-01  8.50000000E-01  8.50000000E-01
  8.50000000E-01  8.50000000E-01  8.50000000E-01  8.50000000E-01  8.50000000E-01
  8.50000000E-01  8.50000000E-01  8.50000000E-01  8.50000000E-01  8.50000000E-01
  8.50000000E-01  8.50000000E-01  8.50000000E-01  8.50000000E-01  8.50000000E-01
  8.50000000E-01  8.50000000E-01  8.50000000E-01  8.50000000E-01  8.50000000E-01
  8.50000000E-01  8.50000000E-01  8.50000000E-01  8.50000000E-01  8.50000000E-01
  8.50000000E-01  8.50000000E-01  8.50000000E-01  8.50000000E-01  8.50000000E-01
  8.50000000E-01  8.50000000E-01  8.50000000E-01  8.50000000E-01  8.50000000E-01
  8.50000000E-01  8.50000000E-01  8.50000000E-01  8.50000000E-01  8.50000000E-01
  8.50000000E-01  8.50000000E-01  8.50000000E-01  8.50000000E-01  8.50000000E-01
  8.50000000E-01  8.50000000E-01  8.50000000E-01  8.50000000E-01  8.50000000E-01
  8.50000000E-01  8.50000000E-01  8.50000000E-01  8.50000000E-01  8.50000000E-01
  8.50000000E-01  8.50000000E-01  8.50000000E-01  8.50000000E-01  8.50000000E-01
  8.50000000E-01  8.50000000E-01  8.50000000E-01  8.50000000E-01  8.50000000E-01
  8.50000000E-01  8.50000000E-01  8.50000000E-01  8.50000000E-01  8.50000000E-01
  8.50000000E-01  8.50000000E-01  8.50000000E-01  8.50000000E-01  8.50000000E-01
  8.50000000E-01  8.50000000E-01  8.50000000E-01  8.50000000E-01  8.50000000E-01
  8.50000000E-01  8.50000000E-01  8.50000000E-01  8.50000000E-01  8.50000000E-01
  8.50000000E-01  8.50000000E-01  8.50000000E-01  8.50000000E-01  8.50000000E-01
  8.50000000E-01  8.50000000E-01  8.50000000E-01  8.50000000E-01  8.50000000E-01
  8.50000000E-01  8.50000000E-01  8.50000000E-01  8.50000000E-01  8.50000000E-01
  8.50000000E-01  8.50000000E-01  8.50000000E-01  8.50000000E-01  8.50000000E-01
  8.50000000E-01  8.50000000E-01  8.50000000E-01  8.50000000E-01  8.50000000E-01
  8.50000000E-01  8.50000000E-01  8.50000000E-01  8.50000000E-01  8.50000000E-01
  8.50000000E-01  8.50000000E-01  8.50000000E-01  8.50000000E-01  8.50000000E-01
  8.50000000E-01  8.50000000E-01  8.50000000E-01  8.50000000E-01  8.50000000E-01
  8.50000000E-01  8.50000000E-01  8.50000000E-01  8.50000000E-01  8.50000000E-01
  8.50000000E-01  8.50000000E-01  8.50000000E-01  8.50000000E-01  8.50000000E-01
  8.50000000E-01  8.50000000E-01  8.50000000E-01  8.50000000E-01  8.50000000E-01
  8.50000000E-01  8.50000000E-01  8.50000000E-01  8.50000000E-01  8.50000000E-01
  8.50000000E-01  8.50000000E-01  8.50000000E-01  8.50000000E-01  8.50000000E-01
  8.50000000E-01  8.50000000E-01  8.50000000E-01  8.50000000E-01  8.50000000E-01
  8.50000000E-01  8.50000000E-01  8.50000000E-01  8.50000000E-01  8.50000000E-01
  8.50000000E-01  8.50000000E-01  8.50000000E-01  8.50000000E-01  8.50000000E-01
  8.50000000E-01  8.50000000E-01  8.50000000E-01  8.50000000E-01  8.50000000E-01
  8.50000000E-01  8.50000000E-01  8.50000000E-01  8.50000000E-01  8.50000000E-01
  8.50000000E-01  8.50000000E-01  8.50000000E-01  8.50000000E-01  8.50000000E-01
  8.50000000E-01  8.50000000E-01  8.50000000E-01  8.50000000E-01  8.50000000E-01
  8.50000000E-01  8.50000000E-01  8.50000000E-01  8.50000000E-01  8.50000000E-01
  8.50000000E-01  8.50000000E-01  8.50000000E-01  8.50000000E-01  8.50000000E-01
  8.50000000E-01  8.50000000E-01  8.50000000E-01  8.50000000E-01  8.50000000E-01
  8.50000000E-01  8.50000000E-01  8.50000000E-01  8.50000000E-01  8.50000000E-01
  8.50000000E-01  8.50000000E-01  8.50000000E-01  8.50000000E-01  8.50000000E-01
  8.50000000E-01  8.50000000E-01  8.50000000E-01  8.50000000E-01  8.50000000E-01
  8.50000000E-01  8.50000000E-01  8.50000000E-01  8.50000000E-01  8.50000000E-01
  8.50000000E-01  8.50000000E-01  8.50000000E-01  8.50000000E-01  8.50000000E-01
  8.50000000E-01  8.50000000E-01  8.50000000E-01  8.50000000E-01  8.50000000E-01
  8.50000000E-01  8.50000000E-01  8.50000000E-01  8.50000000E-01  8.50000000E-01
  8.50000000E-01  8.50000000E-01  8.50000000E-01  8.50000000E-01  8.50000000E-01
  8.50000000E-01  8.50000000E-01  8.50000000E-01  8.50000000E-01  8.50000000E-01
  8.50000000E-01  8.50000000E-01  8.50000000E-01  8.50000000E-01  8.50000000E-01
  8.50000000E-01  8.50000000E-01  8.50000000E-01  8.50000000E-01  8.50000000E-01
  8.50000000E-01  8.50000000E-01  8.50000000E-01  8.50000000E-01  8.50000000E-01
  8.50000000E-01  8.50000000E-01  8.50000000E-01  8.50000000E-01  8.50000000E-01
  8.50000000E-01  8.50000000E-01  8.50000000E-01  8.50000000E-01  8.50000000E-01
  8.50000000E-01  8.50000000E-01  8.50000000E-01  8.50000000E-01  8.50000000E-01
  8.50000000E-01  8.50000000E-01  8.50000000E-01  8.50000000E-01  8.50000000E-01
  8.50000000E-01  8.50000000E-01  8.50000000E-01  8.50000000E-01  8.50000000E-01
  8.50000000E-01  8.50000000E-01  8.50000000E-01  8.50000000E-01  8.50000000E-01
  8.50000000E-01  8.50000000E-01  8.50000000E-01  8.50000000E-01  8.50000000E-01
  8.50000000E-01  8.50000000E-01  8.50000000E-01  8.50000000E-01  8.50000000E-01
  8.50000000E-01  8.50000000E-01  8.50000000E-01  8.50000000E-01  8.50000000E-01
  8.50000000E-01  8.50000000E-01  8.50000000E-01  8.50000000E-01  8.50000000E-01
  8.50000000E-01  8.50000000E-01  8.50000000E-01  8.50000000E-01  8.50000000E-01
  8.50000000E-01  8.50000000E-01  8.50000000E-01  8.50000000E-01  8.50000000E-01
  8.50000000E-01  8.50000000E-01  8.50000000E-01  8.50000000E-01  8.50000000E-01
  8.50000000E-01  8.50000000E-01  8.50000000E-01  8.50000000E-01  8.50000000E-01
  8.50000000E-01  8.50000000E-01  8.50000000E-01  8.50000000E-01  8.50000000E-01
  8.50000000E-01  8.50000000E-01  8.50000000E-01  8.50000000E-01  8.50000000E-01
  8.50000000E-01  8.50000000E-01  8.50000000E-01  8.50000000E-01  8.50000000E-01
  8.50000000E-01  8.50000000E-01  8.50000000E-01  8.50000000E-01  8.50000000E-01
  8.50000000E-01  8.50000000E-01  8.50000000E-01  8.50000000E-01  8.50000000E-01
  8.50000000E-01  8.50000000E-01  8.50000000E-01  8.50000000E-01  8.50000000E-01
  8.50000000E-01  8.50000000E-01  8.50000000E-01  8.50000000E-01  8.50000000E-01
  8.50000000E-01  8.50000000E-01  8.50000000E-01  8.50000000E-01  8.50000000E-01
  8.50000000E-01  8.50000000E-01  8.50000000E-01  8.50000000E-01  8.50000000E-01
  8.50000000E-01  8.50000000E-01  8.50000000E-01  8.50000000E-01  8.50000000E-01
  8.50000000E-01  8.50000000E-01  8.50000000E-01  8.50000000E-01  8.50000000E-01
  8.50000000E-01  8.50000000E-01  8.50000000E-01  8.50000000E-01  8.50000000E-01
  8.50000000E-01  8.50000000E-01  8.50000000E-01  8.50000000E-01  8.50000000E-01
  8.50000000E-01  8.50000000E-01  8.50000000E-01  8.50000000E-01  8.50000000E-01
  8.50000000E-01  8.50000000E-01  8.50000000E-01  8.50000000E-01  8.50000000E-01
  8.50000000E-01  8.50000000E-01  8.50000000E-01  8.50000000E-01  8.50000000E-01
  8.50000000E-01  8.50000000E-01  8.50000000E-01  8.50000000E-01  8.50000000E-01
  8.50000000E-01  8.50000000E-01  8.50000000E-01  8.50000000E-01  8.50000000E-01
  8.50000000E-01  8.50000000E-01  8.50000000E-01  8.50000000E-01  8.50000000E-01
  8.50000000E-01  8.50000000E-01  8.50000000E-01  8.50000000E-01  8.50000000E-01
  8.50000000E-01  8.50000000E-01  8.50000000E-01  8.50000000E-01  8.50000000E-01
  8.50000000E-01  8.50000000E-01  8.50000000E-01  8.50000000E-01  8.50000000E-01
  8.50000000E-01  8.50000000E-01  8.50000000E-01  8.50000000E-01  8.50000000E-01
  8.50000000E-01  8.50000000E-01  8.50000000E-01  8.50000000E-01  8.50000000E-01
  8.50000000E-01  8.50000000E-01  8.50000000E-01  8.50000000E-01  8.50000000E-01
  8.50000000E-01  8.50000000E-01  8.50000000E-01  8.50000000E-01  8.50000000E-01
  8.50000000E-01  8.50000000E-01  8.50000000E-01  8.50000000E-01  8.50000000E-01
  8.50000000E-01  8.50000000E-01  8.50000000E-01  8.50000000E-01  8.50000000E-01
  8.50000000E-01  8.50000000E-01  8.50000000E-01  8.50000000E-01  8.50000000E-01
  8.50000000E-01  8.50000000E-01  8.50000000E-01  8.50000000E-01  8.50000000E-01
  8.50000000E-01  8.50000000E-01  8.50000000E-01  8.50000000E-01  8.50000000E-01
  8.50000000E-01  8.50000000E-01  8.50000000E-01  8.50000000E-01  8.50000000E-01
  8.50000000E-01  8.50000000E-01  8.50000000E-01  8.50000000E-01  8.50000000E-01
  8.50000000E-01  8.50000000E-01  8.50000000E-01  8.50000000E-01  8.50000000E-01
  8.50000000E-01  8.50000000E-01  8.50000000E-01  8.50000000E-01  8.50000000E-01
  8.50000000E-01  8.50000000E-01  8.50000000E-01  8.50000000E-01  8.50000000E-01
  8.50000000E-01  8.50000000E-01  8.50000000E-01  8.50000000E-01  8.50000000E-01
  8.50000000E-01  8.50000000E-01  8.50000000E-01  8.50000000E-01  8.50000000E-01
  8.50000000E-01  8.50000000E-01  8.50000000E-01  8.50000000E-01  8.50000000E-01
  8.50000000E-01  8.50000000E-01  8.50000000E-01  8.50000000E-01  8.50000000E-01
  8.50000000E-01  8.50000000E-01  8.50000000E-01  8.50000000E-01  8.50000000E-01
  8.50000000E-01  8.50000000E-01  8.50000000E-01  8.50000000E-01  8.50000000E-01
  8.50000000E-01  8.50000000E-01  8.50000000E-01  8.50000000E-01  8.50000000E-01
  8.50000000E-01  8.50000000E-01  8.50000000E-01  8.50000000E-01  8.50000000E-01
  8.50000000E-01  8.50000000E-01  8.50000000E-01  8.50000000E-01  8.50000000E-01
  8.50000000E-01  8.50000000E-01  8.50000000E-01  8.50000000E-01  8.50000000E-01
  8.50000000E-01  8.50000000E-01  8.50000000E-01  8.50000000E-01  8.50000000E-01
  8.50000000E-01  8.50000000E-01  8.50000000E-01  8.50000000E-01  8.50000000E-01
  8.50000000E-01  8.50000000E-01  8.50000000E-01  8.50000000E-01  8.50000000E-01
  8.50000000E-01  8.50000000E-01  8.50000000E-01  8.50000000E-01  8.50000000E-01
  8.50000000E-01  8.50000000E-01  8.50000000E-01  8.50000000E-01  8.50000000E-01
  8.50000000E-01  8.50000000E-01  8.50000000E-01  8.50000000E-01  8.50000000E-01
  8.50000000E-01  8.50000000E-01  8.50000000E-01  8.50000000E-01  8.50000000E-01
  8.50000000E-01  8.50000000E-01  8.50000000E-01  8.50000000E-01  8.50000000E-01
  8.50000000E-01  8.50000000E-01  8.50000000E-01  8.50000000E-01  8.50000000E-01
  8.50000000E-01  8.50000000E-01  8.50000000E-01  8.50000000E-01  8.50000000E-01
  8.50000000E-01  8.50000000E-01  8.50000000E-01  8.50000000E-01  8.50000000E-01
  8.50000000E-01  8.50000000E-01  8.50000000E-01  8.50000000E-01  8.50000000E-01
  8.50000000E-01  8.50000000E-01  8.50000000E-01  8.50000000E-01  8.50000000E-01
  8.50000000E-01  8.50000000E-01  8.50000000E-01  8.50000000E-01  8.50000000E-01
  8.50000000E-01  8.50000000E-01  8.50000000E-01  8.50000000E-01  8.50000000E-01
  8.50000000E-01  8.50000000E-01  8.50000000E-01  8.50000000E-01  8.50000000E-01
  8.50000000E-01  8.50000000E-01  8.50000000E-01  8.50000000E-01  8.50000000E-01
  8.50000000E-01  8.50000000E-01  8.50000000E-01  8.50000000E-01  8.50000000E-01
  8.50000000E-01  8.50000000E-01  8.50000000E-01  8.50000000E-01  8.50000000E-01
  8.50000000E-01  8.50000000E-01  8.50000000E-01  8.50000000E-01  8.50000000E-01
  8.50000000E-01  8.50000000E-01  8.50000000E-01  8.50000000E-01  8.50000000E-01
  8.50000000E-01  8.50000000E-01  8.50000000E-01  8.50000000E-01  8.50000000E-01
  8.50000000E-01  8.50000000E-01  8.50000000E-01  8.50000000E-01  8.50000000E-01
  8.50000000E-01  8.50000000E-01  8.50000000E-01  8.50000000E-01  8.50000000E-01
  8.50000000E-01  8.50000000E-01  8.50000000E-01  8.50000000E-01  8.50000000E-01
  8.50000000E-01  8.50000000E-01  8.50000000E-01  8.50000000E-01  8.50000000E-01
  8.50000000E-01  8.50000000E-01  8.50000000E-01  8.50000000E-01  8.50000000E-01
  8.50000000E-01  8.50000000E-01  8.50000000E-01  8.50000000E-01  8.50000000E-01
  8.50000000E-01  8.50000000E-01  8.50000000E-01  8.50000000E-01  8.50000000E-01
  8.50000000E-01  8.50000000E-01  8.50000000E-01  8.50000000E-01  8.50000000E-01
  8.50000000E-01  8.50000000E-01  8.50000000E-01  8.50000000E-01  8.50000000E-01
  8.50000000E-01  8.50000000E-01  8.50000000E-01  8.50000000E-01  8.50000000E-01
  8.50000000E-01  8.50000000E-01  8.50000000E-01  8.50000000E-01  8.50000000E-01
  8.50000000E-01  8.50000000E-01  8.50000000E-01  8.50000000E-01  8.50000000E-01
  8.50000000E-01  8.50000000E-01  8.50000000E-01  8.50000000E-01  8.50000000E-01
  8.50000000E-01  8.50000000E-01  8.50000000E-01  8.50000000E-01  8.50000000E-01
  8.50000000E-01  8.50000000E-01  8.50000000E-01  8.50000000E-01  8.50000000E-01
  8.50000000E-01  8.50000000E-01  8.50000000E-01  8.50000000E-01  8.50000000E-01
  8.50000000E-01  8.50000000E-01  8.50000000E-01  8.50000000E-01  8.50000000E-01
  8.50000000E-01  8.50000000E-01  8.50000000E-01  8.50000000E-01  8.50000000E-01
  8.50000000E-01  8.50000000E-01  8.50000000E-01  8.50000000E-01  8.50000000E-01
  8.50000000E-01  8.50000000E-01  8.50000000E-01  8.50000000E-01  8.50000000E-01
  8.50000000E-01  8.50000000E-01  8.50000000E-01  8.50000000E-01  8.50000000E-01
  8.50000000E-01  8.50000000E-01  8.50000000E-01  8.50000000E-01  8.50000000E-01
  8.50000000E-01  8.50000000E-01  8.50000000E-01  8.50000000E-01  8.50000000E-01
  8.50000000E-01  8.50000000E-01  8.50000000E-01  8.50000000E-01  8.50000000E-01
  8.50000000E-01  8.50000000E-01  8.50000000E-01  8.50000000E-01  8.50000000E-01
  8.50000000E-01  8.50000000E-01  8.50000000E-01  8.50000000E-01  8.50000000E-01
  8.50000000E-01  8.50000000E-01  8.50000000E-01  8.50000000E-01  8.50000000E-01
  8.50000000E-01  8.50000000E-01  8.50000000E-01  8.50000000E-01  8.50000000E-01
  8.50000000E-01  8.50000000E-01  8.50000000E-01  8.50000000E-01  8.50000000E-01
  8.50000000E-01  8.50000000E-01  8.50000000E-01  8.50000000E-01  8.50000000E-01
  8.50000000E-01  8.50000000E-01  8.50000000E-01  8.50000000E-01  8.50000000E-01
  8.50000000E-01  8.50000000E-01  8.50000000E-01  8.50000000E-01  8.50000000E-01
  8.50000000E-01  8.50000000E-01  8.50000000E-01  8.50000000E-01  8.50000000E-01
  8.50000000E-01  8.50000000E-01  8.50000000E-01  8.50000000E-01  8.50000000E-01
  8.50000000E-01  8.50000000E-01  8.50000000E-01  8.50000000E-01  8.50000000E-01
  8.50000000E-01  8.50000000E-01  8.50000000E-01  8.50000000E-01  8.50000000E-01
  8.50000000E-01  8.50000000E-01  8.50000000E-01  8.50000000E-01  8.50000000E-01
  8.50000000E-01  8.50000000E-01  8.50000000E-01  8.50000000E-01  8.50000000E-01
  8.50000000E-01  8.50000000E-01  8.50000000E-01  8.50000000E-01  8.50000000E-01
  8.50000000E-01  8.50000000E-01  8.50000000E-01  8.50000000E-01  8.50000000E-01
  8.50000000E-01  8.50000000E-01  8.50000000E-01  8.50000000E-01  8.50000000E-01
  8.50000000E-01  8.50000000E-01  8.50000000E-01  8.50000000E-01  8.50000000E-01
  8.50000000E-01  8.50000000E-01  8.50000000E-01  8.50000000E-01  8.50000000E-01
  8.50000000E-01  8.50000000E-01  8.50000000E-01  8.50000000E-01  8.50000000E-01
  8.50000000E-01  8.50000000E-01  8.50000000E-01  8.50000000E-01  8.50000000E-01
  8.50000000E-01  8.50000000E-01  8.50000000E-01  8.50000000E-01  8.50000000E-01
  8.50000000E-01  8.50000000E-01  8.50000000E-01  8.50000000E-01  8.50000000E-01
  8.50000000E-01  8.50000000E-01  8.50000000E-01  8.50000000E-01  8.50000000E-01
  8.50000000E-01  8.50000000E-01  8.50000000E-01  8.50000000E-01  8.50000000E-01
  8.50000000E-01  8.50000000E-01  8.50000000E-01  8.50000000E-01  8.50000000E-01
  8.50000000E-01  8.50000000E-01  8.50000000E-01  8.50000000E-01  8.50000000E-01
  8.50000000E-01  8.50000000E-01  8.50000000E-01  8.50000000E-01  8.50000000E-01
  8.50000000E-01  8.50000000E-01  8.50000000E-01  8.50000000E-01  8.50000000E-01
  8.50000000E-01  8.50000000E-01  8.50000000E-01  8.50000000E-01  8.50000000E-01
  8.50000000E-01  8.50000000E-01  8.50000000E-01  8.50000000E-01  8.50000000E-01
  8.50000000E-01  8.50000000E-01  8.50000000E-01  8.50000000E-01  8.50000000E-01
  8.50000000E-01  8.50000000E-01  8.50000000E-01  8.50000000E-01  8.50000000E-01
  8.50000000E-01  8.50000000E-01  8.50000000E-01  8.50000000E-01  8.50000000E-01
  8.50000000E-01  8.50000000E-01  8.50000000E-01  8.50000000E-01  8.50000000E-01
  8.50000000E-01  8.50000000E-01  8.50000000E-01  8.50000000E-01  8.50000000E-01
  8.50000000E-01  8.50000000E-01  8.50000000E-01  8.50000000E-01  8.50000000E-01
  8.50000000E-01  8.50000000E-01  8.50000000E-01  8.50000000E-01  8.50000000E-01
  8.50000000E-01  8.50000000E-01  8.50000000E-01  8.50000000E-01  8.50000000E-01
  8.50000000E-01  8.50000000E-01  8.50000000E-01  8.50000000E-01  8.50000000E-01
  8.50000000E-01  8.50000000E-01  8.50000000E-01  8.50000000E-01  8.50000000E-01
  8.50000000E-01  8.50000000E-01  8.50000000E-01  8.50000000E-01  8.50000000E-01
  8.50000000E-01  8.50000000E-01  8.50000000E-01  8.50000000E-01  8.50000000E-01
  8.50000000E-01  8.50000000E-01  8.50000000E-01  8.50000000E-01  8.50000000E-01
  8.50000000E-01  8.50000000E-01  8.50000000E-01  8.50000000E-01  8.50000000E-01
  8.50000000E-01  8.50000000E-01  8.50000000E-01  8.50000000E-01  8.50000000E-01
  8.50000000E-01  8.50000000E-01  8.50000000E-01  8.50000000E-01  8.50000000E-01
  8.50000000E-01  8.50000000E-01  8.50000000E-01  8.50000000E-01  8.50000000E-01
  8.50000000E-01  8.50000000E-01  8.50000000E-01  8.50000000E-01  8.50000000E-01
  8.50000000E-01  8.50000000E-01  8.50000000E-01  8.50000000E-01  8.50000000E-01
  8.50000000E-01  8.50000000E-01  8.50000000E-01  8.50000000E-01  8.50000000E-01
  8.50000000E-01  8.50000000E-01  8.50000000E-01  8.50000000E-01  8.50000000E-01
  8.50000000E-01  8.50000000E-01  8.50000000E-01  8.50000000E-01  8.50000000E-01
  8.50000000E-01  8.50000000E-01  8.50000000E-01  8.50000000E-01  8.50000000E-01
  8.50000000E-01  8.50000000E-01  8.50000000E-01  8.50000000E-01  8.50000000E-01
  8.50000000E-01  8.50000000E-01  8.50000000E-01  8.50000000E-01  8.50000000E-01
  8.50000000E-01  8.50000000E-01  8.50000000E-01  8.50000000E-01  8.50000000E-01
  8.50000000E-01  8.50000000E-01  8.50000000E-01  8.50000000E-01  8.50000000E-01
  8.50000000E-01  8.50000000E-01  8.50000000E-01  8.50000000E-01  8.50000000E-01
  8.50000000E-01  8.50000000E-01  8.50000000E-01  8.50000000E-01  8.50000000E-01
  8.50000000E-01  8.50000000E-01  8.50000000E-01  8.50000000E-01  8.50000000E-01
  8.50000000E-01  8.50000000E-01  8.50000000E-01  8.50000000E-01  8.50000000E-01
  8.50000000E-01  8.50000000E-01  8.50000000E-01  8.50000000E-01  8.50000000E-01
  8.50000000E-01  8.50000000E-01  8.50000000E-01  8.50000000E-01  8.50000000E-01
  8.50000000E-01  8.50000000E-01  8.50000000E-01  8.50000000E-01  8.50000000E-01
  8.50000000E-01  8.50000000E-01  8.50000000E-01  8.50000000E-01  8.50000000E-01
  8.50000000E-01  8.50000000E-01  8.50000000E-01  8.50000000E-01  8.50000000E-01
  8.50000000E-01  8.50000000E-01  8.50000000E-01  8.50000000E-01  8.50000000E-01
  8.50000000E-01  8.50000000E-01  8.50000000E-01  8.50000000E-01  8.50000000E-01
  8.50000000E-01  8.50000000E-01  8.50000000E-01  8.50000000E-01  8.50000000E-01
  8.50000000E-01  8.50000000E-01  8.50000000E-01  8.50000000E-01  8.50000000E-01
  8.50000000E-01  8.50000000E-01  8.50000000E-01  8.50000000E-01  8.50000000E-01
  8.50000000E-01  8.50000000E-01  8.50000000E-01  8.50000000E-01  8.50000000E-01
  8.50000000E-01  8.50000000E-01  8.50000000E-01  8.50000000E-01  8.50000000E-01
  8.50000000E-01  8.50000000E-01  8.50000000E-01  8.50000000E-01  8.50000000E-01
  8.50000000E-01  8.50000000E-01  8.50000000E-01  8.50000000E-01  8.50000000E-01
  8.50000000E-01  8.50000000E-01  8.50000000E-01  8.50000000E-01  8.50000000E-01
  8.50000000E-01  8.50000000E-01  8.50000000E-01  8.50000000E-01  8.50000000E-01
  8.50000000E-01  8.50000000E-01  8.50000000E-01  8.50000000E-01  8.50000000E-01
  8.50000000E-01  8.50000000E-01  8.50000000E-01  8.50000000E-01  8.50000000E-01
  8.50000000E-01  8.50000000E-01  8.50000000E-01  8.50000000E-01  8.50000000E-01
  8.50000000E-01  8.50000000E-01  8.50000000E-01  8.50000000E-01  8.50000000E-01
  8.50000000E-01  8.50000000E-01  8.50000000E-01  8.50000000E-01  8.50000000E-01
  8.50000000E-01  8.50000000E-01  8.50000000E-01  8.50000000E-01  8.50000000E-01
  8.50000000E-01  8.50000000E-01  8.50000000E-01  8.50000000E-01  8.50000000E-01
  8.50000000E-01  8.50000000E-01  8.50000000E-01  8.50000000E-01  8.50000000E-01
  8.50000000E-01  8.50000000E-01  8.50000000E-01  8.50000000E-01  8.50000000E-01
  8.50000000E-01  8.50000000E-01  8.50000000E-01  8.50000000E-01  8.50000000E-01
  8.50000000E-01  8.50000000E-01  8.50000000E-01  8.50000000E-01  8.50000000E-01
  8.50000000E-01  8.50000000E-01  8.50000000E-01  8.50000000E-01  8.50000000E-01
  8.50000000E-01  8.50000000E-01  8.50000000E-01  8.50000000E-01  8.50000000E-01
  8.50000000E-01  8.50000000E-01  8.50000000E-01  8.50000000E-01  8.50000000E-01
  8.50000000E-01  8.50000000E-01  8.50000000E-01  8.50000000E-01  8.50000000E-01
  8.50000000E-01  8.50000000E-01  8.50000000E-01  8.50000000E-01  8.50000000E-01
  8.50000000E-01  8.50000000E-01  8.50000000E-01  8.50000000E-01  8.50000000E-01
  8.50000000E-01  8.50000000E-01  8.50000000E-01  8.50000000E-01  8.50000000E-01
  8.50000000E-01  8.50000000E-01  8.50000000E-01  8.50000000E-01  8.50000000E-01
  8.50000000E-01  8.50000000E-01  8.50000000E-01  8.50000000E-01  8.50000000E-01
  8.50000000E-01  8.50000000E-01  8.50000000E-01  8.50000000E-01  8.50000000E-01
  8.50000000E-01  8.50000000E-01  8.50000000E-01  8.50000000E-01  8.50000000E-01
  8.50000000E-01  8.50000000E-01  8.50000000E-01  8.50000000E-01  8.50000000E-01
  8.50000000E-01  8.50000000E-01  8.50000000E-01  8.50000000E-01  8.50000000E-01
  8.50000000E-01  8.50000000E-01  8.50000000E-01  8.50000000E-01  8.50000000E-01
  8.50000000E-01  8.50000000E-01  8.50000000E-01  8.50000000E-01  8.50000000E-01
  8.50000000E-01  8.50000000E-01  8.50000000E-01  8.50000000E-01  8.50000000E-01
  8.50000000E-01  8.50000000E-01  8.50000000E-01  8.50000000E-01  8.50000000E-01
  8.50000000E-01  8.50000000E-01  8.50000000E-01  8.50000000E-01  8.50000000E-01
  8.50000000E-01  8.50000000E-01  8.50000000E-01  8.50000000E-01  8.50000000E-01
  8.50000000E-01  8.50000000E-01  8.50000000E-01  8.50000000E-01  8.50000000E-01
  8.50000000E-01  8.50000000E-01  8.50000000E-01  8.50000000E-01  8.50000000E-01
  8.50000000E-01  8.50000000E-01  8.50000000E-01  8.50000000E-01  8.50000000E-01
  8.50000000E-01  8.50000000E-01  8.50000000E-01  8.50000000E-01  8.50000000E-01
  8.50000000E-01  8.50000000E-01  8.50000000E-01  8.50000000E-01  8.50000000E-01
  8.50000000E-01  8.50000000E-01  8.50000000E-01  8.50000000E-01  8.50000000E-01
  8.50000000E-01  8.50000000E-01  8.50000000E-01  8.50000000E-01  8.50000000E-01
  8.50000000E-01  8.50000000E-01  8.50000000E-01  8.50000000E-01  8.50000000E-01
  8.50000000E-01  8.50000000E-01  8.50000000E-01  8.50000000E-01  8.50000000E-01
  8.50000000E-01  8.50000000E-01  8.50000000E-01  8.50000000E-01  8.50000000E-01
  8.50000000E-01  8.50000000E-01  8.50000000E-01  8.50000000E-01  8.50000000E-01
  8.50000000E-01  8.50000000E-01  8.50000000E-01  8.50000000E-01  8.50000000E-01
  8.50000000E-01  8.50000000E-01  8.50000000E-01  8.50000000E-01  8.50000000E-01
  8.50000000E-01  8.50000000E-01  8.50000000E-01  8.50000000E-01  8.50000000E-01
  8.50000000E-01  8.50000000E-01  8.50000000E-01  8.50000000E-01  8.50000000E-01
  8.50000000E-01  8.50000000E-01  8.50000000E-01  8.50000000E-01  8.50000000E-01
  8.50000000E-01  8.50000000E-01  8.50000000E-01  8.50000000E-01  8.50000000E-01
  8.50000000E-01  8.50000000E-01  8.50000000E-01  8.50000000E-01  8.50000000E-01
  8.50000000E-01  8.50000000E-01  8.50000000E-01  8.50000000E-01  8.50000000E-01
  8.50000000E-01  8.50000000E-01  8.50000000E-01  8.50000000E-01  8.50000000E-01
  8.50000000E-01  8.50000000E-01  8.50000000E-01  8.50000000E-01  8.50000000E-01
  8.50000000E-01  8.50000000E-01  8.50000000E-01  8.50000000E-01  8.50000000E-01
  8.50000000E-01  8.50000000E-01  8.50000000E-01  8.50000000E-01  8.50000000E-01
  8.50000000E-01  8.50000000E-01  8.50000000E-01  8.50000000E-01  8.50000000E-01
  8.50000000E-01  8.50000000E-01  8.50000000E-01  8.50000000E-01  8.50000000E-01
  8.50000000E-01  8.50000000E-01  8.50000000E-01  8.50000000E-01  8.50000000E-01
  8.50000000E-01  8.50000000E-01  8.50000000E-01  8.50000000E-01  8.50000000E-01
  8.50000000E-01  8.50000000E-01  8.50000000E-01  8.50000000E-01  8.50000000E-01
  8.50000000E-01  8.50000000E-01  8.50000000E-01  8.50000000E-01  8.50000000E-01
  8.50000000E-01  8.50000000E-01  8.50000000E-01  8.50000000E-01  8.50000000E-01
  8.50000000E-01  8.50000000E-01  8.50000000E-01  8.50000000E-01  8.50000000E-01
  8.50000000E-01  8.50000000E-01  8.50000000E-01  8.50000000E-01  8.50000000E-01
  8.50000000E-01  8.50000000E-01  8.50000000E-01  8.50000000E-01  8.50000000E-01
  8.50000000E-01  8.50000000E-01  8.50000000E-01  8.50000000E-01  8.50000000E-01
  8.50000000E-01  8.50000000E-01  8.50000000E-01  8.50000000E-01  8.50000000E-01
  8.50000000E-01  8.50000000E-01  8.50000000E-01  8.50000000E-01  8.50000000E-01
  8.50000000E-01  8.50000000E-01  8.50000000E-01  8.50000000E-01  8.50000000E-01
  8.50000000E-01  8.50000000E-01  8.50000000E-01  8.50000000E-01  8.50000000E-01
  8.50000000E-01  8.50000000E-01  8.50000000E-01  8.50000000E-01  8.50000000E-01
  8.50000000E-01  8.50000000E-01  8.50000000E-01  8.50000000E-01  8.50000000E-01
  8.50000000E-01  8.50000000E-01  8.50000000E-01  8.50000000E-01  8.50000000E-01
  8.50000000E-01  8.50000000E-01  8.50000000E-01  8.50000000E-01  8.50000000E-01
  8.50000000E-01  8.50000000E-01  8.50000000E-01  8.50000000E-01  8.50000000E-01
  8.50000000E-01  8.50000000E-01  8.50000000E-01  8.50000000E-01  8.50000000E-01
  8.50000000E-01  8.50000000E-01  8.50000000E-01  8.50000000E-01  8.50000000E-01
  8.50000000E-01  8.50000000E-01  8.50000000E-01  8.50000000E-01  8.50000000E-01
  8.50000000E-01  8.50000000E-01  8.50000000E-01  8.50000000E-01  8.50000000E-01
  8.50000000E-01  8.50000000E-01  8.50000000E-01  8.50000000E-01  8.50000000E-01
  8.50000000E-01  8.50000000E-01  8.50000000E-01  8.50000000E-01  8.50000000E-01
  8.50000000E-01  8.50000000E-01  8.50000000E-01  8.50000000E-01  8.50000000E-01
  8.50000000E-01  8.50000000E-01  8.50000000E-01  8.50000000E-01  8.50000000E-01
  8.50000000E-01  8.50000000E-01  8.50000000E-01  8.50000000E-01  8.50000000E-01
  8.50000000E-01  8.50000000E-01  8.50000000E-01  8.50000000E-01  8.50000000E-01
  8.50000000E-01  8.50000000E-01  8.50000000E-01  8.50000000E-01  8.50000000E-01
  8.50000000E-01  8.50000000E-01  8.50000000E-01  8.50000000E-01  8.50000000E-01
  8.50000000E-01  8.50000000E-01  8.50000000E-01  8.50000000E-01  8.50000000E-01
  8.50000000E-01  8.50000000E-01  8.50000000E-01  8.50000000E-01  8.50000000E-01
  8.50000000E-01  8.50000000E-01  8.50000000E-01  8.50000000E-01  8.50000000E-01
  8.50000000E-01  8.50000000E-01  8.50000000E-01  8.50000000E-01  8.50000000E-01
  8.50000000E-01  8.50000000E-01  8.50000000E-01  8.50000000E-01  8.50000000E-01
  8.50000000E-01  8.50000000E-01  8.50000000E-01  8.50000000E-01  8.50000000E-01
  8.50000000E-01  8.50000000E-01  8.50000000E-01  8.50000000E-01  8.50000000E-01
  8.50000000E-01  8.50000000E-01  8.50000000E-01  8.50000000E-01  8.50000000E-01
  8.50000000E-01  8.50000000E-01  8.50000000E-01  8.50000000E-01  8.50000000E-01
  8.50000000E-01  8.50000000E-01  8.50000000E-01  8.50000000E-01  8.50000000E-01
  8.50000000E-01  8.50000000E-01  8.50000000E-01  8.50000000E-01  8.50000000E-01
  8.50000000E-01  8.50000000E-01  8.50000000E-01  8.50000000E-01  8.50000000E-01
  8.50000000E-01  8.50000000E-01  8.50000000E-01  8.50000000E-01  8.50000000E-01
  8.50000000E-01  8.50000000E-01  8.50000000E-01  8.50000000E-01  8.50000000E-01
  8.50000000E-01  8.50000000E-01  8.50000000E-01  8.50000000E-01  8.50000000E-01
  8.50000000E-01  8.50000000E-01  8.50000000E-01  8.50000000E-01  8.50000000E-01
  8.50000000E-01  8.50000000E-01  8.50000000E-01  8.50000000E-01  8.50000000E-01
  8.50000000E-01  8.50000000E-01  8.50000000E-01  8.50000000E-01  8.50000000E-01
  8.50000000E-01  8.50000000E-01  8.50000000E-01  8.50000000E-01  8.50000000E-01
  8.50000000E-01  8.50000000E-01  8.50000000E-01  8.50000000E-01  8.50000000E-01
  8.50000000E-01  8.50000000E-01  8.50000000E-01  8.50000000E-01  8.50000000E-01
  8.50000000E-01  8.50000000E-01  8.50000000E-01  8.50000000E-01  8.50000000E-01
  8.50000000E-01  8.50000000E-01  8.50000000E-01  8.50000000E-01  8.50000000E-01
  8.50000000E-01  8.50000000E-01  8.50000000E-01  8.50000000E-01  8.50000000E-01
  8.50000000E-01  8.50000000E-01  8.50000000E-01  8.50000000E-01  8.50000000E-01
  8.50000000E-01  8.50000000E-01  8.50000000E-01  8.50000000E-01  8.50000000E-01
  8.50000000E-01  8.50000000E-01  8.50000000E-01  8.50000000E-01  8.50000000E-01
  8.50000000E-01  8.50000000E-01  8.50000000E-01  8.50000000E-01  8.50000000E-01
  8.50000000E-01  8.50000000E-01  8.50000000E-01  8.50000000E-01  8.50000000E-01
  8.50000000E-01  8.50000000E-01  8.50000000E-01  8.50000000E-01  8.50000000E-01
  8.50000000E-01  8.50000000E-01  8.50000000E-01  8.50000000E-01  8.50000000E-01
  8.50000000E-01  8.50000000E-01  8.50000000E-01  8.50000000E-01  8.50000000E-01
  8.50000000E-01  8.50000000E-01  8.50000000E-01  8.50000000E-01  8.50000000E-01
  8.50000000E-01  8.50000000E-01  8.50000000E-01  8.50000000E-01  8.50000000E-01
  8.50000000E-01  8.50000000E-01  8.50000000E-01  8.50000000E-01  8.50000000E-01
  8.50000000E-01  8.50000000E-01  8.50000000E-01  8.50000000E-01  8.50000000E-01
  8.50000000E-01  8.50000000E-01  8.50000000E-01  8.50000000E-01  8.50000000E-01
  8.50000000E-01  8.50000000E-01  8.50000000E-01  8.50000000E-01  8.50000000E-01
  8.50000000E-01  8.50000000E-01  8.50000000E-01  8.50000000E-01  8.50000000E-01
  8.50000000E-01  8.50000000E-01  8.50000000E-01  8.50000000E-01  8.50000000E-01
  8.50000000E-01  8.50000000E-01  8.50000000E-01  8.50000000E-01  8.50000000E-01
  8.50000000E-01  8.50000000E-01  8.50000000E-01  8.50000000E-01  8.50000000E-01
  8.50000000E-01  8.50000000E-01  8.50000000E-01  8.50000000E-01  8.50000000E-01
  8.50000000E-01  8.50000000E-01  8.50000000E-01  8.50000000E-01  8.50000000E-01
  8.50000000E-01  8.50000000E-01  8.50000000E-01  8.50000000E-01  8.50000000E-01
  8.50000000E-01  8.50000000E-01  8.50000000E-01  8.50000000E-01  8.50000000E-01
  8.50000000E-01  8.50000000E-01  8.50000000E-01  8.50000000E-01  8.50000000E-01
  8.50000000E-01  8.50000000E-01  8.50000000E-01  8.50000000E-01  8.50000000E-01
  8.50000000E-01  8.50000000E-01  8.50000000E-01  8.50000000E-01  8.50000000E-01
  8.50000000E-01  8.50000000E-01  8.50000000E-01  8.50000000E-01  8.50000000E-01
  8.50000000E-01  8.50000000E-01  8.50000000E-01  8.50000000E-01  8.50000000E-01
  8.50000000E-01  8.50000000E-01  8.50000000E-01  8.50000000E-01  8.50000000E-01
  8.50000000E-01  8.50000000E-01  8.50000000E-01  8.50000000E-01  8.50000000E-01
  8.50000000E-01  8.50000000E-01  8.50000000E-01  8.50000000E-01  8.50000000E-01
  8.50000000E-01  8.50000000E-01  8.50000000E-01  8.50000000E-01  8.50000000E-01
  8.50000000E-01  8.50000000E-01  8.50000000E-01  8.50000000E-01  8.50000000E-01
  8.50000000E-01  8.50000000E-01  8.50000000E-01  8.50000000E-01  8.50000000E-01
  8.50000000E-01  8.50000000E-01  8.50000000E-01  8.50000000E-01  8.50000000E-01
  8.50000000E-01  8.50000000E-01  8.50000000E-01  8.50000000E-01  8.50000000E-01
  8.50000000E-01  8.50000000E-01  8.50000000E-01  8.50000000E-01  8.50000000E-01
  8.50000000E-01  8.50000000E-01  8.50000000E-01  8.50000000E-01  8.50000000E-01
  8.50000000E-01  8.50000000E-01  8.50000000E-01  8.50000000E-01  8.50000000E-01
  8.50000000E-01  8.50000000E-01  8.50000000E-01  8.50000000E-01  8.50000000E-01
  8.50000000E-01  8.50000000E-01  8.50000000E-01  8.50000000E-01  8.50000000E-01
  8.50000000E-01  8.50000000E-01  8.50000000E-01  8.50000000E-01  8.50000000E-01
  8.50000000E-01  8.50000000E-01  8.50000000E-01  8.50000000E-01  8.50000000E-01
  8.50000000E-01  8.50000000E-01  8.50000000E-01  8.50000000E-01  8.50000000E-01
  8.50000000E-01  8.50000000E-01  8.50000000E-01  8.50000000E-01  8.50000000E-01
  8.50000000E-01  8.50000000E-01  8.50000000E-01  8.50000000E-01  8.50000000E-01
  8.50000000E-01  8.50000000E-01  8.50000000E-01  8.50000000E-01  8.50000000E-01
  8.50000000E-01  8.50000000E-01  8.50000000E-01  8.50000000E-01  8.50000000E-01
  8.50000000E-01  8.50000000E-01  8.50000000E-01  8.50000000E-01  8.50000000E-01
  8.50000000E-01  8.50000000E-01  8.50000000E-01  8.50000000E-01  8.50000000E-01
  8.50000000E-01  8.50000000E-01  8.50000000E-01  8.50000000E-01  8.50000000E-01
  8.50000000E-01  8.50000000E-01  8.50000000E-01  8.50000000E-01  8.50000000E-01
  8.50000000E-01  8.50000000E-01  8.50000000E-01  8.50000000E-01  8.50000000E-01
  8.50000000E-01  8.50000000E-01  8.50000000E-01  8.50000000E-01  8.50000000E-01
  8.50000000E-01  8.50000000E-01  8.50000000E-01  8.50000000E-01  8.50000000E-01
  8.50000000E-01  8.50000000E-01  8.50000000E-01  8.50000000E-01  8.50000000E-01
  8.50000000E-01  8.50000000E-01  8.50000000E-01  8.50000000E-01  8.50000000E-01
  8.50000000E-01  8.50000000E-01  8.50000000E-01  8.50000000E-01  8.50000000E-01
  8.50000000E-01  8.50000000E-01  8.50000000E-01  8.50000000E-01  8.50000000E-01
  8.50000000E-01  8.50000000E-01  8.50000000E-01  8.50000000E-01  8.50000000E-01
  8.50000000E-01  8.50000000E-01  8.50000000E-01  8.50000000E-01  8.50000000E-01
  8.50000000E-01  8.50000000E-01  8.50000000E-01  8.50000000E-01  8.50000000E-01
  8.50000000E-01  8.50000000E-01  8.50000000E-01  8.50000000E-01  8.50000000E-01
  8.50000000E-01  8.50000000E-01  8.50000000E-01  8.50000000E-01  8.50000000E-01
  8.50000000E-01  8.50000000E-01  8.50000000E-01  8.50000000E-01  8.50000000E-01
  8.50000000E-01  8.50000000E-01  8.50000000E-01  8.50000000E-01  8.50000000E-01
  8.50000000E-01  8.50000000E-01  8.50000000E-01  8.50000000E-01  8.50000000E-01
  8.50000000E-01  8.50000000E-01  8.50000000E-01  8.50000000E-01  8.50000000E-01
  8.50000000E-01  8.50000000E-01  8.50000000E-01  8.50000000E-01  8.50000000E-01
  8.50000000E-01  8.50000000E-01  8.50000000E-01  8.50000000E-01  8.50000000E-01
  8.50000000E-01  8.50000000E-01  8.50000000E-01  8.50000000E-01  8.50000000E-01
  8.50000000E-01  8.50000000E-01  8.50000000E-01  8.50000000E-01  8.50000000E-01
  8.50000000E-01  8.50000000E-01  8.50000000E-01  8.50000000E-01  8.50000000E-01
  8.50000000E-01  8.50000000E-01  8.50000000E-01  8.50000000E-01  8.50000000E-01
  8.50000000E-01  8.50000000E-01  8.50000000E-01  8.50000000E-01  8.50000000E-01
  8.50000000E-01  8.50000000E-01  8.50000000E-01  8.50000000E-01  8.50000000E-01
  8.50000000E-01  8.50000000E-01  8.50000000E-01  8.50000000E-01  8.50000000E-01
  8.50000000E-01  8.50000000E-01  8.50000000E-01  8.50000000E-01  8.50000000E-01
  8.50000000E-01  8.50000000E-01  8.50000000E-01  8.50000000E-01  8.50000000E-01
  8.50000000E-01  8.50000000E-01  8.50000000E-01  8.50000000E-01  8.50000000E-01
  8.50000000E-01  8.50000000E-01  8.50000000E-01  8.50000000E-01  8.50000000E-01
  8.50000000E-01  8.50000000E-01  8.50000000E-01  8.50000000E-01  8.50000000E-01
  8.50000000E-01  8.50000000E-01  8.50000000E-01  8.50000000E-01  8.50000000E-01
  8.50000000E-01  8.50000000E-01  8.50000000E-01  8.50000000E-01  8.50000000E-01
  8.50000000E-01  8.50000000E-01  8.50000000E-01  8.50000000E-01  8.50000000E-01
  8.50000000E-01  8.50000000E-01  8.50000000E-01  8.50000000E-01  8.50000000E-01
  8.50000000E-01  8.50000000E-01  8.50000000E-01  8.50000000E-01  8.50000000E-01
  8.50000000E-01  8.50000000E-01  8.50000000E-01  8.50000000E-01  8.50000000E-01
  8.50000000E-01  8.50000000E-01  8.50000000E-01  8.50000000E-01  8.50000000E-01
  8.50000000E-01  8.50000000E-01  8.50000000E-01  8.50000000E-01  8.50000000E-01
  8.50000000E-01  8.50000000E-01  8.50000000E-01  8.50000000E-01  8.50000000E-01
  8.50000000E-01  8.50000000E-01  8.50000000E-01  8.50000000E-01  8.50000000E-01
  8.50000000E-01  8.50000000E-01  8.50000000E-01  8.50000000E-01  8.50000000E-01
  8.50000000E-01  8.50000000E-01  8.50000000E-01  8.50000000E-01  8.50000000E-01
  8.50000000E-01  8.50000000E-01  8.50000000E-01  8.50000000E-01  8.50000000E-01
  8.50000000E-01  8.50000000E-01  8.50000000E-01  8.50000000E-01  8.50000000E-01
  8.50000000E-01  8.50000000E-01  8.50000000E-01  8.50000000E-01  8.50000000E-01
  8.50000000E-01  8.50000000E-01  8.50000000E-01  8.50000000E-01  8.50000000E-01
  8.50000000E-01  8.50000000E-01  8.50000000E-01  8.50000000E-01  8.50000000E-01
  8.50000000E-01  8.50000000E-01  8.50000000E-01  8.50000000E-01  8.50000000E-01
  8.50000000E-01  8.50000000E-01  8.50000000E-01  8.50000000E-01  8.50000000E-01
  8.50000000E-01  8.50000000E-01  8.50000000E-01  8.50000000E-01  8.50000000E-01
  8.50000000E-01  8.50000000E-01  8.50000000E-01  8.50000000E-01  8.50000000E-01
  8.50000000E-01  8.50000000E-01  8.50000000E-01  8.50000000E-01  8.50000000E-01
  8.50000000E-01  8.50000000E-01  8.50000000E-01  8.50000000E-01  8.50000000E-01
  8.50000000E-01  8.50000000E-01  8.50000000E-01  8.50000000E-01  8.50000000E-01
  8.50000000E-01  8.50000000E-01  8.50000000E-01  8.50000000E-01  8.50000000E-01
  8.50000000E-01  8.50000000E-01  8.50000000E-01  8.50000000E-01  8.50000000E-01
  8.50000000E-01  8.50000000E-01  8.50000000E-01  8.50000000E-01  8.50000000E-01
  8.50000000E-01  8.50000000E-01  8.50000000E-01  8.50000000E-01  8.50000000E-01
  8.50000000E-01  8.50000000E-01  8.50000000E-01  8.50000000E-01  8.50000000E-01
  8.50000000E-01  8.50000000E-01  8.50000000E-01  8.50000000E-01  8.50000000E-01
  8.50000000E-01  8.50000000E-01  8.50000000E-01  8.50000000E-01  8.50000000E-01
  8.50000000E-01  8.50000000E-01  8.50000000E-01  8.50000000E-01  8.50000000E-01
  8.50000000E-01  8.50000000E-01  8.50000000E-01  8.50000000E-01  8.50000000E-01
  8.50000000E-01  8.50000000E-01  8.50000000E-01  8.50000000E-01  8.50000000E-01
  8.50000000E-01  8.50000000E-01  8.50000000E-01  8.50000000E-01  8.50000000E-01
  8.50000000E-01  8.50000000E-01  8.50000000E-01  8.50000000E-01  8.50000000E-01
  8.50000000E-01  8.50000000E-01  8.50000000E-01  8.50000000E-01  8.50000000E-01
  8.50000000E-01  8.50000000E-01  8.50000000E-01  8.50000000E-01  8.50000000E-01
  8.50000000E-01  8.50000000E-01  8.50000000E-01  8.50000000E-01  8.50000000E-01
  8.50000000E-01  8.50000000E-01  8.50000000E-01  8.50000000E-01  8.50000000E-01
  8.50000000E-01  8.50000000E-01  8.50000000E-01  8.50000000E-01  8.50000000E-01
  8.50000000E-01  8.50000000E-01  8.50000000E-01  8.50000000E-01  8.50000000E-01
  8.50000000E-01  8.50000000E-01  8.50000000E-01  8.50000000E-01  8.50000000E-01
  8.50000000E-01  8.50000000E-01  8.50000000E-01  8.50000000E-01  8.50000000E-01
  8.50000000E-01  8.50000000E-01  8.50000000E-01  8.50000000E-01  8.50000000E-01
  8.50000000E-01  8.50000000E-01  8.50000000E-01  8.50000000E-01  8.50000000E-01
  8.50000000E-01  8.50000000E-01  8.50000000E-01  8.50000000E-01  8.50000000E-01
  8.50000000E-01  8.50000000E-01  8.50000000E-01  8.50000000E-01  8.50000000E-01
  8.50000000E-01  8.50000000E-01  8.50000000E-01  8.50000000E-01  8.50000000E-01
  8.50000000E-01  8.50000000E-01  8.50000000E-01  8.50000000E-01  8.50000000E-01
  8.50000000E-01  8.50000000E-01  8.50000000E-01  8.50000000E-01  8.50000000E-01
  8.50000000E-01  8.50000000E-01  8.50000000E-01  8.50000000E-01  8.50000000E-01
  8.50000000E-01  8.50000000E-01  8.50000000E-01  8.50000000E-01  8.50000000E-01
  8.50000000E-01  8.50000000E-01  8.50000000E-01  8.50000000E-01  8.50000000E-01
  8.50000000E-01  8.50000000E-01  8.50000000E-01  8.50000000E-01  8.50000000E-01
  8.50000000E-01  8.50000000E-01  8.50000000E-01  8.50000000E-01  8.50000000E-01
  8.50000000E-01  8.50000000E-01  8.50000000E-01  8.50000000E-01  8.50000000E-01
  8.50000000E-01  8.50000000E-01  8.50000000E-01  8.50000000E-01  8.50000000E-01
  8.50000000E-01  8.50000000E-01  8.50000000E-01  8.50000000E-01  8.50000000E-01
  8.50000000E-01  8.50000000E-01  8.50000000E-01  8.50000000E-01  8.50000000E-01
  8.50000000E-01  8.50000000E-01  8.50000000E-01  8.50000000E-01  8.50000000E-01
  8.50000000E-01  8.50000000E-01  8.50000000E-01  8.50000000E-01  8.50000000E-01
  8.50000000E-01  8.50000000E-01  8.50000000E-01  8.50000000E-01  8.50000000E-01
  8.50000000E-01  8.50000000E-01  8.50000000E-01  8.50000000E-01  8.50000000E-01
  8.50000000E-01  8.50000000E-01  8.50000000E-01  8.50000000E-01  8.50000000E-01
  8.50000000E-01  8.50000000E-01  8.50000000E-01  8.50000000E-01  8.50000000E-01
  8.50000000E-01  8.50000000E-01  8.50000000E-01  8.50000000E-01  8.50000000E-01
  8.50000000E-01  8.50000000E-01  8.50000000E-01  8.50000000E-01  8.50000000E-01
  8.50000000E-01  8.50000000E-01  8.50000000E-01  8.50000000E-01  8.50000000E-01
  8.50000000E-01  8.50000000E-01  8.50000000E-01  8.50000000E-01  8.50000000E-01
  8.50000000E-01  8.50000000E-01  8.50000000E-01  8.50000000E-01  8.50000000E-01
  8.50000000E-01  8.50000000E-01  8.50000000E-01  8.50000000E-01  8.50000000E-01
  8.50000000E-01  8.50000000E-01  8.50000000E-01  8.50000000E-01  8.50000000E-01
  8.50000000E-01  8.50000000E-01  8.50000000E-01  8.50000000E-01  8.50000000E-01
  8.50000000E-01  8.50000000E-01  8.50000000E-01  8.50000000E-01  8.50000000E-01
  8.50000000E-01  8.50000000E-01  8.50000000E-01  8.50000000E-01  8.50000000E-01
  8.50000000E-01  8.50000000E-01  8.50000000E-01  8.50000000E-01  8.50000000E-01
  8.50000000E-01  8.50000000E-01  8.50000000E-01  8.50000000E-01  8.50000000E-01
  8.50000000E-01  8.50000000E-01  8.50000000E-01  8.50000000E-01  8.50000000E-01
  8.50000000E-01  8.50000000E-01  8.50000000E-01  8.50000000E-01  8.50000000E-01
  8.50000000E-01  8.50000000E-01  8.50000000E-01  8.50000000E-01  8.50000000E-01
  8.50000000E-01  8.50000000E-01  8.50000000E-01  8.50000000E-01  8.50000000E-01
  8.50000000E-01  8.50000000E-01  8.50000000E-01  8.50000000E-01  8.50000000E-01
  8.50000000E-01  8.50000000E-01  8.50000000E-01  8.50000000E-01  8.50000000E-01
  8.50000000E-01  8.50000000E-01  8.50000000E-01  8.50000000E-01  8.50000000E-01
  8.50000000E-01  8.50000000E-01  8.50000000E-01  8.50000000E-01  8.50000000E-01
  8.50000000E-01  8.50000000E-01  8.50000000E-01  8.50000000E-01  8.50000000E-01
  8.50000000E-01  8.50000000E-01  8.50000000E-01  8.50000000E-01  8.50000000E-01
  8.50000000E-01  8.50000000E-01  8.50000000E-01  8.50000000E-01  8.50000000E-01
  8.50000000E-01  8.50000000E-01  8.50000000E-01  8.50000000E-01  8.50000000E-01
  8.50000000E-01  8.50000000E-01  8.50000000E-01  8.50000000E-01  8.50000000E-01
  8.50000000E-01  8.50000000E-01  8.50000000E-01  8.50000000E-01  8.50000000E-01
  8.50000000E-01  8.50000000E-01  8.50000000E-01  8.50000000E-01  8.50000000E-01
  8.50000000E-01  8.50000000E-01  8.50000000E-01  8.50000000E-01  8.50000000E-01
  8.50000000E-01  8.50000000E-01  8.50000000E-01  8.50000000E-01  8.50000000E-01
  8.50000000E-01  8.50000000E-01  8.50000000E-01  8.50000000E-01  8.50000000E-01
  8.50000000E-01  8.50000000E-01  8.50000000E-01  8.50000000E-01  8.50000000E-01
  8.50000000E-01  8.50000000E-01  8.50000000E-01  8.50000000E-01  8.50000000E-01
  8.50000000E-01  8.50000000E-01  8.50000000E-01  8.50000000E-01  8.50000000E-01
  8.50000000E-01  8.50000000E-01  8.50000000E-01  8.50000000E-01  8.50000000E-01
  8.50000000E-01  8.50000000E-01  8.50000000E-01  8.50000000E-01  8.50000000E-01
  8.50000000E-01  8.50000000E-01  8.50000000E-01  8.50000000E-01  8.50000000E-01
  8.50000000E-01  8.50000000E-01  8.50000000E-01  8.50000000E-01  8.50000000E-01
  8.50000000E-01  8.50000000E-01  8.50000000E-01  8.50000000E-01  8.50000000E-01
  8.50000000E-01  8.50000000E-01  8.50000000E-01  8.50000000E-01  8.50000000E-01
  8.50000000E-01  8.50000000E-01  8.50000000E-01  8.50000000E-01  8.50000000E-01
  8.50000000E-01  8.50000000E-01  8.50000000E-01  8.50000000E-01  8.50000000E-01
  8.50000000E-01  8.50000000E-01  8.50000000E-01  8.50000000E-01  8.50000000E-01
  8.50000000E-01  8.50000000E-01  8.50000000E-01  8.50000000E-01  8.50000000E-01
  8.50000000E-01  8.50000000E-01  8.50000000E-01  8.50000000E-01  8.50000000E-01
  8.50000000E-01  8.50000000E-01  8.50000000E-01  8.50000000E-01  8.50000000E-01
  8.50000000E-01  8.50000000E-01  8.50000000E-01  8.50000000E-01  8.50000000E-01
  8.50000000E-01  8.50000000E-01  8.50000000E-01  8.50000000E-01  8.50000000E-01
  8.50000000E-01  8.50000000E-01  8.50000000E-01  8.50000000E-01  8.50000000E-01
  8.50000000E-01  8.50000000E-01  8.50000000E-01  8.50000000E-01  8.50000000E-01
  8.50000000E-01  8.50000000E-01  8.50000000E-01  8.50000000E-01  8.50000000E-01
  8.50000000E-01  8.50000000E-01  8.50000000E-01  8.50000000E-01  8.50000000E-01
  8.50000000E-01  8.50000000E-01  8.50000000E-01  8.50000000E-01  8.50000000E-01
  8.50000000E-01  8.50000000E-01  8.50000000E-01  8.50000000E-01  8.50000000E-01
  8.50000000E-01  8.50000000E-01  8.50000000E-01  8.50000000E-01  8.50000000E-01
  8.50000000E-01  8.50000000E-01  8.50000000E-01  8.50000000E-01  8.50000000E-01
  8.50000000E-01  8.50000000E-01  8.50000000E-01  8.50000000E-01  8.50000000E-01
  8.50000000E-01  8.50000000E-01  8.50000000E-01  8.50000000E-01  8.50000000E-01
  8.50000000E-01  8.50000000E-01  8.50000000E-01  8.50000000E-01  8.50000000E-01
  8.50000000E-01  8.50000000E-01  8.50000000E-01  8.50000000E-01  8.50000000E-01
  8.50000000E-01  8.50000000E-01  8.50000000E-01  8.50000000E-01  8.50000000E-01
  8.50000000E-01  8.50000000E-01  8.50000000E-01  8.50000000E-01  8.50000000E-01
  8.50000000E-01  8.50000000E-01  8.50000000E-01  8.50000000E-01  8.50000000E-01
  8.50000000E-01  8.50000000E-01  8.50000000E-01  8.50000000E-01  8.50000000E-01
  8.50000000E-01  8.50000000E-01  8.50000000E-01  8.50000000E-01  8.50000000E-01
  8.50000000E-01  8.50000000E-01  8.50000000E-01  8.50000000E-01  8.50000000E-01
  8.50000000E-01  8.50000000E-01  8.50000000E-01  8.50000000E-01  8.50000000E-01
  8.50000000E-01  8.50000000E-01  8.50000000E-01  8.50000000E-01  8.50000000E-01
  8.50000000E-01  8.50000000E-01  8.50000000E-01  8.50000000E-01  8.50000000E-01
  8.50000000E-01  8.50000000E-01  8.50000000E-01  8.50000000E-01  8.50000000E-01
  8.50000000E-01  8.50000000E-01  8.50000000E-01  8.50000000E-01  8.50000000E-01
  8.50000000E-01  8.50000000E-01  8.50000000E-01  8.50000000E-01  8.50000000E-01
  8.50000000E-01  8.50000000E-01  8.50000000E-01  8.50000000E-01  8.50000000E-01
  8.50000000E-01  8.50000000E-01  8.50000000E-01  8.50000000E-01  8.50000000E-01
  8.50000000E-01  8.50000000E-01  8.50000000E-01  8.50000000E-01  8.50000000E-01
  8.50000000E-01  8.50000000E-01  8.50000000E-01  8.50000000E-01  8.50000000E-01
  8.50000000E-01  8.50000000E-01  8.50000000E-01  8.50000000E-01  8.50000000E-01
  8.50000000E-01  8.50000000E-01  8.50000000E-01  8.50000000E-01  8.50000000E-01
  8.50000000E-01  8.50000000E-01  8.50000000E-01  8.50000000E-01  8.50000000E-01
  8.50000000E-01  8.50000000E-01  8.50000000E-01  8.50000000E-01  8.50000000E-01
  8.50000000E-01  8.50000000E-01  8.50000000E-01  8.50000000E-01  8.50000000E-01
  8.50000000E-01  8.50000000E-01  8.50000000E-01  8.50000000E-01  8.50000000E-01
  8.50000000E-01  8.50000000E-01  8.50000000E-01  8.50000000E-01  8.50000000E-01
  8.50000000E-01  8.50000000E-01  8.50000000E-01  8.50000000E-01  8.50000000E-01
  8.50000000E-01  8.50000000E-01  8.50000000E-01  8.50000000E-01  8.50000000E-01
  8.50000000E-01  8.50000000E-01  8.50000000E-01  8.50000000E-01  8.50000000E-01
  8.50000000E-01  8.50000000E-01  8.50000000E-01  8.50000000E-01  8.50000000E-01
  8.50000000E-01  8.50000000E-01  8.50000000E-01  8.50000000E-01  8.50000000E-01
  8.50000000E-01  8.50000000E-01  8.50000000E-01  8.50000000E-01  8.50000000E-01
  8.50000000E-01  8.50000000E-01  8.50000000E-01  8.50000000E-01  8.50000000E-01
  8.50000000E-01  8.50000000E-01  8.50000000E-01  8.50000000E-01  8.50000000E-01
  8.50000000E-01  8.50000000E-01  8.50000000E-01  8.50000000E-01  8.50000000E-01
  8.50000000E-01  8.50000000E-01  8.50000000E-01  8.50000000E-01  8.50000000E-01
  8.50000000E-01  8.50000000E-01  8.50000000E-01  8.50000000E-01  8.50000000E-01
  8.50000000E-01  8.50000000E-01  8.50000000E-01  8.50000000E-01  8.50000000E-01
  8.50000000E-01  8.50000000E-01  8.50000000E-01  8.50000000E-01  8.50000000E-01
  8.50000000E-01  8.50000000E-01  8.50000000E-01  8.50000000E-01  8.50000000E-01
  8.50000000E-01  8.50000000E-01  8.50000000E-01  8.50000000E-01  8.50000000E-01
  8.50000000E-01  8.50000000E-01  8.50000000E-01  8.50000000E-01  8.50000000E-01
  8.50000000E-01  8.50000000E-01  8.50000000E-01  8.50000000E-01  8.50000000E-01
  8.50000000E-01  8.50000000E-01  8.50000000E-01  8.50000000E-01  8.50000000E-01
  8.50000000E-01  8.50000000E-01  8.50000000E-01  8.50000000E-01  8.50000000E-01
  8.50000000E-01  8.50000000E-01  8.50000000E-01  8.50000000E-01  8.50000000E-01
  8.50000000E-01  8.50000000E-01  8.50000000E-01  8.50000000E-01  8.50000000E-01
  8.50000000E-01  8.50000000E-01  8.50000000E-01  8.50000000E-01  8.50000000E-01
  8.50000000E-01  8.50000000E-01  8.50000000E-01  8.50000000E-01  8.50000000E-01
  8.50000000E-01  8.50000000E-01  8.50000000E-01  8.50000000E-01  8.50000000E-01
  8.50000000E-01  8.50000000E-01  8.50000000E-01  8.50000000E-01  8.50000000E-01
  8.50000000E-01  8.50000000E-01  8.50000000E-01  8.50000000E-01  8.50000000E-01
  8.50000000E-01  8.50000000E-01  8.50000000E-01  8.50000000E-01  8.50000000E-01
  8.50000000E-01  8.50000000E-01  8.50000000E-01  8.50000000E-01  8.50000000E-01
  8.50000000E-01  8.50000000E-01  8.50000000E-01  8.50000000E-01  8.50000000E-01
  8.50000000E-01  8.50000000E-01  8.50000000E-01  8.50000000E-01  8.50000000E-01
  8.50000000E-01  8.50000000E-01  8.50000000E-01  8.50000000E-01  8.50000000E-01
  8.50000000E-01  8.50000000E-01  8.50000000E-01  8.50000000E-01  8.50000000E-01
  8.50000000E-01  8.50000000E-01  8.50000000E-01  8.50000000E-01  8.50000000E-01
  8.50000000E-01  8.50000000E-01  8.50000000E-01  8.50000000E-01  8.50000000E-01
  8.50000000E-01  8.50000000E-01  8.50000000E-01  8.50000000E-01  8.50000000E-01
  8.50000000E-01  8.50000000E-01  8.50000000E-01  8.50000000E-01  8.50000000E-01
  8.50000000E-01  8.50000000E-01  8.50000000E-01  8.50000000E-01  8.50000000E-01
  8.50000000E-01  8.50000000E-01  8.50000000E-01  8.50000000E-01  8.50000000E-01
  8.50000000E-01  8.50000000E-01  8.50000000E-01  8.50000000E-01  8.50000000E-01
  8.50000000E-01  8.50000000E-01  8.50000000E-01  8.50000000E-01  8.50000000E-01
  8.50000000E-01  8.50000000E-01  8.50000000E-01  8.50000000E-01  8.50000000E-01
  8.50000000E-01  8.50000000E-01  8.50000000E-01  8.50000000E-01  8.50000000E-01
  8.50000000E-01  8.50000000E-01  8.50000000E-01  8.50000000E-01  8.50000000E-01
  8.50000000E-01  8.50000000E-01  8.50000000E-01  8.50000000E-01  8.50000000E-01
  8.50000000E-01  8.50000000E-01  8.50000000E-01  8.50000000E-01  8.50000000E-01
  8.50000000E-01  8.50000000E-01  8.50000000E-01  8.50000000E-01  8.50000000E-01
  8.50000000E-01  8.50000000E-01  8.50000000E-01  8.50000000E-01  8.50000000E-01
  8.50000000E-01  8.50000000E-01  8.50000000E-01  8.50000000E-01  8.50000000E-01
  8.50000000E-01  8.50000000E-01  8.50000000E-01  8.50000000E-01  8.50000000E-01
  8.50000000E-01  8.50000000E-01  8.50000000E-01  8.50000000E-01  8.50000000E-01
  8.50000000E-01  8.50000000E-01  8.50000000E-01  8.50000000E-01  8.50000000E-01
  8.50000000E-01  8.50000000E-01  8.50000000E-01  8.50000000E-01  8.50000000E-01
  8.50000000E-01  8.50000000E-01  8.50000000E-01  8.50000000E-01  8.50000000E-01
  8.50000000E-01  8.50000000E-01  8.50000000E-01  8.50000000E-01  8.50000000E-01
  8.50000000E-01  8.50000000E-01  8.50000000E-01  8.50000000E-01  8.50000000E-01
  8.50000000E-01  8.50000000E-01  8.50000000E-01  8.50000000E-01  8.50000000E-01
  8.50000000E-01  8.50000000E-01  8.50000000E-01  8.50000000E-01  8.50000000E-01
  8.50000000E-01  8.50000000E-01  8.50000000E-01  8.50000000E-01  8.50000000E-01
  8.50000000E-01  8.50000000E-01  8.50000000E-01  8.50000000E-01  8.50000000E-01
  8.50000000E-01  8.50000000E-01  8.50000000E-01  8.50000000E-01  8.50000000E-01
  8.50000000E-01  8.50000000E-01  8.50000000E-01  8.50000000E-01  8.50000000E-01
  8.50000000E-01  8.50000000E-01  8.50000000E-01  8.50000000E-01  8.50000000E-01
  8.50000000E-01  8.50000000E-01  8.50000000E-01  8.50000000E-01  8.50000000E-01
  8.50000000E-01  8.50000000E-01  8.50000000E-01  8.50000000E-01  8.50000000E-01
  8.50000000E-01  8.50000000E-01  8.50000000E-01  8.50000000E-01  8.50000000E-01
  8.50000000E-01  8.50000000E-01  8.50000000E-01  8.50000000E-01  8.50000000E-01
  8.50000000E-01  8.50000000E-01  8.50000000E-01  8.50000000E-01  8.50000000E-01
  8.50000000E-01  8.50000000E-01  8.50000000E-01  8.50000000E-01  8.50000000E-01
  8.50000000E-01  8.50000000E-01  8.50000000E-01  8.50000000E-01  8.50000000E-01
  8.50000000E-01  8.50000000E-01  8.50000000E-01  8.50000000E-01  8.50000000E-01
  8.50000000E-01  8.50000000E-01  8.50000000E-01  8.50000000E-01  8.50000000E-01
  8.50000000E-01  8.50000000E-01  8.50000000E-01  8.50000000E-01  8.50000000E-01
  8.50000000E-01  8.50000000E-01  8.50000000E-01  8.50000000E-01  8.50000000E-01
  8.50000000E-01  8.50000000E-01  8.50000000E-01  8.50000000E-01  8.50000000E-01
  8.50000000E-01  8.50000000E-01  8.50000000E-01  8.50000000E-01  8.50000000E-01
  8.50000000E-01  8.50000000E-01  8.50000000E-01  8.50000000E-01  8.50000000E-01
  8.50000000E-01  8.50000000E-01  8.50000000E-01  8.50000000E-01  8.50000000E-01
  8.50000000E-01  8.50000000E-01  8.50000000E-01  8.50000000E-01  8.50000000E-01
  8.50000000E-01  8.50000000E-01  8.50000000E-01  8.50000000E-01  8.50000000E-01
  8.50000000E-01  8.50000000E-01  8.50000000E-01  8.50000000E-01  8.50000000E-01
  8.50000000E-01  8.50000000E-01  8.50000000E-01  8.50000000E-01  8.50000000E-01
  8.50000000E-01  8.50000000E-01  8.50000000E-01  8.50000000E-01  8.50000000E-01
  8.50000000E-01  8.50000000E-01  8.50000000E-01  8.50000000E-01  8.50000000E-01
  8.50000000E-01  8.50000000E-01  8.50000000E-01  8.50000000E-01  8.50000000E-01
  8.50000000E-01  8.50000000E-01  8.50000000E-01  8.50000000E-01  8.50000000E-01
  8.50000000E-01  8.50000000E-01  8.50000000E-01  8.50000000E-01  8.50000000E-01
  8.50000000E-01  8.50000000E-01  8.50000000E-01  8.50000000E-01  8.50000000E-01
  8.50000000E-01  8.50000000E-01  8.50000000E-01  8.50000000E-01  8.50000000E-01
  8.50000000E-01  8.50000000E-01  8.50000000E-01  8.50000000E-01  8.50000000E-01
  8.50000000E-01  8.50000000E-01  8.50000000E-01  8.50000000E-01  8.50000000E-01
  8.50000000E-01  8.50000000E-01  8.50000000E-01  8.50000000E-01  8.50000000E-01
  8.50000000E-01  8.50000000E-01  8.50000000E-01  8.50000000E-01  8.50000000E-01
  8.50000000E-01  8.50000000E-01  8.50000000E-01  8.50000000E-01  8.50000000E-01
  8.50000000E-01  8.50000000E-01  8.50000000E-01  8.50000000E-01  8.50000000E-01
  8.50000000E-01  8.50000000E-01  8.50000000E-01  8.50000000E-01  8.50000000E-01
  8.50000000E-01  8.50000000E-01  8.50000000E-01  8.50000000E-01  8.50000000E-01
  8.50000000E-01  8.50000000E-01  8.50000000E-01  8.50000000E-01  8.50000000E-01
  8.50000000E-01  8.50000000E-01  8.50000000E-01  8.50000000E-01  8.50000000E-01
  8.50000000E-01  8.50000000E-01  8.50000000E-01  8.50000000E-01  8.50000000E-01
  8.50000000E-01  8.50000000E-01  8.50000000E-01  8.50000000E-01  8.50000000E-01
  8.50000000E-01  8.50000000E-01  8.50000000E-01  8.50000000E-01  8.50000000E-01
  8.50000000E-01  8.50000000E-01  8.50000000E-01  8.50000000E-01  8.50000000E-01
  8.50000000E-01  8.50000000E-01  8.50000000E-01  8.50000000E-01  8.50000000E-01
  8.50000000E-01  8.50000000E-01  8.50000000E-01  8.50000000E-01  8.50000000E-01
  8.50000000E-01  8.50000000E-01  8.50000000E-01  8.50000000E-01  8.50000000E-01
  8.50000000E-01  8.50000000E-01  8.50000000E-01  8.50000000E-01  8.50000000E-01
  8.50000000E-01  8.50000000E-01  8.50000000E-01  8.50000000E-01  8.50000000E-01
  8.50000000E-01  8.50000000E-01  8.50000000E-01  8.50000000E-01  8.50000000E-01
  8.50000000E-01  8.50000000E-01  8.50000000E-01  8.50000000E-01  8.50000000E-01
  8.50000000E-01  8.50000000E-01  8.50000000E-01  8.50000000E-01  8.50000000E-01
  8.50000000E-01  8.50000000E-01  8.50000000E-01  8.50000000E-01  8.50000000E-01
  8.50000000E-01  8.50000000E-01  8.50000000E-01  8.50000000E-01  8.50000000E-01
  8.50000000E-01  8.50000000E-01  8.50000000E-01  8.50000000E-01  8.50000000E-01
  8.50000000E-01  8.50000000E-01  8.50000000E-01  8.50000000E-01  8.50000000E-01
  8.50000000E-01  8.50000000E-01  8.50000000E-01  8.50000000E-01  8.50000000E-01
  8.50000000E-01  8.50000000E-01  8.50000000E-01  8.50000000E-01  8.50000000E-01
  8.50000000E-01  8.50000000E-01  8.50000000E-01  8.50000000E-01  8.50000000E-01
  8.50000000E-01  8.50000000E-01  8.50000000E-01  8.50000000E-01  8.50000000E-01
  8.50000000E-01  8.50000000E-01  8.50000000E-01  8.50000000E-01  8.50000000E-01
  8.50000000E-01  8.50000000E-01  8.50000000E-01  8.50000000E-01  8.50000000E-01
  8.50000000E-01  8.50000000E-01  8.50000000E-01  8.50000000E-01  8.50000000E-01
  8.50000000E-01  8.50000000E-01  8.50000000E-01  8.50000000E-01  8.50000000E-01
  8.50000000E-01  8.50000000E-01  8.50000000E-01  8.50000000E-01  8.50000000E-01
  8.50000000E-01  8.50000000E-01  8.50000000E-01  8.50000000E-01  8.50000000E-01
  8.50000000E-01  8.50000000E-01  8.50000000E-01  8.50000000E-01  8.50000000E-01
  8.50000000E-01  8.50000000E-01  8.50000000E-01  8.50000000E-01  8.50000000E-01
  8.50000000E-01  8.50000000E-01  8.50000000E-01  8.50000000E-01  8.50000000E-01
  8.50000000E-01  8.50000000E-01  8.50000000E-01  8.50000000E-01  8.50000000E-01
  8.50000000E-01  8.50000000E-01  8.50000000E-01  8.50000000E-01  8.50000000E-01
  8.50000000E-01  8.50000000E-01  8.50000000E-01  8.50000000E-01  8.50000000E-01
  8.50000000E-01  8.50000000E-01  8.50000000E-01  8.50000000E-01  8.50000000E-01
  8.50000000E-01  8.50000000E-01  8.50000000E-01  8.50000000E-01  8.50000000E-01
  8.50000000E-01  8.50000000E-01  8.50000000E-01  8.50000000E-01  8.50000000E-01
  8.50000000E-01  8.50000000E-01  8.50000000E-01  8.50000000E-01  8.50000000E-01
  8.50000000E-01  8.50000000E-01  8.50000000E-01  8.50000000E-01  8.50000000E-01
  8.50000000E-01  8.50000000E-01  8.50000000E-01  8.50000000E-01  8.50000000E-01
  8.50000000E-01  8.50000000E-01  8.50000000E-01  8.50000000E-01  8.50000000E-01
  8.50000000E-01  8.50000000E-01  8.50000000E-01  8.50000000E-01  8.50000000E-01
  8.50000000E-01  8.50000000E-01  8.50000000E-01  8.50000000E-01  8.50000000E-01
  8.50000000E-01  8.50000000E-01  8.50000000E-01  8.50000000E-01  8.50000000E-01
  8.50000000E-01  8.50000000E-01  8.50000000E-01  8.50000000E-01  8.50000000E-01
  8.50000000E-01  8.50000000E-01  8.50000000E-01  8.50000000E-01  8.50000000E-01
  8.50000000E-01  8.50000000E-01  8.50000000E-01  8.50000000E-01  8.50000000E-01
  8.50000000E-01  8.50000000E-01  8.50000000E-01  8.50000000E-01  8.50000000E-01
  8.50000000E-01  8.50000000E-01  8.50000000E-01  8.50000000E-01  8.50000000E-01
  8.50000000E-01  8.50000000E-01  8.50000000E-01  8.50000000E-01  8.50000000E-01
  8.50000000E-01  8.50000000E-01  8.50000000E-01  8.50000000E-01  8.50000000E-01
  8.50000000E-01  8.50000000E-01  8.50000000E-01  8.50000000E-01  8.50000000E-01
  8.50000000E-01  8.50000000E-01  8.50000000E-01  8.50000000E-01  8.50000000E-01
  8.50000000E-01  8.50000000E-01  8.50000000E-01  8.50000000E-01  8.50000000E-01
  8.50000000E-01  8.50000000E-01  8.50000000E-01  8.50000000E-01  8.50000000E-01
  8.50000000E-01  8.50000000E-01  8.50000000E-01  8.50000000E-01  8.50000000E-01
  8.50000000E-01  8.50000000E-01  8.50000000E-01  8.50000000E-01  8.50000000E-01
  8.50000000E-01  8.50000000E-01  8.50000000E-01  8.50000000E-01  8.50000000E-01
  8.50000000E-01  8.50000000E-01  8.50000000E-01  8.50000000E-01  8.50000000E-01
  8.50000000E-01  8.50000000E-01  8.50000000E-01  8.50000000E-01  8.50000000E-01
  8.50000000E-01  8.50000000E-01  8.50000000E-01  8.50000000E-01  8.50000000E-01
  8.50000000E-01  8.50000000E-01  8.50000000E-01  8.50000000E-01  8.50000000E-01
  8.50000000E-01  8.50000000E-01  8.50000000E-01  8.50000000E-01  8.50000000E-01
  8.50000000E-01  8.50000000E-01  8.50000000E-01  8.50000000E-01  8.50000000E-01
  8.50000000E-01  8.50000000E-01  8.50000000E-01  8.50000000E-01  8.50000000E-01
  8.50000000E-01  8.50000000E-01  8.50000000E-01  8.50000000E-01  8.50000000E-01
  8.50000000E-01  8.50000000E-01  8.50000000E-01  8.50000000E-01  8.50000000E-01
  8.50000000E-01  8.50000000E-01  8.50000000E-01  8.50000000E-01  8.50000000E-01
  8.50000000E-01  8.50000000E-01  8.50000000E-01  8.50000000E-01  8.50000000E-01
  8.50000000E-01  8.50000000E-01  8.50000000E-01  8.50000000E-01  8.50000000E-01
  8.50000000E-01  8.50000000E-01  8.50000000E-01  8.50000000E-01  8.50000000E-01
  8.50000000E-01  8.50000000E-01  8.50000000E-01  8.50000000E-01  8.50000000E-01
  8.50000000E-01  8.50000000E-01  8.50000000E-01  8.50000000E-01  8.50000000E-01
  8.50000000E-01  8.50000000E-01  8.50000000E-01  8.50000000E-01  8.50000000E-01
  8.50000000E-01  8.50000000E-01  8.50000000E-01  8.50000000E-01  8.50000000E-01
  8.50000000E-01  8.50000000E-01  8.50000000E-01  8.50000000E-01  8.50000000E-01
  8.50000000E-01  8.50000000E-01  8.50000000E-01  8.50000000E-01  8.50000000E-01
  8.50000000E-01  8.50000000E-01  8.50000000E-01  8.50000000E-01  8.50000000E-01
  8.50000000E-01  8.50000000E-01  8.50000000E-01  8.50000000E-01  8.50000000E-01
  8.50000000E-01  8.50000000E-01  8.50000000E-01  8.50000000E-01  8.50000000E-01
  8.50000000E-01  8.50000000E-01  8.50000000E-01  8.50000000E-01  8.50000000E-01
  8.50000000E-01  8.50000000E-01  8.50000000E-01  8.50000000E-01  8.50000000E-01
  8.50000000E-01  8.50000000E-01  8.50000000E-01  8.50000000E-01  8.50000000E-01
  8.50000000E-01  8.50000000E-01  8.50000000E-01  8.50000000E-01  8.50000000E-01
  8.50000000E-01  8.50000000E-01  8.50000000E-01  8.50000000E-01  8.50000000E-01
  8.50000000E-01  8.50000000E-01  8.50000000E-01  8.50000000E-01  8.50000000E-01
  8.50000000E-01  8.50000000E-01  8.50000000E-01  8.50000000E-01  8.50000000E-01
  8.50000000E-01  8.50000000E-01  8.50000000E-01  8.50000000E-01  8.50000000E-01
  8.50000000E-01  8.50000000E-01  8.50000000E-01  8.50000000E-01  8.50000000E-01
  8.50000000E-01  8.50000000E-01  8.50000000E-01  8.50000000E-01  8.50000000E-01
  8.50000000E-01  8.50000000E-01  8.50000000E-01  8.50000000E-01  8.50000000E-01
  8.50000000E-01  8.50000000E-01  8.50000000E-01  8.50000000E-01  8.50000000E-01
  8.50000000E-01  8.50000000E-01  8.50000000E-01  8.50000000E-01  8.50000000E-01
  8.50000000E-01  8.50000000E-01  8.50000000E-01  8.50000000E-01  8.50000000E-01
  8.50000000E-01  8.50000000E-01  8.50000000E-01  8.50000000E-01  8.50000000E-01
  8.50000000E-01  8.50000000E-01  8.50000000E-01  8.50000000E-01  8.50000000E-01
  8.50000000E-01  8.50000000E-01  8.50000000E-01  8.50000000E-01  8.50000000E-01
  8.50000000E-01  8.50000000E-01  8.50000000E-01  8.50000000E-01  8.50000000E-01
  8.50000000E-01  8.50000000E-01  8.50000000E-01  8.50000000E-01  8.50000000E-01
  8.50000000E-01  8.50000000E-01  8.50000000E-01  8.50000000E-01  8.50000000E-01
  8.50000000E-01  8.50000000E-01  8.50000000E-01  8.50000000E-01  8.50000000E-01
  8.50000000E-01  8.50000000E-01  8.50000000E-01  8.50000000E-01  8.50000000E-01
  8.50000000E-01  8.50000000E-01  8.50000000E-01  8.50000000E-01  8.50000000E-01
  8.50000000E-01  8.50000000E-01  8.50000000E-01  8.50000000E-01  8.50000000E-01
  8.50000000E-01  8.50000000E-01  8.50000000E-01  8.50000000E-01  8.50000000E-01
  8.50000000E-01  8.50000000E-01  8.50000000E-01  8.50000000E-01  8.50000000E-01
  8.50000000E-01  8.50000000E-01  8.50000000E-01  8.50000000E-01  8.50000000E-01
  8.50000000E-01  8.50000000E-01  8.50000000E-01  8.50000000E-01  8.50000000E-01
  8.50000000E-01  8.50000000E-01  8.50000000E-01  8.50000000E-01  8.50000000E-01
  8.50000000E-01  8.50000000E-01  8.50000000E-01  8.50000000E-01  8.50000000E-01
  8.50000000E-01  8.50000000E-01  8.50000000E-01  8.50000000E-01  8.50000000E-01
  8.50000000E-01  8.50000000E-01  8.50000000E-01  8.50000000E-01  8.50000000E-01
  8.50000000E-01  8.50000000E-01  8.50000000E-01  8.50000000E-01  8.50000000E-01
  8.50000000E-01  8.50000000E-01  8.50000000E-01  8.50000000E-01  8.50000000E-01
  8.50000000E-01  8.50000000E-01  8.50000000E-01  8.50000000E-01  8.50000000E-01
  8.50000000E-01  8.50000000E-01  8.50000000E-01  8.50000000E-01  8.50000000E-01
  8.50000000E-01  8.50000000E-01  8.50000000E-01  8.50000000E-01  8.50000000E-01
  8.50000000E-01  8.50000000E-01  8.50000000E-01  8.50000000E-01  8.50000000E-01
  8.50000000E-01  8.50000000E-01  8.50000000E-01  8.50000000E-01  8.50000000E-01
  8.50000000E-01  8.50000000E-01  8.50000000E-01  8.50000000E-01  8.50000000E-01
  8.50000000E-01  8.50000000E-01  8.50000000E-01  8.50000000E-01  8.50000000E-01
  8.50000000E-01  8.50000000E-01  8.50000000E-01  8.50000000E-01  8.50000000E-01
  8.50000000E-01  8.50000000E-01  8.50000000E-01  8.50000000E-01  8.50000000E-01
  8.50000000E-01  8.50000000E-01  8.50000000E-01  8.50000000E-01  8.50000000E-01
  8.50000000E-01  8.50000000E-01  8.50000000E-01  8.50000000E-01  8.50000000E-01
  8.50000000E-01  8.50000000E-01  8.50000000E-01  8.50000000E-01  8.50000000E-01
  8.50000000E-01  8.50000000E-01  8.50000000E-01  8.50000000E-01  8.50000000E-01
  8.50000000E-01  8.50000000E-01  8.50000000E-01  8.50000000E-01  8.50000000E-01
  8.50000000E-01  8.50000000E-01  8.50000000E-01  8.50000000E-01  8.50000000E-01
  8.50000000E-01  8.50000000E-01  8.50000000E-01  8.50000000E-01  8.50000000E-01
  8.50000000E-01  8.50000000E-01  8.50000000E-01  8.50000000E-01  8.50000000E-01
  8.50000000E-01  8.50000000E-01  8.50000000E-01  8.50000000E-01  8.50000000E-01
  8.50000000E-01  8.50000000E-01  8.50000000E-01  8.50000000E-01  8.50000000E-01
  8.50000000E-01  8.50000000E-01  8.50000000E-01  8.50000000E-01  8.50000000E-01
  8.50000000E-01  8.50000000E-01  8.50000000E-01  8.50000000E-01  8.50000000E-01
  8.50000000E-01  8.50000000E-01  8.50000000E-01  8.50000000E-01  8.50000000E-01
  8.50000000E-01  8.50000000E-01  8.50000000E-01  8.50000000E-01  8.50000000E-01
  8.50000000E-01  8.50000000E-01  8.50000000E-01  8.50000000E-01  8.50000000E-01
  8.50000000E-01  8.50000000E-01  8.50000000E-01  8.50000000E-01  8.50000000E-01
  8.50000000E-01  8.50000000E-01  8.50000000E-01  8.50000000E-01  8.50000000E-01
  8.50000000E-01  8.50000000E-01  8.50000000E-01  8.50000000E-01  8.50000000E-01
  8.50000000E-01  8.50000000E-01  8.50000000E-01  8.50000000E-01  8.50000000E-01
  8.50000000E-01  8.50000000E-01  8.50000000E-01  8.50000000E-01  8.50000000E-01
  8.50000000E-01  8.50000000E-01  8.50000000E-01  8.50000000E-01  8.50000000E-01
  8.50000000E-01  8.50000000E-01  8.50000000E-01  8.50000000E-01  8.50000000E-01
  8.50000000E-01  8.50000000E-01  8.50000000E-01  8.50000000E-01  8.50000000E-01
  8.50000000E-01  8.50000000E-01  8.50000000E-01  8.50000000E-01  8.50000000E-01
  8.50000000E-01  8.50000000E-01  8.50000000E-01  8.50000000E-01  8.50000000E-01
  8.50000000E-01  8.50000000E-01  8.50000000E-01  8.50000000E-01  8.50000000E-01
  8.50000000E-01  8.50000000E-01  8.50000000E-01  8.50000000E-01  8.50000000E-01
  8.50000000E-01  8.50000000E-01  8.50000000E-01  8.50000000E-01  8.50000000E-01
  8.50000000E-01  8.50000000E-01  8.50000000E-01  8.50000000E-01  8.50000000E-01
  8.50000000E-01  8.50000000E-01  8.50000000E-01  8.50000000E-01  8.50000000E-01
  8.50000000E-01  8.50000000E-01  8.50000000E-01  8.50000000E-01  8.50000000E-01
  8.50000000E-01  8.50000000E-01  8.50000000E-01  8.50000000E-01  8.50000000E-01
  8.50000000E-01  8.50000000E-01  8.50000000E-01  8.50000000E-01  8.50000000E-01
  8.50000000E-01  8.50000000E-01  8.50000000E-01  8.50000000E-01  8.50000000E-01
  8.50000000E-01  8.50000000E-01  8.50000000E-01  8.50000000E-01  8.50000000E-01
  8.50000000E-01  8.50000000E-01  8.50000000E-01  8.50000000E-01  8.50000000E-01
  8.50000000E-01  8.50000000E-01  8.50000000E-01  8.50000000E-01  8.50000000E-01
  8.50000000E-01  8.50000000E-01  8.50000000E-01  8.50000000E-01  8.50000000E-01
  8.50000000E-01  8.50000000E-01  8.50000000E-01  8.50000000E-01  8.50000000E-01
  8.50000000E-01  8.50000000E-01  8.50000000E-01  8.50000000E-01  8.50000000E-01
  8.50000000E-01  8.50000000E-01  8.50000000E-01  8.50000000E-01  8.50000000E-01
  8.50000000E-01  8.50000000E-01  8.50000000E-01  8.50000000E-01  8.50000000E-01
  8.50000000E-01  8.50000000E-01  8.50000000E-01  8.50000000E-01  8.50000000E-01
  8.50000000E-01  8.50000000E-01  8.50000000E-01  8.50000000E-01  8.50000000E-01
  8.50000000E-01  8.50000000E-01  8.50000000E-01  8.50000000E-01  8.50000000E-01
  8.50000000E-01  8.50000000E-01  8.50000000E-01  8.50000000E-01  8.50000000E-01
  8.50000000E-01  8.50000000E-01  8.50000000E-01  8.50000000E-01  8.50000000E-01
  8.50000000E-01  8.50000000E-01  8.50000000E-01  8.50000000E-01  8.50000000E-01
  8.50000000E-01  8.50000000E-01  8.50000000E-01  8.50000000E-01  8.50000000E-01
  8.50000000E-01  8.50000000E-01  8.50000000E-01  8.50000000E-01  8.50000000E-01
  8.50000000E-01  8.50000000E-01  8.50000000E-01  8.50000000E-01  8.50000000E-01
  8.50000000E-01  8.50000000E-01  8.50000000E-01  8.50000000E-01  8.50000000E-01
  8.50000000E-01  8.50000000E-01  8.50000000E-01  8.50000000E-01  8.50000000E-01
  8.50000000E-01  8.50000000E-01  8.50000000E-01  8.50000000E-01  8.50000000E-01
  8.50000000E-01  8.50000000E-01  8.50000000E-01  8.50000000E-01  8.50000000E-01
  8.50000000E-01  8.50000000E-01  8.50000000E-01  8.50000000E-01  8.50000000E-01
  8.50000000E-01  8.50000000E-01  8.50000000E-01  8.50000000E-01  8.50000000E-01
  8.50000000E-01  8.50000000E-01  8.50000000E-01  8.50000000E-01  8.50000000E-01
  8.50000000E-01  8.50000000E-01  8.50000000E-01  8.50000000E-01  8.50000000E-01
  8.50000000E-01  8.50000000E-01  8.50000000E-01  8.50000000E-01  8.50000000E-01
  8.50000000E-01  8.50000000E-01  8.50000000E-01  8.50000000E-01  8.50000000E-01
  8.50000000E-01  8.50000000E-01  8.50000000E-01  8.50000000E-01  8.50000000E-01
  8.50000000E-01  8.50000000E-01  8.50000000E-01  8.50000000E-01  8.50000000E-01
  8.50000000E-01  8.50000000E-01  8.50000000E-01  8.50000000E-01  8.50000000E-01
  8.50000000E-01  8.50000000E-01  8.50000000E-01  8.50000000E-01  8.50000000E-01
  8.50000000E-01  8.50000000E-01  8.50000000E-01  8.50000000E-01  8.50000000E-01
  8.50000000E-01  8.50000000E-01  8.50000000E-01  8.50000000E-01  8.50000000E-01
  8.50000000E-01  8.50000000E-01  8.50000000E-01  8.50000000E-01  8.50000000E-01
  8.50000000E-01  8.50000000E-01  8.50000000E-01  8.50000000E-01  8.50000000E-01
  8.50000000E-01  8.50000000E-01  8.50000000E-01  8.50000000E-01  8.50000000E-01
  8.50000000E-01  8.50000000E-01  8.50000000E-01  8.50000000E-01  8.50000000E-01
  8.50000000E-01  8.50000000E-01  8.50000000E-01  8.50000000E-01  8.50000000E-01
  8.50000000E-01  8.50000000E-01  8.50000000E-01  8.50000000E-01  8.50000000E-01
  8.50000000E-01  8.50000000E-01  8.50000000E-01  8.50000000E-01  8.50000000E-01
  8.50000000E-01  8.50000000E-01  8.50000000E-01  8.50000000E-01  8.50000000E-01
  8.50000000E-01  8.50000000E-01  8.50000000E-01  8.50000000E-01  8.50000000E-01
  8.50000000E-01  8.50000000E-01  8.50000000E-01  8.50000000E-01  8.50000000E-01
  8.50000000E-01  8.50000000E-01  8.50000000E-01  8.50000000E-01  8.50000000E-01
  8.50000000E-01  8.50000000E-01  8.50000000E-01  8.50000000E-01  8.50000000E-01
  8.50000000E-01  8.50000000E-01  8.50000000E-01  8.50000000E-01  8.50000000E-01
  8.50000000E-01  8.50000000E-01  8.50000000E-01  8.50000000E-01  8.50000000E-01
  8.50000000E-01  8.50000000E-01  8.50000000E-01  8.50000000E-01  8.50000000E-01
  8.50000000E-01  8.50000000E-01  8.50000000E-01  8.50000000E-01  8.50000000E-01
  8.50000000E-01  8.50000000E-01  8.50000000E-01  8.50000000E-01  8.50000000E-01
  8.50000000E-01  8.50000000E-01  8.50000000E-01  8.50000000E-01  8.50000000E-01
  8.50000000E-01  8.50000000E-01  8.50000000E-01  8.50000000E-01  8.50000000E-01
  8.50000000E-01  8.50000000E-01  8.50000000E-01  8.50000000E-01  8.50000000E-01
  8.50000000E-01  8.50000000E-01  8.50000000E-01  8.50000000E-01  8.50000000E-01
  8.50000000E-01  8.50000000E-01  8.50000000E-01  8.50000000E-01  8.50000000E-01
  8.50000000E-01  8.50000000E-01  8.50000000E-01  8.50000000E-01  8.50000000E-01
  8.50000000E-01  8.50000000E-01  8.50000000E-01  8.50000000E-01  8.50000000E-01
  8.50000000E-01  8.50000000E-01  8.50000000E-01  8.50000000E-01  8.50000000E-01
  8.50000000E-01  8.50000000E-01  8.50000000E-01  8.50000000E-01  8.50000000E-01
  8.50000000E-01  8.50000000E-01  8.50000000E-01  8.50000000E-01  8.50000000E-01
  8.50000000E-01  8.50000000E-01  8.50000000E-01  8.50000000E-01  8.50000000E-01
  8.50000000E-01  8.50000000E-01  8.50000000E-01  8.50000000E-01  8.50000000E-01
  8.50000000E-01  8.50000000E-01  8.50000000E-01  8.50000000E-01  8.50000000E-01
  8.50000000E-01  8.50000000E-01  8.50000000E-01  8.50000000E-01  8.50000000E-01
  8.50000000E-01  8.50000000E-01  8.50000000E-01  8.50000000E-01  8.50000000E-01
  8.50000000E-01  8.50000000E-01  8.50000000E-01  8.50000000E-01  8.50000000E-01
  8.50000000E-01  8.50000000E-01  8.50000000E-01  8.50000000E-01  8.50000000E-01
  8.50000000E-01  8.50000000E-01  8.50000000E-01  8.50000000E-01  8.50000000E-01
  8.50000000E-01  8.50000000E-01  8.50000000E-01  8.50000000E-01  8.50000000E-01
  8.50000000E-01  8.50000000E-01  8.50000000E-01  8.50000000E-01  8.50000000E-01
  8.50000000E-01  8.50000000E-01  8.50000000E-01  8.50000000E-01  8.50000000E-01
  8.50000000E-01  8.50000000E-01  8.50000000E-01  8.50000000E-01  8.50000000E-01
  8.50000000E-01  8.50000000E-01  8.50000000E-01  8.50000000E-01  8.50000000E-01
  8.50000000E-01  8.50000000E-01  8.50000000E-01  8.50000000E-01  8.50000000E-01
  8.50000000E-01  8.50000000E-01  8.50000000E-01  8.50000000E-01  8.50000000E-01
  8.50000000E-01  8.50000000E-01  8.50000000E-01  8.50000000E-01  8.50000000E-01
  8.50000000E-01  8.50000000E-01  8.50000000E-01  8.50000000E-01  8.50000000E-01
  8.50000000E-01  8.50000000E-01  8.50000000E-01  8.50000000E-01  8.50000000E-01
  8.50000000E-01  8.50000000E-01  8.50000000E-01  8.50000000E-01  8.50000000E-01
  8.50000000E-01  8.50000000E-01  8.50000000E-01  8.50000000E-01  8.50000000E-01
  8.50000000E-01  8.50000000E-01  8.50000000E-01  8.50000000E-01  8.50000000E-01
  8.50000000E-01  8.50000000E-01  8.50000000E-01  8.50000000E-01  8.50000000E-01
  8.50000000E-01  8.50000000E-01  8.50000000E-01  8.50000000E-01  8.50000000E-01
  8.50000000E-01  8.50000000E-01  8.50000000E-01  8.50000000E-01  8.50000000E-01
  8.50000000E-01  8.50000000E-01  8.50000000E-01  8.50000000E-01  8.50000000E-01
  8.50000000E-01  8.50000000E-01  8.50000000E-01  8.50000000E-01  8.50000000E-01
  8.50000000E-01  8.50000000E-01  8.50000000E-01  8.50000000E-01  8.50000000E-01
  8.50000000E-01  8.50000000E-01  8.50000000E-01  8.50000000E-01  8.50000000E-01
  8.50000000E-01  8.50000000E-01  8.50000000E-01  8.50000000E-01  8.50000000E-01
  8.50000000E-01  8.50000000E-01  8.50000000E-01  8.50000000E-01  8.50000000E-01
  8.50000000E-01  8.50000000E-01  8.50000000E-01  8.50000000E-01  8.50000000E-01
  8.50000000E-01  8.50000000E-01  8.50000000E-01  8.50000000E-01  8.50000000E-01
  8.50000000E-01  8.50000000E-01  8.50000000E-01  8.50000000E-01  8.50000000E-01
  8.50000000E-01  8.50000000E-01  8.50000000E-01  8.50000000E-01  8.50000000E-01
  8.50000000E-01  8.50000000E-01  8.50000000E-01  8.50000000E-01  8.50000000E-01
  8.50000000E-01  8.50000000E-01  8.50000000E-01  8.50000000E-01  8.50000000E-01
  8.50000000E-01  8.50000000E-01  8.50000000E-01  8.50000000E-01  8.50000000E-01
  8.50000000E-01  8.50000000E-01  8.50000000E-01  8.50000000E-01  8.50000000E-01
  8.50000000E-01  8.50000000E-01  8.50000000E-01  8.50000000E-01  8.50000000E-01
  8.50000000E-01  8.50000000E-01  8.50000000E-01  8.50000000E-01  8.50000000E-01
  8.50000000E-01  8.50000000E-01  8.50000000E-01  8.50000000E-01  8.50000000E-01
  8.50000000E-01  8.50000000E-01  8.50000000E-01  8.50000000E-01  8.50000000E-01
  8.50000000E-01  8.50000000E-01  8.50000000E-01  8.50000000E-01  8.50000000E-01
  8.50000000E-01  8.50000000E-01  8.50000000E-01  8.50000000E-01  8.50000000E-01
  8.50000000E-01  8.50000000E-01  8.50000000E-01  8.50000000E-01  8.50000000E-01
  8.50000000E-01  8.50000000E-01  8.50000000E-01  8.50000000E-01  8.50000000E-01
  8.50000000E-01  8.50000000E-01  8.50000000E-01  8.50000000E-01  8.50000000E-01
  8.50000000E-01  8.50000000E-01  8.50000000E-01  8.50000000E-01  8.50000000E-01
  8.50000000E-01  8.50000000E-01  8.50000000E-01  8.50000000E-01  8.50000000E-01
  8.50000000E-01  8.50000000E-01  8.50000000E-01  8.50000000E-01  8.50000000E-01
  8.50000000E-01  8.50000000E-01  8.50000000E-01  8.50000000E-01  8.50000000E-01
  8.50000000E-01  8.50000000E-01  8.50000000E-01  8.50000000E-01  8.50000000E-01
  8.50000000E-01  8.50000000E-01  8.50000000E-01  8.50000000E-01  8.50000000E-01
  8.50000000E-01  8.50000000E-01  8.50000000E-01  8.50000000E-01  8.50000000E-01
  8.50000000E-01  8.50000000E-01  8.50000000E-01  8.50000000E-01  8.50000000E-01
  8.50000000E-01  8.50000000E-01  8.50000000E-01  8.50000000E-01  8.50000000E-01
  8.50000000E-01  8.50000000E-01  8.50000000E-01  8.50000000E-01  8.50000000E-01
  8.50000000E-01  8.50000000E-01  8.50000000E-01  8.50000000E-01  8.50000000E-01
  8.50000000E-01  8.50000000E-01  8.50000000E-01  8.50000000E-01  8.50000000E-01
  8.50000000E-01  8.50000000E-01  8.50000000E-01  8.50000000E-01  8.50000000E-01
  8.50000000E-01  8.50000000E-01  8.50000000E-01  8.50000000E-01  8.50000000E-01
  8.50000000E-01  8.50000000E-01  8.50000000E-01  8.50000000E-01  8.50000000E-01
  8.50000000E-01  8.50000000E-01  8.50000000E-01  8.50000000E-01  8.50000000E-01
  8.50000000E-01  8.50000000E-01  8.50000000E-01  8.50000000E-01  8.50000000E-01
  8.50000000E-01  8.50000000E-01  8.50000000E-01  8.50000000E-01  8.50000000E-01
  8.50000000E-01  8.50000000E-01  8.50000000E-01  8.50000000E-01  8.50000000E-01
  8.50000000E-01  8.50000000E-01  8.50000000E-01  8.50000000E-01  8.50000000E-01
  8.50000000E-01  8.50000000E-01  8.50000000E-01  8.50000000E-01  8.50000000E-01
  8.50000000E-01  8.50000000E-01  8.50000000E-01  8.50000000E-01  8.50000000E-01
  8.50000000E-01  8.50000000E-01  8.50000000E-01  8.50000000E-01  8.50000000E-01
  8.50000000E-01  8.50000000E-01  8.50000000E-01  8.50000000E-01  8.50000000E-01
  8.50000000E-01  8.50000000E-01  8.50000000E-01  8.50000000E-01  8.50000000E-01
  8.50000000E-01  8.50000000E-01  8.50000000E-01  8.50000000E-01  8.50000000E-01
  8.50000000E-01  8.50000000E-01  8.50000000E-01  8.50000000E-01  8.50000000E-01
  8.50000000E-01  8.50000000E-01  8.50000000E-01  8.50000000E-01  8.50000000E-01
  8.50000000E-01  8.50000000E-01  8.50000000E-01  8.50000000E-01  8.50000000E-01
  8.50000000E-01  8.50000000E-01  8.50000000E-01  8.50000000E-01  8.50000000E-01
  8.50000000E-01  8.50000000E-01  8.50000000E-01  8.50000000E-01  8.50000000E-01
  8.50000000E-01  8.50000000E-01  8.50000000E-01  8.50000000E-01  8.50000000E-01
  8.50000000E-01  8.50000000E-01  8.50000000E-01  8.50000000E-01  8.50000000E-01
  8.50000000E-01  8.50000000E-01  8.50000000E-01  8.50000000E-01  8.50000000E-01
  8.50000000E-01  8.50000000E-01  8.50000000E-01  8.50000000E-01  8.50000000E-01
  8.50000000E-01  8.50000000E-01  8.50000000E-01  8.50000000E-01  8.50000000E-01
  8.50000000E-01  8.50000000E-01  8.50000000E-01  8.50000000E-01  8.50000000E-01
  8.50000000E-01  8.50000000E-01  8.50000000E-01  8.50000000E-01  8.50000000E-01
  8.50000000E-01  8.50000000E-01  8.50000000E-01  8.50000000E-01  8.50000000E-01
  8.50000000E-01  8.50000000E-01  8.50000000E-01  8.50000000E-01  8.50000000E-01
  8.50000000E-01  8.50000000E-01  8.50000000E-01  8.50000000E-01  8.50000000E-01
  8.50000000E-01  8.50000000E-01  8.50000000E-01  8.50000000E-01  8.50000000E-01
  8.50000000E-01  8.50000000E-01  8.50000000E-01  8.50000000E-01  8.50000000E-01
  8.50000000E-01  8.50000000E-01  8.50000000E-01  8.50000000E-01  8.50000000E-01
  8.50000000E-01  8.50000000E-01  8.50000000E-01  8.50000000E-01  8.50000000E-01
  8.50000000E-01  8.50000000E-01  8.50000000E-01  8.50000000E-01  8.50000000E-01
  8.50000000E-01  8.50000000E-01  8.50000000E-01  8.50000000E-01  8.50000000E-01
  8.50000000E-01  8.50000000E-01  8.50000000E-01  8.50000000E-01  8.50000000E-01
  8.50000000E-01  8.50000000E-01  8.50000000E-01  8.50000000E-01  8.50000000E-01
  8.50000000E-01  8.50000000E-01  8.50000000E-01  8.50000000E-01  8.50000000E-01
  8.50000000E-01  8.50000000E-01  8.50000000E-01  8.50000000E-01  8.50000000E-01
  8.50000000E-01  8.50000000E-01  8.50000000E-01  8.50000000E-01  8.50000000E-01
  8.50000000E-01  8.50000000E-01  8.50000000E-01  8.50000000E-01  8.50000000E-01
  8.50000000E-01  8.50000000E-01  8.50000000E-01  8.50000000E-01  8.50000000E-01
  8.50000000E-01  8.50000000E-01  8.50000000E-01  8.50000000E-01  8.50000000E-01
  8.50000000E-01  8.50000000E-01  8.50000000E-01  8.50000000E-01  8.50000000E-01
  8.50000000E-01  8.50000000E-01  8.50000000E-01  8.50000000E-01  8.50000000E-01
  8.50000000E-01  8.50000000E-01  8.50000000E-01  8.50000000E-01  8.50000000E-01
  8.50000000E-01  8.50000000E-01  8.50000000E-01  8.50000000E-01  8.50000000E-01
  8.50000000E-01  8.50000000E-01  8.50000000E-01  8.50000000E-01  8.50000000E-01
  8.50000000E-01  8.50000000E-01  8.50000000E-01  8.50000000E-01  8.50000000E-01
  8.50000000E-01  8.50000000E-01  8.50000000E-01  8.50000000E-01  8.50000000E-01
  8.50000000E-01  8.50000000E-01  8.50000000E-01  8.50000000E-01  8.50000000E-01
  8.50000000E-01  8.50000000E-01  8.50000000E-01  8.50000000E-01  8.50000000E-01
  8.50000000E-01  8.50000000E-01  8.50000000E-01  8.50000000E-01  8.50000000E-01
  8.50000000E-01  8.50000000E-01  8.50000000E-01  8.50000000E-01  8.50000000E-01
  8.50000000E-01  8.50000000E-01  8.50000000E-01  8.50000000E-01  8.50000000E-01
  8.50000000E-01  8.50000000E-01  8.50000000E-01  8.50000000E-01  8.50000000E-01
  8.50000000E-01  8.50000000E-01  8.50000000E-01  8.50000000E-01  8.50000000E-01
  8.50000000E-01  8.50000000E-01  8.50000000E-01  8.50000000E-01  8.50000000E-01
  8.50000000E-01  8.50000000E-01  8.50000000E-01  8.50000000E-01  8.50000000E-01
  8.50000000E-01  8.50000000E-01  8.50000000E-01  8.50000000E-01  8.50000000E-01
  8.50000000E-01  8.50000000E-01  8.50000000E-01  8.50000000E-01  8.50000000E-01
  8.50000000E-01  8.50000000E-01  8.50000000E-01  8.50000000E-01  8.50000000E-01
  8.50000000E-01  8.50000000E-01  8.50000000E-01  8.50000000E-01  8.50000000E-01
  8.50000000E-01  8.50000000E-01  8.50000000E-01  8.50000000E-01  8.50000000E-01
  8.50000000E-01  8.50000000E-01  8.50000000E-01  8.50000000E-01  8.50000000E-01
  8.50000000E-01  8.50000000E-01  8.50000000E-01  8.50000000E-01  8.50000000E-01
  8.50000000E-01  8.50000000E-01  8.50000000E-01  8.50000000E-01  8.50000000E-01
  8.50000000E-01  8.50000000E-01  8.50000000E-01  8.50000000E-01  8.50000000E-01
  8.50000000E-01  8.50000000E-01  8.50000000E-01  8.50000000E-01  8.50000000E-01
  8.50000000E-01  8.50000000E-01  8.50000000E-01  8.50000000E-01  8.50000000E-01
  8.50000000E-01  8.50000000E-01  8.50000000E-01  8.50000000E-01  8.50000000E-01
  8.50000000E-01  8.50000000E-01  8.50000000E-01  8.50000000E-01  8.50000000E-01
  8.50000000E-01  8.50000000E-01  8.50000000E-01  8.50000000E-01  8.50000000E-01
  8.50000000E-01  8.50000000E-01  8.50000000E-01  8.50000000E-01  8.50000000E-01
  8.50000000E-01  8.50000000E-01  8.50000000E-01  8.50000000E-01  8.50000000E-01
  8.50000000E-01  8.50000000E-01  8.50000000E-01  8.50000000E-01  8.50000000E-01
  8.50000000E-01  8.50000000E-01  8.50000000E-01  8.50000000E-01  8.50000000E-01
  8.50000000E-01  8.50000000E-01  8.50000000E-01  8.50000000E-01  8.50000000E-01
  8.50000000E-01  8.50000000E-01  8.50000000E-01  8.50000000E-01  8.50000000E-01
  8.50000000E-01  8.50000000E-01  8.50000000E-01  8.50000000E-01  8.50000000E-01
  8.50000000E-01  8.50000000E-01  8.50000000E-01  8.50000000E-01  8.50000000E-01
  8.50000000E-01  8.50000000E-01  8.50000000E-01  8.50000000E-01  8.50000000E-01
  8.50000000E-01  8.50000000E-01  8.50000000E-01  8.50000000E-01  8.50000000E-01
  8.50000000E-01  8.50000000E-01  8.50000000E-01  8.50000000E-01  8.50000000E-01
  8.50000000E-01  8.50000000E-01  8.50000000E-01  8.50000000E-01  8.50000000E-01
  8.50000000E-01  8.50000000E-01  8.50000000E-01  8.50000000E-01  8.50000000E-01
  8.50000000E-01  8.50000000E-01  8.50000000E-01  8.50000000E-01  8.50000000E-01
  8.50000000E-01  8.50000000E-01  8.50000000E-01  8.50000000E-01  8.50000000E-01
  8.50000000E-01  8.50000000E-01  8.50000000E-01  8.50000000E-01  8.50000000E-01
  8.50000000E-01  8.50000000E-01  8.50000000E-01  8.50000000E-01  8.50000000E-01
  8.50000000E-01  8.50000000E-01  8.50000000E-01  8.50000000E-01  8.50000000E-01
  8.50000000E-01  8.50000000E-01  8.50000000E-01  8.50000000E-01  8.50000000E-01
  8.50000000E-01  8.50000000E-01  8.50000000E-01  8.50000000E-01  8.50000000E-01
  8.50000000E-01  8.50000000E-01  8.50000000E-01  8.50000000E-01  8.50000000E-01
  8.50000000E-01  8.50000000E-01  8.50000000E-01  8.50000000E-01  8.50000000E-01
  8.50000000E-01  8.50000000E-01  8.50000000E-01  8.50000000E-01  8.50000000E-01
  8.50000000E-01  8.50000000E-01  8.50000000E-01  8.50000000E-01  8.50000000E-01
  8.50000000E-01  8.50000000E-01  8.50000000E-01  8.50000000E-01  8.50000000E-01
  8.50000000E-01  8.50000000E-01  8.50000000E-01  8.50000000E-01  8.50000000E-01
  8.50000000E-01  8.50000000E-01  8.50000000E-01  8.50000000E-01  8.50000000E-01
  8.50000000E-01  8.50000000E-01  8.50000000E-01  8.50000000E-01  8.50000000E-01
  8.50000000E-01  8.50000000E-01  8.50000000E-01  8.50000000E-01  8.50000000E-01
  8.50000000E-01  8.50000000E-01  8.50000000E-01  8.50000000E-01  8.50000000E-01
  8.50000000E-01  8.50000000E-01  8.50000000E-01  8.50000000E-01  8.50000000E-01
  8.50000000E-01  8.50000000E-01  8.50000000E-01  8.50000000E-01  8.50000000E-01
  8.50000000E-01  8.50000000E-01  8.50000000E-01  8.50000000E-01  8.50000000E-01
  8.50000000E-01  8.50000000E-01  8.50000000E-01  8.50000000E-01  8.50000000E-01
  8.50000000E-01  8.50000000E-01  8.50000000E-01  8.50000000E-01  8.50000000E-01
  8.50000000E-01  8.50000000E-01  8.50000000E-01  8.50000000E-01  8.50000000E-01
  8.50000000E-01  8.50000000E-01  8.50000000E-01  8.50000000E-01  8.50000000E-01
  8.50000000E-01  8.50000000E-01  8.50000000E-01  8.50000000E-01  8.50000000E-01
  8.50000000E-01  8.50000000E-01  8.50000000E-01  8.50000000E-01  8.50000000E-01
  8.50000000E-01  8.50000000E-01  8.50000000E-01  8.50000000E-01  8.50000000E-01
  8.50000000E-01  8.50000000E-01  8.50000000E-01  8.50000000E-01  8.50000000E-01
  8.50000000E-01  8.50000000E-01  8.50000000E-01  8.50000000E-01  8.50000000E-01
  8.50000000E-01  8.50000000E-01  8.50000000E-01  8.50000000E-01  8.50000000E-01
  8.50000000E-01  8.50000000E-01  8.50000000E-01  8.50000000E-01  8.50000000E-01
  8.50000000E-01  8.50000000E-01  8.50000000E-01  8.50000000E-01  8.50000000E-01
  8.50000000E-01  8.50000000E-01  8.50000000E-01  8.50000000E-01  8.50000000E-01
  8.50000000E-01  8.50000000E-01  8.50000000E-01  8.50000000E-01  8.50000000E-01
  8.50000000E-01  8.50000000E-01  8.50000000E-01  8.50000000E-01  8.50000000E-01
  8.50000000E-01  8.50000000E-01  8.50000000E-01  8.50000000E-01  8.50000000E-01
  8.50000000E-01  8.50000000E-01  8.50000000E-01  8.50000000E-01  8.50000000E-01
  8.50000000E-01  8.50000000E-01  8.50000000E-01  8.50000000E-01  8.50000000E-01
  8.50000000E-01  8.50000000E-01  8.50000000E-01  8.50000000E-01  8.50000000E-01
  8.50000000E-01  8.50000000E-01  8.50000000E-01  8.50000000E-01  8.50000000E-01
  8.50000000E-01  8.50000000E-01  8.50000000E-01  8.50000000E-01  8.50000000E-01
  8.50000000E-01  8.50000000E-01  8.50000000E-01  8.50000000E-01  8.50000000E-01
  8.50000000E-01  8.50000000E-01  8.50000000E-01  8.50000000E-01  8.50000000E-01
  8.50000000E-01  8.50000000E-01  8.50000000E-01  8.50000000E-01  8.50000000E-01
  8.50000000E-01  8.50000000E-01  8.50000000E-01  8.50000000E-01  8.50000000E-01
  8.50000000E-01  8.50000000E-01  8.50000000E-01  8.50000000E-01  8.50000000E-01
  8.50000000E-01  8.50000000E-01  8.50000000E-01  8.50000000E-01  8.50000000E-01
  8.50000000E-01  8.50000000E-01  8.50000000E-01  8.50000000E-01  8.50000000E-01
  8.50000000E-01  8.50000000E-01  8.50000000E-01  8.50000000E-01  8.50000000E-01
  8.50000000E-01  8.50000000E-01  8.50000000E-01  8.50000000E-01  8.50000000E-01
  8.50000000E-01  8.50000000E-01  8.50000000E-01  8.50000000E-01  8.50000000E-01
  8.50000000E-01  8.50000000E-01  8.50000000E-01  8.50000000E-01  8.50000000E-01
  8.50000000E-01  8.50000000E-01  8.50000000E-01  8.50000000E-01  8.50000000E-01
  8.50000000E-01  8.50000000E-01  8.50000000E-01  8.50000000E-01  8.50000000E-01
  8.50000000E-01  8.50000000E-01  8.50000000E-01  8.50000000E-01  8.50000000E-01
  8.50000000E-01  8.50000000E-01  8.50000000E-01  8.50000000E-01  8.50000000E-01
  8.50000000E-01  8.50000000E-01  8.50000000E-01  8.50000000E-01  8.50000000E-01
  8.50000000E-01  8.50000000E-01  8.50000000E-01  8.50000000E-01  8.50000000E-01
  8.50000000E-01  8.50000000E-01  8.50000000E-01  8.50000000E-01  8.50000000E-01
  8.50000000E-01  8.50000000E-01  8.50000000E-01  8.50000000E-01  8.50000000E-01
  8.50000000E-01  8.50000000E-01  8.50000000E-01  8.50000000E-01  8.50000000E-01
  8.50000000E-01  8.50000000E-01  8.50000000E-01  8.50000000E-01  8.50000000E-01
  8.50000000E-01  8.50000000E-01  8.50000000E-01  8.50000000E-01  8.50000000E-01
  8.50000000E-01  8.50000000E-01  8.50000000E-01  8.50000000E-01  8.50000000E-01
  8.50000000E-01  8.50000000E-01  8.50000000E-01  8.50000000E-01  8.50000000E-01
  8.50000000E-01  8.50000000E-01  8.50000000E-01  8.50000000E-01  8.50000000E-01
  8.50000000E-01  8.50000000E-01  8.50000000E-01  8.50000000E-01  8.50000000E-01
  8.50000000E-01  8.50000000E-01  8.50000000E-01  8.50000000E-01  8.50000000E-01
  8.50000000E-01  8.50000000E-01  8.50000000E-01  8.50000000E-01  8.50000000E-01
  8.50000000E-01  8.50000000E-01  8.50000000E-01  8.50000000E-01  8.50000000E-01
  8.50000000E-01  8.50000000E-01  8.50000000E-01  8.50000000E-01  8.50000000E-01
  8.50000000E-01  8.50000000E-01  8.50000000E-01  8.50000000E-01  8.50000000E-01
  8.50000000E-01  8.50000000E-01  8.50000000E-01  8.50000000E-01  8.50000000E-01
  8.50000000E-01  8.50000000E-01  8.50000000E-01  8.50000000E-01  8.50000000E-01
  8.50000000E-01  8.50000000E-01  8.50000000E-01  8.50000000E-01  8.50000000E-01
  8.50000000E-01  8.50000000E-01  8.50000000E-01  8.50000000E-01  8.50000000E-01
  8.50000000E-01  8.50000000E-01  8.50000000E-01  8.50000000E-01  8.50000000E-01
  8.50000000E-01  8.50000000E-01  8.50000000E-01  8.50000000E-01  8.50000000E-01
  8.50000000E-01  8.50000000E-01  8.50000000E-01  8.50000000E-01  8.50000000E-01
  8.50000000E-01  8.50000000E-01  8.50000000E-01  8.50000000E-01  8.50000000E-01
  8.50000000E-01  8.50000000E-01  8.50000000E-01  8.50000000E-01  8.50000000E-01
  8.50000000E-01  8.50000000E-01  8.50000000E-01  8.50000000E-01  8.50000000E-01
  8.50000000E-01  8.50000000E-01  8.50000000E-01  8.50000000E-01  8.50000000E-01
  8.50000000E-01  8.50000000E-01  8.50000000E-01  8.50000000E-01  8.50000000E-01
  8.50000000E-01  8.50000000E-01  8.50000000E-01  8.50000000E-01  8.50000000E-01
  8.50000000E-01  8.50000000E-01  8.50000000E-01  8.50000000E-01  8.50000000E-01
  8.50000000E-01  8.50000000E-01  8.50000000E-01  8.50000000E-01  8.50000000E-01
  8.50000000E-01  8.50000000E-01  8.50000000E-01  8.50000000E-01  8.50000000E-01
  8.50000000E-01  8.50000000E-01  8.50000000E-01  8.50000000E-01  8.50000000E-01
  8.50000000E-01  8.50000000E-01  8.50000000E-01  8.50000000E-01  8.50000000E-01
  8.50000000E-01  8.50000000E-01  8.50000000E-01  8.50000000E-01  8.50000000E-01
  8.50000000E-01  8.50000000E-01  8.50000000E-01  8.50000000E-01  8.50000000E-01
  8.50000000E-01  8.50000000E-01  8.50000000E-01  8.50000000E-01  8.50000000E-01
  8.50000000E-01  8.50000000E-01  8.50000000E-01  8.50000000E-01  8.50000000E-01
  8.50000000E-01  8.50000000E-01  8.50000000E-01  8.50000000E-01  8.50000000E-01
  8.50000000E-01  8.50000000E-01  8.50000000E-01  8.50000000E-01  8.50000000E-01
  8.50000000E-01  8.50000000E-01  8.50000000E-01  8.50000000E-01  8.50000000E-01
  8.50000000E-01  8.50000000E-01  8.50000000E-01  8.50000000E-01  8.50000000E-01
  8.50000000E-01  8.50000000E-01  8.50000000E-01  8.50000000E-01  8.50000000E-01
  8.50000000E-01  8.50000000E-01  8.50000000E-01  8.50000000E-01  8.50000000E-01
  8.50000000E-01  8.50000000E-01  8.50000000E-01  8.50000000E-01  8.50000000E-01
  8.50000000E-01  8.50000000E-01  8.50000000E-01  8.50000000E-01  8.50000000E-01
  8.50000000E-01  8.50000000E-01  8.50000000E-01  8.50000000E-01  8.50000000E-01
  8.50000000E-01  8.50000000E-01  8.50000000E-01  8.50000000E-01  8.50000000E-01
  8.50000000E-01  8.50000000E-01  8.50000000E-01  8.50000000E-01  8.50000000E-01
  8.50000000E-01  8.50000000E-01  8.50000000E-01  8.50000000E-01  8.50000000E-01
  8.50000000E-01  8.50000000E-01  8.50000000E-01  8.50000000E-01  8.50000000E-01
  8.50000000E-01  8.50000000E-01  8.50000000E-01  8.50000000E-01  8.50000000E-01
  8.50000000E-01  8.50000000E-01  8.50000000E-01  8.50000000E-01  8.50000000E-01
  8.50000000E-01  8.50000000E-01  8.50000000E-01  8.50000000E-01  8.50000000E-01
  8.50000000E-01  8.50000000E-01  8.50000000E-01  8.50000000E-01  8.50000000E-01
  8.50000000E-01  8.50000000E-01  8.50000000E-01  8.50000000E-01  8.50000000E-01
  8.50000000E-01  8.50000000E-01  8.50000000E-01  8.50000000E-01  8.50000000E-01
  8.50000000E-01  8.50000000E-01  8.50000000E-01  8.50000000E-01  8.50000000E-01
  8.50000000E-01  8.50000000E-01  8.50000000E-01  8.50000000E-01  8.50000000E-01
  8.50000000E-01  8.50000000E-01  8.50000000E-01  8.50000000E-01
%FLAG IPOL                                                                      
%FORMAT(1I8)                                                                    
       0
