;
;   File sys_3to1.top  was generated
;   By user: wrz135 (1661514461)
;   On host:c012 
;   At date:Fri. October  5 14:51:52 2026 
;
;   This is a standalone topology file
;
;   Created by:
;   ParmEd:       -, VERSION4.3.1 
;   Executable:   -
;   Library dir:  /usr/local/gromacs/share/gromacs/top
;   Command line:
;     -
;

[ defaults ]
; nbfunc        comb-rule       gen-pairs       fudgeLJ fudgeQQ
1               2               yes             0.5          0.83333333  

[ atomtypes ]
; name    at.num    mass    charge ptype  sigma      epsilon
ca             6  12.010000  0.00000000  A     0.33152123      0.4133792
ha             1   1.008000  0.00000000  A     0.26254785      0.0673624
c2             6  12.010000  0.00000000  A     0.33152123      0.4133792
o              8  16.000000  0.00000000  A     0.30481209      0.6121192
c              6  12.010000  0.00000000  A     0.33152123      0.4133792
c5             6  12.010000  0.00000000  A     0.33996695      0.4577296
hc             1   1.008000  0.00000000  A      0.2600177      0.0870272
n              7  14.010000  0.00000000  A     0.31808648      0.6845024
c3             6  12.010000  0.00000000  A     0.33977095      0.4510352
os             8  16.000000  0.00000000  A     0.31560978      0.3037584
c6             6  12.010000  0.00000000  A     0.33996695      0.4577296
oh             8  16.000000  0.00000000  A     0.32428713       0.389112
h1             1   1.008000  0.00000000  A     0.24219973      0.0870272
ho             1   1.008000  0.00000000  A    0.053792465      0.0196648
h2             1   1.008000  0.00000000  A     0.22438175      0.0870272
OW             8  16.000000  0.00000000  A     0.31507524       0.635968
HW             1   1.008000  0.00000000  A              0              0


[ moleculetype ]
; Name            nrexcl
PYR          3

[ atoms ]
;   nr       type  resnr residue  atom   cgnr    charge       mass  typeB    chargeB      massB
; residue    1 PYR rtp PYR q 0.0
    1         ca      1    PYR      C      1 -0.34102200  12.010000   ; qtot -0.341022
    2         ca      1    PYR     C1      2 -0.21414500  12.010000   ; qtot -0.555167
    3         ca      1    PYR     C2      3 -0.00205600  12.010000   ; qtot -0.557223
    4         ca      1    PYR     C3      4 -0.29620500  12.010000   ; qtot -0.853428
    5         ca      1    PYR     C4      5 -0.29620500  12.010000   ; qtot -1.149633
    6         ca      1    PYR     C5      6 -0.00205600  12.010000   ; qtot -1.151689
    7         ca      1    PYR     C6      7 -0.21414500  12.010000   ; qtot -1.365834
    8         ca      1    PYR     C7      8 -0.34102200  12.010000   ; qtot -1.706856
    9         ca      1    PYR     C8      9 -0.21414500  12.010000   ; qtot -1.921001
   10         ca      1    PYR     C9     10 -0.00205600  12.010000   ; qtot -1.923057
   11         ca      1    PYR    C10     11 -0.29620500  12.010000   ; qtot -2.219262
   12         ca      1    PYR    C11     12 -0.29620500  12.010000   ; qtot -2.515467
   13         ca      1    PYR    C12     13 -0.00205600  12.010000   ; qtot -2.517523
   14         ca      1    PYR    C13     14 -0.21414500  12.010000   ; qtot -2.731668
   15         ca      1    PYR    C14     15 0.09078000  12.010000   ; qtot -2.640888
   16         ca      1    PYR    C15     16 0.09078000  12.010000   ; qtot -2.550108
   17         ha      1    PYR      H     17 0.27099600   1.008000   ; qtot -2.279112
   18         ha      1    PYR     H1     18 0.24219100   1.008000   ; qtot -2.036921
   19         ha      1    PYR     H2     19 0.25983800   1.008000   ; qtot -1.777083
   20         ha      1    PYR     H3     20 0.25983800   1.008000   ; qtot -1.517245
   21         ha      1    PYR     H4     21 0.24219100   1.008000   ; qtot -1.275054
   22         ha      1    PYR     H5     22 0.27099600   1.008000   ; qtot -1.004058
   23         ha      1    PYR     H6     23 0.24219100   1.008000   ; qtot -0.761867
   24         ha      1    PYR     H7     24 0.25983800   1.008000   ; qtot -0.502029
   25         ha      1    PYR     H8     25 0.25983800   1.008000   ; qtot -0.242191
   26         ha      1    PYR     H9     26 0.24219100   1.008000   ; qtot 0.000000

[ bonds ]
;    ai     aj funct         c0         c1         c2         c3
     15     16     1   0.13986 296436.400000
     13     15     1   0.13986 296436.400000
     13     14     1   0.13986 296436.400000
     12     13     1   0.13986 296436.400000
     11     12     1   0.13986 296436.400000
     10     11     1   0.13986 296436.400000
     10     16     1   0.13986 296436.400000
      9     10     1   0.13986 296436.400000
      8      9     1   0.13986 296436.400000
      7      8     1   0.13986 296436.400000
      6     16     1   0.13986 296436.400000
      6      7     1   0.13986 296436.400000
      5      6     1   0.13986 296436.400000
      4      5     1   0.13986 296436.400000
      3      4     1   0.13986 296436.400000
      3     15     1   0.13986 296436.400000
      2      3     1   0.13986 296436.400000
      1     14     1   0.13986 296436.400000
      1      2     1   0.13986 296436.400000
     14     26     1   0.10860 301825.392000
     12     25     1   0.10860 301825.392000
     11     24     1   0.10860 301825.392000
      9     23     1   0.10860 301825.392000
      8     22     1   0.10860 301825.392000
      7     21     1   0.10860 301825.392000
      5     20     1   0.10860 301825.392000
      4     19     1   0.10860 301825.392000
      2     18     1   0.10860 301825.392000
      1     17     1   0.10860 301825.392000

[ pairs ]
;    ai     aj funct         c0         c1         c2         c3
     14     16     1
     12     16     1
     11     15     1
     11     14     1
     10     13     1
      9     12     1
      9     15     1
      8     11     1
      8     16     1
      7     10     1
      7     15     1
      6     11     1
      6      9     1
      6     13     1
      5     10     1
      5     15     1
      5      8     1
      4     16     1
      4      7     1
      4     13     1
      3      6     1
      3     10     1
      3     12     1
      3     14     1
      2      5     1
      2     16     1
      2     13     1
      1     12     1
      1     15     1
      1      4     1
     24     25     1
     22     23     1
     21     22     1
     19     20     1
     17     26     1
     17     18     1
     16     24     1
     16     23     1
     16     20     1
     16     21     1
     15     25     1
     15     26     1
     15     19     1
     15     18     1
     14     25     1
     14     18     1
     13     24     1
     17     13     1
     12     26     1
     11     23     1
     10     25     1
     10     22     1
      9     24     1
      9     21     1
      7     20     1
      7     23     1
      6     19     1
      6     22     1
      5     21     1
      4     18     1
      3     20     1
     17      3     1
      2     19     1
      2     26     1

[ angles ]
;    ai     aj     ak funct         c0         c1         c2         c3
     14     13     15     1   120.0200517 532.790560
     13     15     16     1   120.0200517 532.790560
     12     13     15     1   120.0200517 532.790560
     12     13     14     1   120.0200517 532.790560
     11     12     13     1   120.0200517 532.790560
     11     10     16     1   120.0200517 532.790560
     10     11     12     1   120.0200517 532.790560
     10     16     15     1   120.0200517 532.790560
      9     10     11     1   120.0200517 532.790560
      9     10     16     1   120.0200517 532.790560
      8      9     10     1   120.0200517 532.790560
      7      6     16     1   120.0200517 532.790560
      7      8      9     1   120.0200517 532.790560
      6     16     10     1   120.0200517 532.790560
      6     16     15     1   120.0200517 532.790560
      6      7      8     1   120.0200517 532.790560
      5      6     16     1   120.0200517 532.790560
      5      6      7     1   120.0200517 532.790560
      4      5      6     1   120.0200517 532.790560
      4      3     15     1   120.0200517 532.790560
      3      4      5     1   120.0200517 532.790560
      3     15     16     1   120.0200517 532.790560
      3     15     13     1   120.0200517 532.790560
      2      3      4     1   120.0200517 532.790560
      2      3     15     1   120.0200517 532.790560
      2      1     14     1   120.0200517 532.790560
      1     14     13     1   120.0200517 532.790560
      1      2      3     1   120.0200517 532.790560
     14      1     17     1   119.8800511 375.723200
     13     12     25     1   119.8800511 375.723200
     13     14     26     1   119.8800511 375.723200
     12     11     24     1   119.8800511 375.723200
     11     12     25     1   119.8800511 375.723200
     10     11     24     1   119.8800511 375.723200
     10      9     23     1   119.8800511 375.723200
      9      8     22     1   119.8800511 375.723200
      8      9     23     1   119.8800511 375.723200
      8      7     21     1   119.8800511 375.723200
      7      8     22     1   119.8800511 375.723200
      6      5     20     1   119.8800511 375.723200
      6      7     21     1   119.8800511 375.723200
      5      4     19     1   119.8800511 375.723200
      4      5     20     1   119.8800511 375.723200
      3      4     19     1   119.8800511 375.723200
      3      2     18     1   119.8800511 375.723200
      2      1     17     1   119.8800511 375.723200
      1     14     26     1   119.8800511 375.723200
      1      2     18     1   119.8800511 375.723200

[ dihedrals ]
;    ai     aj     ak     al funct         c0         c1         c2         c3         c4         c5
     14     13     15     16     1  180.0000771  15.1670000  2
     12     11     10     16     1  180.0000771  15.1670000  2
     12     13     15     16     1  180.0000771  15.1670000  2
     11     12     13     15     1  180.0000771  15.1670000  2
     11     12     13     14     1  180.0000771  15.1670000  2
     11     10     16     15     1  180.0000771  15.1670000  2
     10     11     12     13     1  180.0000771  15.1670000  2
     10     16     15     13     1  180.0000771  15.1670000  2
      9     10     11     12     1  180.0000771  15.1670000  2
      9     10     16     15     1  180.0000771  15.1670000  2
      8      9     10     11     1  180.0000771  15.1670000  2
      8      9     10     16     1  180.0000771  15.1670000  2
      8      7      6     16     1  180.0000771  15.1670000  2
      7      6     16     10     1  180.0000771  15.1670000  2
      7      6     16     15     1  180.0000771  15.1670000  2
      7      8      9     10     1  180.0000771  15.1670000  2
      6     16     10     11     1  180.0000771  15.1670000  2
      6     16     10      9     1  180.0000771  15.1670000  2
      6     16     15     13     1  180.0000771  15.1670000  2
      6      7      8      9     1  180.0000771  15.1670000  2
      5      6     16     10     1  180.0000771  15.1670000  2
      5      6     16     15     1  180.0000771  15.1670000  2
      5      6      7      8     1  180.0000771  15.1670000  2
      5      4      3     15     1  180.0000771  15.1670000  2
      4      5      6     16     1  180.0000771  15.1670000  2
      4      5      6      7     1  180.0000771  15.1670000  2
      4      3     15     16     1  180.0000771  15.1670000  2
      4      3     15     13     1  180.0000771  15.1670000  2
      3      4      5      6     1  180.0000771  15.1670000  2
      3     15     16     10     1  180.0000771  15.1670000  2
      3     15     16      6     1  180.0000771  15.1670000  2
      3     15     13     12     1  180.0000771  15.1670000  2
      3     15     13     14     1  180.0000771  15.1670000  2
     14      1      2      3     1  180.0000771  15.1670000  2
      2      3      4      5     1  180.0000771  15.1670000  2
      2      3     15     16     1  180.0000771  15.1670000  2
      2      3     15     13     1  180.0000771  15.1670000  2
      2      1     14     13     1  180.0000771  15.1670000  2
      1     14     13     12     1  180.0000771  15.1670000  2
      1     14     13     15     1  180.0000771  15.1670000  2
      1      2      3      4     1  180.0000771  15.1670000  2
      1      2      3     15     1  180.0000771  15.1670000  2
      6     10     16     15     4  180.0000771  4.6024000  2
      3     13     15     16     4  180.0000771  4.6024000  2
     12     14     13     15     4  180.0000771  4.6024000  2
      9     11     10     16     4  180.0000771  4.6024000  2
      5      7      6     16     4  180.0000771  4.6024000  2
      2      4      3     15     4  180.0000771  4.6024000  2
     24     11     12     25     1  180.0000771  15.1670000  2
     22      8      9     23     1  180.0000771  15.1670000  2
     21      7      8     22     1  180.0000771  15.1670000  2
     19      4      5     20     1  180.0000771  15.1670000  2
     17      1     14     26     1  180.0000771  15.1670000  2
     17      1      2     18     1  180.0000771  15.1670000  2
     16     10     11     24     1  180.0000771  15.1670000  2
     16     10      9     23     1  180.0000771  15.1670000  2
     16      6      5     20     1  180.0000771  15.1670000  2
     16      6      7     21     1  180.0000771  15.1670000  2
     15     13     12     25     1  180.0000771  15.1670000  2
     15     13     14     26     1  180.0000771  15.1670000  2
     15      3      4     19     1  180.0000771  15.1670000  2
     15      3      2     18     1  180.0000771  15.1670000  2
     14     13     12     25     1  180.0000771  15.1670000  2
     14      1      2     18     1  180.0000771  15.1670000  2
     13     12     11     24     1  180.0000771  15.1670000  2
     17      1     14     13     1  180.0000771  15.1670000  2
     12     13     14     26     1  180.0000771  15.1670000  2
     11     10      9     23     1  180.0000771  15.1670000  2
     10     11     12     25     1  180.0000771  15.1670000  2
     10      9      8     22     1  180.0000771  15.1670000  2
      9     10     11     24     1  180.0000771  15.1670000  2
      9      8      7     21     1  180.0000771  15.1670000  2
      7      6      5     20     1  180.0000771  15.1670000  2
      7      8      9     23     1  180.0000771  15.1670000  2
      6      5      4     19     1  180.0000771  15.1670000  2
      6      7      8     22     1  180.0000771  15.1670000  2
      5      6      7     21     1  180.0000771  15.1670000  2
      4      3      2     18     1  180.0000771  15.1670000  2
      3      4      5     20     1  180.0000771  15.1670000  2
     17      1      2      3     1  180.0000771  15.1670000  2
      2      3      4     19     1  180.0000771  15.1670000  2
      2      1     14     26     1  180.0000771  15.1670000  2
      1     13     14     26     4  180.0000771  4.6024000  2
     11     13     12     25     4  180.0000771  4.6024000  2
     10     12     11     24     4  180.0000771  4.6024000  2
      8     10      9     23     4  180.0000771  4.6024000  2
      7      9      8     22     4  180.0000771  4.6024000  2
      6      8      7     21     4  180.0000771  4.6024000  2
      4      6      5     20     4  180.0000771  4.6024000  2
      3      5      4     19     4  180.0000771  4.6024000  2
      1      3      2     18     4  180.0000771  4.6024000  2
     17      1     14      2     4  180.0000771  4.6024000  2


[ moleculetype ]
; Name            nrexcl
system1          3

[ atoms ]
;   nr       type  resnr residue  atom   cgnr    charge       mass  typeB    chargeB      massB
; residue    1 CPH rtp CPH q -0.1
    1         c2      1    CPH     CC      1 -0.40208650  12.010000   ; qtot -0.402087
    2         ha      1    CPH    HC1      2 0.17196000   1.008000   ; qtot -0.230126
    3         ha      1    CPH    HC2      3 0.17196000   1.008000   ; qtot -0.058166
; residue    2 MNF rtp MNF q 0.1
    4          o      2    MNF      O      4 -0.45650150  16.000000   ; qtot -0.514668
    5          c      2    MNF      C      5 0.25903800  12.010000   ; qtot -0.255630
    6         c5      2    MNF     C1      6 0.00310500  12.010000   ; qtot -0.252525
    7         hc      2    MNF      H      7 0.08104550   1.008000   ; qtot -0.171479
    8         c5      2    MNF     C2      8 0.00310500  12.010000   ; qtot -0.168374
    9         c5      2    MNF     C3      9 -0.04055300  12.010000   ; qtot -0.208927
   10         c2      2    MNF     C4     10 -0.10630450  12.010000   ; qtot -0.315232
   11         c5      2    MNF     C6     11 -0.08222800  12.010000   ; qtot -0.397460
   12         c5      2    MNF     C7     12 -0.04055300  12.010000   ; qtot -0.438013
   13         c2      2    MNF     C8     13 -0.16447100  12.010000   ; qtot -0.602484
   14         hc      2    MNF     H1     14 0.08104550   1.008000   ; qtot -0.521438
   15          n      2    MNF      N     15 0.06859500  14.010000   ; qtot -0.452843
   16         c3      2    MNF    C10     16 -0.01288500  12.010000   ; qtot -0.465728
   17         c3      2    MNF    C11     17 -0.01367300  12.010000   ; qtot -0.479401
   18         c3      2    MNF    C12     18 -0.06417100  12.010000   ; qtot -0.543572
   19         c3      2    MNF    C13     19 0.01956300  12.010000   ; qtot -0.524009
   20         os      2    MNF     O1     20 -0.27889500  16.000000   ; qtot -0.802904
   21         c6      2    MNF    C14     21 -0.04220400  12.010000   ; qtot -0.845108
   22         c6      2    MNF    C15     22 -0.01014500  12.010000   ; qtot -0.855253
   23         oh      2    MNF     O2     23 -0.48597100  16.000000   ; qtot -1.341224
   24         c6      2    MNF    C16     24 0.04455800  12.010000   ; qtot -1.296666
   25         c3      2    MNF    C17     25 0.05192000  12.010000   ; qtot -1.244746
   26         oh      2    MNF     O3     26 -0.59730600  16.000000   ; qtot -1.842052
   27         os      2    MNF     O4     27 -0.30787100  16.000000   ; qtot -2.149923
   28         c6      2    MNF    C18     28 0.23610000  12.010000   ; qtot -1.913823
   29         oh      2    MNF     O5     29 -0.60532100  16.000000   ; qtot -2.519145
   30         c6      2    MNF    C19     30 -0.01478700  12.010000   ; qtot -2.533932
   31         oh      2    MNF     O6     31 -0.63066000  16.000000   ; qtot -3.164591
   32          c      2    MNF    C20     32 0.25903800  12.010000   ; qtot -2.905553
   33          o      2    MNF     O7     33 -0.45650150  16.000000   ; qtot -3.362055
   34         hc      2    MNF     H2     34 0.09694350   1.008000   ; qtot -3.265111
   35         ha      2    MNF     H3     35 0.11892750   1.008000   ; qtot -3.146184
   36         hc      2    MNF     H6     36 0.05738100   1.008000   ; qtot -3.088803
   37         hc      2    MNF     H7     37 0.05738100   1.008000   ; qtot -3.031422
   38         hc      2    MNF     H8     38 0.09694350   1.008000   ; qtot -2.934478
   39         ha      2    MNF     H9     39 0.11892750   1.008000   ; qtot -2.815551
   40         h1      2    MNF    H12     40 0.05160700   1.008000   ; qtot -2.763944
   41         h1      2    MNF    H13     41 0.05160700   1.008000   ; qtot -2.712337
   42         hc      2    MNF    H14     42 0.03111200   1.008000   ; qtot -2.681225
   43         hc      2    MNF    H15     43 0.03111200   1.008000   ; qtot -2.650113
   44         hc      2    MNF    H16     44 0.03512800   1.008000   ; qtot -2.614985
   45         hc      2    MNF    H17     45 0.03512800   1.008000   ; qtot -2.579857
   46         h1      2    MNF    H18     46 0.05619800   1.008000   ; qtot -2.523659
   47         h1      2    MNF    H19     47 0.05619800   1.008000   ; qtot -2.467461
   48         h1      2    MNF    H20     48 0.13651300   1.008000   ; qtot -2.330948
   49         h1      2    MNF    H21     49 0.15019400   1.008000   ; qtot -2.180754
   50         ho      2    MNF    H22     50 0.37534200   1.008000   ; qtot -1.805412
   51         h1      2    MNF    H23     51 0.11149400   1.008000   ; qtot -1.693918
   52         h1      2    MNF    H24     52 0.08981300   1.008000   ; qtot -1.604105
   53         h1      2    MNF    H25     53 0.08981300   1.008000   ; qtot -1.514292
   54         ho      2    MNF    H26     54 0.37077800   1.008000   ; qtot -1.143514
   55         h2      2    MNF    H27     55 0.10730400   1.008000   ; qtot -1.036210
   56         ho      2    MNF    H28     56 0.44626500   1.008000   ; qtot -0.589945
   57         h1      2    MNF    H29     57 0.14014100   1.008000   ; qtot -0.449804
   58         ho      2    MNF    H30     58 0.44980400   1.008000   ; qtot 0.000000
; residue    3 MON rtp MON q 0.0
   59          o      3    MON      O     59 -0.45650150  16.000000   ; qtot -0.456501
   60          c      3    MON      C     60 0.25903800  12.010000   ; qtot -0.197463
   61         c5      3    MON     C1     61 0.00310500  12.010000   ; qtot -0.194358
   62         hc      3    MON      H     62 0.08104550   1.008000   ; qtot -0.113313
   63         c5      3    MON     C2     63 0.00310500  12.010000   ; qtot -0.110208
   64         c5      3    MON     C3     64 -0.04055300  12.010000   ; qtot -0.150761
   65         c2      3    MON     C4     65 -0.16447100  12.010000   ; qtot -0.315232
   66         c5      3    MON     C6     66 -0.08222800  12.010000   ; qtot -0.397460
   67         c5      3    MON     C7     67 -0.04055300  12.010000   ; qtot -0.438013
   68         c2      3    MON     C8     68 -0.16447100  12.010000   ; qtot -0.602484
   69         hc      3    MON     H1     69 0.08104550   1.008000   ; qtot -0.521438
   70          n      3    MON      N     70 0.06859500  14.010000   ; qtot -0.452843
   71         c3      3    MON    C10     71 -0.01288500  12.010000   ; qtot -0.465728
   72         c3      3    MON    C11     72 -0.01367300  12.010000   ; qtot -0.479401
   73         c3      3    MON    C12     73 -0.06417100  12.010000   ; qtot -0.543572
   74         c3      3    MON    C13     74 0.01956300  12.010000   ; qtot -0.524009
   75         os      3    MON     O1     75 -0.27889500  16.000000   ; qtot -0.802904
   76         c6      3    MON    C14     76 -0.04220400  12.010000   ; qtot -0.845108
   77         c6      3    MON    C15     77 -0.01014500  12.010000   ; qtot -0.855253
   78         oh      3    MON     O2     78 -0.48597100  16.000000   ; qtot -1.341224
   79         c6      3    MON    C16     79 0.04455800  12.010000   ; qtot -1.296666
   80         c3      3    MON    C17     80 0.05192000  12.010000   ; qtot -1.244746
   81         oh      3    MON     O3     81 -0.59730600  16.000000   ; qtot -1.842052
   82         os      3    MON     O4     82 -0.30787100  16.000000   ; qtot -2.149923
   83         c6      3    MON    C18     83 0.23610000  12.010000   ; qtot -1.913823
   84         oh      3    MON     O5     84 -0.60532100  16.000000   ; qtot -2.519144
   85         c6      3    MON    C19     85 -0.01478700  12.010000   ; qtot -2.533931
   86         oh      3    MON     O6     86 -0.63066000  16.000000   ; qtot -3.164591
   87          c      3    MON    C20     87 0.25903800  12.010000   ; qtot -2.905553
   88          o      3    MON     O7     88 -0.45650150  16.000000   ; qtot -3.362055
   89         hc      3    MON     H2     89 0.09694350   1.008000   ; qtot -3.265111
   90         ha      3    MON     H3     90 0.11892750   1.008000   ; qtot -3.146184
   91         hc      3    MON     H6     91 0.05738100   1.008000   ; qtot -3.088803
   92         hc      3    MON     H7     92 0.05738100   1.008000   ; qtot -3.031422
   93         hc      3    MON     H8     93 0.09694350   1.008000   ; qtot -2.934478
   94         ha      3    MON     H9     94 0.11892750   1.008000   ; qtot -2.815551
   95         h1      3    MON    H12     95 0.05160700   1.008000   ; qtot -2.763944
   96         h1      3    MON    H13     96 0.05160700   1.008000   ; qtot -2.712337
   97         hc      3    MON    H14     97 0.03111200   1.008000   ; qtot -2.681225
   98         hc      3    MON    H15     98 0.03111200   1.008000   ; qtot -2.650113
   99         hc      3    MON    H16     99 0.03512800   1.008000   ; qtot -2.614985
  100         hc      3    MON    H17    100 0.03512800   1.008000   ; qtot -2.579857
  101         h1      3    MON    H18    101 0.05619800   1.008000   ; qtot -2.523659
  102         h1      3    MON    H19    102 0.05619800   1.008000   ; qtot -2.467461
  103         h1      3    MON    H20    103 0.13651300   1.008000   ; qtot -2.330948
  104         h1      3    MON    H21    104 0.15019400   1.008000   ; qtot -2.180754
  105         ho      3    MON    H22    105 0.37534200   1.008000   ; qtot -1.805412
  106         h1      3    MON    H23    106 0.11149400   1.008000   ; qtot -1.693918
  107         h1      3    MON    H24    107 0.08981300   1.008000   ; qtot -1.604105
  108         h1      3    MON    H25    108 0.08981300   1.008000   ; qtot -1.514292
  109         ho      3    MON    H26    109 0.37077800   1.008000   ; qtot -1.143514
  110         h2      3    MON    H27    110 0.10730400   1.008000   ; qtot -1.036210
  111         ho      3    MON    H28    111 0.44626500   1.008000   ; qtot -0.589945
  112         h1      3    MON    H29    112 0.14014100   1.008000   ; qtot -0.449804
  113         ho      3    MON    H30    113 0.44980400   1.008000   ; qtot 0.000000
; residue    4 MON rtp MON q 0.0
  114          o      4    MON      O    114 -0.45650150  16.000000   ; qtot -0.456501
  115          c      4    MON      C    115 0.25903800  12.010000   ; qtot -0.197463
  116         c5      4    MON     C1    116 0.00310500  12.010000   ; qtot -0.194358
  117         hc      4    MON      H    117 0.08104550   1.008000   ; qtot -0.113313
  118         c5      4    MON     C2    118 0.00310500  12.010000   ; qtot -0.110208
  119         c5      4    MON     C3    119 -0.04055300  12.010000   ; qtot -0.150761
  120         c2      4    MON     C4    120 -0.16447100  12.010000   ; qtot -0.315232
  121         c5      4    MON     C6    121 -0.08222800  12.010000   ; qtot -0.397460
  122         c5      4    MON     C7    122 -0.04055300  12.010000   ; qtot -0.438013
  123         c2      4    MON     C8    123 -0.16447100  12.010000   ; qtot -0.602484
  124         hc      4    MON     H1    124 0.08104550   1.008000   ; qtot -0.521438
  125          n      4    MON      N    125 0.06859500  14.010000   ; qtot -0.452843
  126         c3      4    MON    C10    126 -0.01288500  12.010000   ; qtot -0.465728
  127         c3      4    MON    C11    127 -0.01367300  12.010000   ; qtot -0.479401
  128         c3      4    MON    C12    128 -0.06417100  12.010000   ; qtot -0.543572
  129         c3      4    MON    C13    129 0.01956300  12.010000   ; qtot -0.524009
  130         os      4    MON     O1    130 -0.27889500  16.000000   ; qtot -0.802904
  131         c6      4    MON    C14    131 -0.04220400  12.010000   ; qtot -0.845108
  132         c6      4    MON    C15    132 -0.01014500  12.010000   ; qtot -0.855253
  133         oh      4    MON     O2    133 -0.48597100  16.000000   ; qtot -1.341224
  134         c6      4    MON    C16    134 0.04455800  12.010000   ; qtot -1.296666
  135         c3      4    MON    C17    135 0.05192000  12.010000   ; qtot -1.244746
  136         oh      4    MON     O3    136 -0.59730600  16.000000   ; qtot -1.842052
  137         os      4    MON     O4    137 -0.30787100  16.000000   ; qtot -2.149923
  138         c6      4    MON    C18    138 0.23610000  12.010000   ; qtot -1.913823
  139         oh      4    MON     O5    139 -0.60532100  16.000000   ; qtot -2.519144
  140         c6      4    MON    C19    140 -0.01478700  12.010000   ; qtot -2.533931
  141         oh      4    MON     O6    141 -0.63066000  16.000000   ; qtot -3.164591
  142          c      4    MON    C20    142 0.25903800  12.010000   ; qtot -2.905553
  143          o      4    MON     O7    143 -0.45650150  16.000000   ; qtot -3.362055
  144         hc      4    MON     H2    144 0.09694350   1.008000   ; qtot -3.265111
  145         ha      4    MON     H3    145 0.11892750   1.008000   ; qtot -3.146184
  146         hc      4    MON     H6    146 0.05738100   1.008000   ; qtot -3.088803
  147         hc      4    MON     H7    147 0.05738100   1.008000   ; qtot -3.031422
  148         hc      4    MON     H8    148 0.09694350   1.008000   ; qtot -2.934478
  149         ha      4    MON     H9    149 0.11892750   1.008000   ; qtot -2.815551
  150         h1      4    MON    H12    150 0.05160700   1.008000   ; qtot -2.763944
  151         h1      4    MON    H13    151 0.05160700   1.008000   ; qtot -2.712337
  152         hc      4    MON    H14    152 0.03111200   1.008000   ; qtot -2.681225
  153         hc      4    MON    H15    153 0.03111200   1.008000   ; qtot -2.650113
  154         hc      4    MON    H16    154 0.03512800   1.008000   ; qtot -2.614985
  155         hc      4    MON    H17    155 0.03512800   1.008000   ; qtot -2.579857
  156         h1      4    MON    H18    156 0.05619800   1.008000   ; qtot -2.523659
  157         h1      4    MON    H19    157 0.05619800   1.008000   ; qtot -2.467461
  158         h1      4    MON    H20    158 0.13651300   1.008000   ; qtot -2.330948
  159         h1      4    MON    H21    159 0.15019400   1.008000   ; qtot -2.180754
  160         ho      4    MON    H22    160 0.37534200   1.008000   ; qtot -1.805412
  161         h1      4    MON    H23    161 0.11149400   1.008000   ; qtot -1.693918
  162         h1      4    MON    H24    162 0.08981300   1.008000   ; qtot -1.604105
  163         h1      4    MON    H25    163 0.08981300   1.008000   ; qtot -1.514292
  164         ho      4    MON    H26    164 0.37077800   1.008000   ; qtot -1.143514
  165         h2      4    MON    H27    165 0.10730400   1.008000   ; qtot -1.036210
  166         ho      4    MON    H28    166 0.44626500   1.008000   ; qtot -0.589945
  167         h1      4    MON    H29    167 0.14014100   1.008000   ; qtot -0.449804
  168         ho      4    MON    H30    168 0.44980400   1.008000   ; qtot 0.000000
; residue    5 MON rtp MON q 0.0
  169          o      5    MON      O    169 -0.45650150  16.000000   ; qtot -0.456501
  170          c      5    MON      C    170 0.25903800  12.010000   ; qtot -0.197463
  171         c5      5    MON     C1    171 0.00310500  12.010000   ; qtot -0.194358
  172         hc      5    MON      H    172 0.08104550   1.008000   ; qtot -0.113313
  173         c5      5    MON     C2    173 0.00310500  12.010000   ; qtot -0.110208
  174         c5      5    MON     C3    174 -0.04055300  12.010000   ; qtot -0.150761
  175         c2      5    MON     C4    175 -0.16447100  12.010000   ; qtot -0.315232
  176         c5      5    MON     C6    176 -0.08222800  12.010000   ; qtot -0.397460
  177         c5      5    MON     C7    177 -0.04055300  12.010000   ; qtot -0.438013
  178         c2      5    MON     C8    178 -0.16447100  12.010000   ; qtot -0.602484
  179         hc      5    MON     H1    179 0.08104550   1.008000   ; qtot -0.521438
  180          n      5    MON      N    180 0.06859500  14.010000   ; qtot -0.452843
  181         c3      5    MON    C10    181 -0.01288500  12.010000   ; qtot -0.465728
  182         c3      5    MON    C11    182 -0.01367300  12.010000   ; qtot -0.479401
  183         c3      5    MON    C12    183 -0.06417100  12.010000   ; qtot -0.543572
  184         c3      5    MON    C13    184 0.01956300  12.010000   ; qtot -0.524009
  185         os      5    MON     O1    185 -0.27889500  16.000000   ; qtot -0.802904
  186         c6      5    MON    C14    186 -0.04220400  12.010000   ; qtot -0.845108
  187         c6      5    MON    C15    187 -0.01014500  12.010000   ; qtot -0.855253
  188         oh      5    MON     O2    188 -0.48597100  16.000000   ; qtot -1.341224
  189         c6      5    MON    C16    189 0.04455800  12.010000   ; qtot -1.296666
  190         c3      5    MON    C17    190 0.05192000  12.010000   ; qtot -1.244746
  191         oh      5    MON     O3    191 -0.59730600  16.000000   ; qtot -1.842052
  192         os      5    MON     O4    192 -0.30787100  16.000000   ; qtot -2.149923
  193         c6      5    MON    C18    193 0.23610000  12.010000   ; qtot -1.913823
  194         oh      5    MON     O5    194 -0.60532100  16.000000   ; qtot -2.519144
  195         c6      5    MON    C19    195 -0.01478700  12.010000   ; qtot -2.533931
  196         oh      5    MON     O6    196 -0.63066000  16.000000   ; qtot -3.164591
  197          c      5    MON    C20    197 0.25903800  12.010000   ; qtot -2.905553
  198          o      5    MON     O7    198 -0.45650150  16.000000   ; qtot -3.362055
  199         hc      5    MON     H2    199 0.09694350   1.008000   ; qtot -3.265111
  200         ha      5    MON     H3    200 0.11892750   1.008000   ; qtot -3.146184
  201         hc      5    MON     H6    201 0.05738100   1.008000   ; qtot -3.088803
  202         hc      5    MON     H7    202 0.05738100   1.008000   ; qtot -3.031422
  203         hc      5    MON     H8    203 0.09694350   1.008000   ; qtot -2.934478
  204         ha      5    MON     H9    204 0.11892750   1.008000   ; qtot -2.815551
  205         h1      5    MON    H12    205 0.05160700   1.008000   ; qtot -2.763944
  206         h1      5    MON    H13    206 0.05160700   1.008000   ; qtot -2.712337
  207         hc      5    MON    H14    207 0.03111200   1.008000   ; qtot -2.681225
  208         hc      5    MON    H15    208 0.03111200   1.008000   ; qtot -2.650113
  209         hc      5    MON    H16    209 0.03512800   1.008000   ; qtot -2.614985
  210         hc      5    MON    H17    210 0.03512800   1.008000   ; qtot -2.579857
  211         h1      5    MON    H18    211 0.05619800   1.008000   ; qtot -2.523659
  212         h1      5    MON    H19    212 0.05619800   1.008000   ; qtot -2.467461
  213         h1      5    MON    H20    213 0.13651300   1.008000   ; qtot -2.330948
  214         h1      5    MON    H21    214 0.15019400   1.008000   ; qtot -2.180754
  215         ho      5    MON    H22    215 0.37534200   1.008000   ; qtot -1.805412
  216         h1      5    MON    H23    216 0.11149400   1.008000   ; qtot -1.693918
  217         h1      5    MON    H24    217 0.08981300   1.008000   ; qtot -1.604105
  218         h1      5    MON    H25    218 0.08981300   1.008000   ; qtot -1.514292
  219         ho      5    MON    H26    219 0.37077800   1.008000   ; qtot -1.143514
  220         h2      5    MON    H27    220 0.10730400   1.008000   ; qtot -1.036210
  221         ho      5    MON    H28    221 0.44626500   1.008000   ; qtot -0.589945
  222         h1      5    MON    H29    222 0.14014100   1.008000   ; qtot -0.449804
  223         ho      5    MON    H30    223 0.44980400   1.008000   ; qtot 0.000000
; residue    6 MON rtp MON q 0.0
  224          o      6    MON      O    224 -0.45650150  16.000000   ; qtot -0.456501
  225          c      6    MON      C    225 0.25903800  12.010000   ; qtot -0.197463
  226         c5      6    MON     C1    226 0.00310500  12.010000   ; qtot -0.194358
  227         hc      6    MON      H    227 0.08104550   1.008000   ; qtot -0.113313
  228         c5      6    MON     C2    228 0.00310500  12.010000   ; qtot -0.110208
  229         c5      6    MON     C3    229 -0.04055300  12.010000   ; qtot -0.150761
  230         c2      6    MON     C4    230 -0.16447100  12.010000   ; qtot -0.315232
  231         c5      6    MON     C6    231 -0.08222800  12.010000   ; qtot -0.397460
  232         c5      6    MON     C7    232 -0.04055300  12.010000   ; qtot -0.438013
  233         c2      6    MON     C8    233 -0.16447100  12.010000   ; qtot -0.602484
  234         hc      6    MON     H1    234 0.08104550   1.008000   ; qtot -0.521438
  235          n      6    MON      N    235 0.06859500  14.010000   ; qtot -0.452843
  236         c3      6    MON    C10    236 -0.01288500  12.010000   ; qtot -0.465728
  237         c3      6    MON    C11    237 -0.01367300  12.010000   ; qtot -0.479401
  238         c3      6    MON    C12    238 -0.06417100  12.010000   ; qtot -0.543572
  239         c3      6    MON    C13    239 0.01956300  12.010000   ; qtot -0.524009
  240         os      6    MON     O1    240 -0.27889500  16.000000   ; qtot -0.802904
  241         c6      6    MON    C14    241 -0.04220400  12.010000   ; qtot -0.845108
  242         c6      6    MON    C15    242 -0.01014500  12.010000   ; qtot -0.855253
  243         oh      6    MON     O2    243 -0.48597100  16.000000   ; qtot -1.341224
  244         c6      6    MON    C16    244 0.04455800  12.010000   ; qtot -1.296666
  245         c3      6    MON    C17    245 0.05192000  12.010000   ; qtot -1.244746
  246         oh      6    MON     O3    246 -0.59730600  16.000000   ; qtot -1.842052
  247         os      6    MON     O4    247 -0.30787100  16.000000   ; qtot -2.149923
  248         c6      6    MON    C18    248 0.23610000  12.010000   ; qtot -1.913823
  249         oh      6    MON     O5    249 -0.60532100  16.000000   ; qtot -2.519144
  250         c6      6    MON    C19    250 -0.01478700  12.010000   ; qtot -2.533931
  251         oh      6    MON     O6    251 -0.63066000  16.000000   ; qtot -3.164591
  252          c      6    MON    C20    252 0.25903800  12.010000   ; qtot -2.905553
  253          o      6    MON     O7    253 -0.45650150  16.000000   ; qtot -3.362055
  254         hc      6    MON     H2    254 0.09694350   1.008000   ; qtot -3.265111
  255         ha      6    MON     H3    255 0.11892750   1.008000   ; qtot -3.146184
  256         hc      6    MON     H6    256 0.05738100   1.008000   ; qtot -3.088803
  257         hc      6    MON     H7    257 0.05738100   1.008000   ; qtot -3.031422
  258         hc      6    MON     H8    258 0.09694350   1.008000   ; qtot -2.934478
  259         ha      6    MON     H9    259 0.11892750   1.008000   ; qtot -2.815551
  260         h1      6    MON    H12    260 0.05160700   1.008000   ; qtot -2.763944
  261         h1      6    MON    H13    261 0.05160700   1.008000   ; qtot -2.712337
  262         hc      6    MON    H14    262 0.03111200   1.008000   ; qtot -2.681225
  263         hc      6    MON    H15    263 0.03111200   1.008000   ; qtot -2.650113
  264         hc      6    MON    H16    264 0.03512800   1.008000   ; qtot -2.614985
  265         hc      6    MON    H17    265 0.03512800   1.008000   ; qtot -2.579857
  266         h1      6    MON    H18    266 0.05619800   1.008000   ; qtot -2.523659
  267         h1      6    MON    H19    267 0.05619800   1.008000   ; qtot -2.467461
  268         h1      6    MON    H20    268 0.13651300   1.008000   ; qtot -2.330948
  269         h1      6    MON    H21    269 0.15019400   1.008000   ; qtot -2.180754
  270         ho      6    MON    H22    270 0.37534200   1.008000   ; qtot -1.805412
  271         h1      6    MON    H23    271 0.11149400   1.008000   ; qtot -1.693918
  272         h1      6    MON    H24    272 0.08981300   1.008000   ; qtot -1.604105
  273         h1      6    MON    H25    273 0.08981300   1.008000   ; qtot -1.514292
  274         ho      6    MON    H26    274 0.37077800   1.008000   ; qtot -1.143514
  275         h2      6    MON    H27    275 0.10730400   1.008000   ; qtot -1.036210
  276         ho      6    MON    H28    276 0.44626500   1.008000   ; qtot -0.589945
  277         h1      6    MON    H29    277 0.14014100   1.008000   ; qtot -0.449804
  278         ho      6    MON    H30    278 0.44980400   1.008000   ; qtot 0.000000
; residue    7 MON rtp MON q 0.0
  279          o      7    MON      O    279 -0.45650150  16.000000   ; qtot -0.456501
  280          c      7    MON      C    280 0.25903800  12.010000   ; qtot -0.197463
  281         c5      7    MON     C1    281 0.00310500  12.010000   ; qtot -0.194358
  282         hc      7    MON      H    282 0.08104550   1.008000   ; qtot -0.113313
  283         c5      7    MON     C2    283 0.00310500  12.010000   ; qtot -0.110208
  284         c5      7    MON     C3    284 -0.04055300  12.010000   ; qtot -0.150761
  285         c2      7    MON     C4    285 -0.16447100  12.010000   ; qtot -0.315232
  286         c5      7    MON     C6    286 -0.08222800  12.010000   ; qtot -0.397460
  287         c5      7    MON     C7    287 -0.04055300  12.010000   ; qtot -0.438013
  288         c2      7    MON     C8    288 -0.16447100  12.010000   ; qtot -0.602484
  289         hc      7    MON     H1    289 0.08104550   1.008000   ; qtot -0.521438
  290          n      7    MON      N    290 0.06859500  14.010000   ; qtot -0.452843
  291         c3      7    MON    C10    291 -0.01288500  12.010000   ; qtot -0.465728
  292         c3      7    MON    C11    292 -0.01367300  12.010000   ; qtot -0.479401
  293         c3      7    MON    C12    293 -0.06417100  12.010000   ; qtot -0.543572
  294         c3      7    MON    C13    294 0.01956300  12.010000   ; qtot -0.524009
  295         os      7    MON     O1    295 -0.27889500  16.000000   ; qtot -0.802904
  296         c6      7    MON    C14    296 -0.04220400  12.010000   ; qtot -0.845108
  297         c6      7    MON    C15    297 -0.01014500  12.010000   ; qtot -0.855253
  298         oh      7    MON     O2    298 -0.48597100  16.000000   ; qtot -1.341224
  299         c6      7    MON    C16    299 0.04455800  12.010000   ; qtot -1.296666
  300         c3      7    MON    C17    300 0.05192000  12.010000   ; qtot -1.244746
  301         oh      7    MON     O3    301 -0.59730600  16.000000   ; qtot -1.842052
  302         os      7    MON     O4    302 -0.30787100  16.000000   ; qtot -2.149923
  303         c6      7    MON    C18    303 0.23610000  12.010000   ; qtot -1.913823
  304         oh      7    MON     O5    304 -0.60532100  16.000000   ; qtot -2.519144
  305         c6      7    MON    C19    305 -0.01478700  12.010000   ; qtot -2.533931
  306         oh      7    MON     O6    306 -0.63066000  16.000000   ; qtot -3.164591
  307          c      7    MON    C20    307 0.25903800  12.010000   ; qtot -2.905553
  308          o      7    MON     O7    308 -0.45650150  16.000000   ; qtot -3.362055
  309         hc      7    MON     H2    309 0.09694350   1.008000   ; qtot -3.265111
  310         ha      7    MON     H3    310 0.11892750   1.008000   ; qtot -3.146184
  311         hc      7    MON     H6    311 0.05738100   1.008000   ; qtot -3.088803
  312         hc      7    MON     H7    312 0.05738100   1.008000   ; qtot -3.031422
  313         hc      7    MON     H8    313 0.09694350   1.008000   ; qtot -2.934478
  314         ha      7    MON     H9    314 0.11892750   1.008000   ; qtot -2.815551
  315         h1      7    MON    H12    315 0.05160700   1.008000   ; qtot -2.763944
  316         h1      7    MON    H13    316 0.05160700   1.008000   ; qtot -2.712337
  317         hc      7    MON    H14    317 0.03111200   1.008000   ; qtot -2.681225
  318         hc      7    MON    H15    318 0.03111200   1.008000   ; qtot -2.650113
  319         hc      7    MON    H16    319 0.03512800   1.008000   ; qtot -2.614985
  320         hc      7    MON    H17    320 0.03512800   1.008000   ; qtot -2.579857
  321         h1      7    MON    H18    321 0.05619800   1.008000   ; qtot -2.523659
  322         h1      7    MON    H19    322 0.05619800   1.008000   ; qtot -2.467461
  323         h1      7    MON    H20    323 0.13651300   1.008000   ; qtot -2.330948
  324         h1      7    MON    H21    324 0.15019400   1.008000   ; qtot -2.180754
  325         ho      7    MON    H22    325 0.37534200   1.008000   ; qtot -1.805412
  326         h1      7    MON    H23    326 0.11149400   1.008000   ; qtot -1.693918
  327         h1      7    MON    H24    327 0.08981300   1.008000   ; qtot -1.604105
  328         h1      7    MON    H25    328 0.08981300   1.008000   ; qtot -1.514292
  329         ho      7    MON    H26    329 0.37077800   1.008000   ; qtot -1.143514
  330         h2      7    MON    H27    330 0.10730400   1.008000   ; qtot -1.036210
  331         ho      7    MON    H28    331 0.44626500   1.008000   ; qtot -0.589945
  332         h1      7    MON    H29    332 0.14014100   1.008000   ; qtot -0.449804
  333         ho      7    MON    H30    333 0.44980400   1.008000   ; qtot 0.000000
; residue    8 MON rtp MON q 0.0
  334          o      8    MON      O    334 -0.45650150  16.000000   ; qtot -0.456501
  335          c      8    MON      C    335 0.25903800  12.010000   ; qtot -0.197463
  336         c5      8    MON     C1    336 0.00310500  12.010000   ; qtot -0.194358
  337         hc      8    MON      H    337 0.08104550   1.008000   ; qtot -0.113313
  338         c5      8    MON     C2    338 0.00310500  12.010000   ; qtot -0.110208
  339         c5      8    MON     C3    339 -0.04055300  12.010000   ; qtot -0.150761
  340         c2      8    MON     C4    340 -0.16447100  12.010000   ; qtot -0.315232
  341         c5      8    MON     C6    341 -0.08222800  12.010000   ; qtot -0.397460
  342         c5      8    MON     C7    342 -0.04055300  12.010000   ; qtot -0.438013
  343         c2      8    MON     C8    343 -0.16447100  12.010000   ; qtot -0.602484
  344         hc      8    MON     H1    344 0.08104550   1.008000   ; qtot -0.521438
  345          n      8    MON      N    345 0.06859500  14.010000   ; qtot -0.452843
  346         c3      8    MON    C10    346 -0.01288500  12.010000   ; qtot -0.465728
  347         c3      8    MON    C11    347 -0.01367300  12.010000   ; qtot -0.479401
  348         c3      8    MON    C12    348 -0.06417100  12.010000   ; qtot -0.543572
  349         c3      8    MON    C13    349 0.01956300  12.010000   ; qtot -0.524009
  350         os      8    MON     O1    350 -0.27889500  16.000000   ; qtot -0.802904
  351         c6      8    MON    C14    351 -0.04220400  12.010000   ; qtot -0.845108
  352         c6      8    MON    C15    352 -0.01014500  12.010000   ; qtot -0.855253
  353         oh      8    MON     O2    353 -0.48597100  16.000000   ; qtot -1.341224
  354         c6      8    MON    C16    354 0.04455800  12.010000   ; qtot -1.296666
  355         c3      8    MON    C17    355 0.05192000  12.010000   ; qtot -1.244746
  356         oh      8    MON     O3    356 -0.59730600  16.000000   ; qtot -1.842052
  357         os      8    MON     O4    357 -0.30787100  16.000000   ; qtot -2.149923
  358         c6      8    MON    C18    358 0.23610000  12.010000   ; qtot -1.913823
  359         oh      8    MON     O5    359 -0.60532100  16.000000   ; qtot -2.519144
  360         c6      8    MON    C19    360 -0.01478700  12.010000   ; qtot -2.533931
  361         oh      8    MON     O6    361 -0.63066000  16.000000   ; qtot -3.164591
  362          c      8    MON    C20    362 0.25903800  12.010000   ; qtot -2.905553
  363          o      8    MON     O7    363 -0.45650150  16.000000   ; qtot -3.362055
  364         hc      8    MON     H2    364 0.09694350   1.008000   ; qtot -3.265111
  365         ha      8    MON     H3    365 0.11892750   1.008000   ; qtot -3.146184
  366         hc      8    MON     H6    366 0.05738100   1.008000   ; qtot -3.088803
  367         hc      8    MON     H7    367 0.05738100   1.008000   ; qtot -3.031422
  368         hc      8    MON     H8    368 0.09694350   1.008000   ; qtot -2.934478
  369         ha      8    MON     H9    369 0.11892750   1.008000   ; qtot -2.815551
  370         h1      8    MON    H12    370 0.05160700   1.008000   ; qtot -2.763944
  371         h1      8    MON    H13    371 0.05160700   1.008000   ; qtot -2.712337
  372         hc      8    MON    H14    372 0.03111200   1.008000   ; qtot -2.681225
  373         hc      8    MON    H15    373 0.03111200   1.008000   ; qtot -2.650113
  374         hc      8    MON    H16    374 0.03512800   1.008000   ; qtot -2.614985
  375         hc      8    MON    H17    375 0.03512800   1.008000   ; qtot -2.579857
  376         h1      8    MON    H18    376 0.05619800   1.008000   ; qtot -2.523659
  377         h1      8    MON    H19    377 0.05619800   1.008000   ; qtot -2.467461
  378         h1      8    MON    H20    378 0.13651300   1.008000   ; qtot -2.330948
  379         h1      8    MON    H21    379 0.15019400   1.008000   ; qtot -2.180754
  380         ho      8    MON    H22    380 0.37534200   1.008000   ; qtot -1.805412
  381         h1      8    MON    H23    381 0.11149400   1.008000   ; qtot -1.693918
  382         h1      8    MON    H24    382 0.08981300   1.008000   ; qtot -1.604105
  383         h1      8    MON    H25    383 0.08981300   1.008000   ; qtot -1.514292
  384         ho      8    MON    H26    384 0.37077800   1.008000   ; qtot -1.143514
  385         h2      8    MON    H27    385 0.10730400   1.008000   ; qtot -1.036210
  386         ho      8    MON    H28    386 0.44626500   1.008000   ; qtot -0.589945
  387         h1      8    MON    H29    387 0.14014100   1.008000   ; qtot -0.449804
  388         ho      8    MON    H30    388 0.44980400   1.008000   ; qtot 0.000000
; residue    9 MON rtp MON q 0.0
  389          o      9    MON      O    389 -0.45650150  16.000000   ; qtot -0.456501
  390          c      9    MON      C    390 0.25903800  12.010000   ; qtot -0.197463
  391         c5      9    MON     C1    391 0.00310500  12.010000   ; qtot -0.194358
  392         hc      9    MON      H    392 0.08104550   1.008000   ; qtot -0.113313
  393         c5      9    MON     C2    393 0.00310500  12.010000   ; qtot -0.110208
  394         c5      9    MON     C3    394 -0.04055300  12.010000   ; qtot -0.150761
  395         c2      9    MON     C4    395 -0.16447100  12.010000   ; qtot -0.315232
  396         c5      9    MON     C6    396 -0.08222800  12.010000   ; qtot -0.397460
  397         c5      9    MON     C7    397 -0.04055300  12.010000   ; qtot -0.438013
  398         c2      9    MON     C8    398 -0.16447100  12.010000   ; qtot -0.602484
  399         hc      9    MON     H1    399 0.08104550   1.008000   ; qtot -0.521438
  400          n      9    MON      N    400 0.06859500  14.010000   ; qtot -0.452843
  401         c3      9    MON    C10    401 -0.01288500  12.010000   ; qtot -0.465728
  402         c3      9    MON    C11    402 -0.01367300  12.010000   ; qtot -0.479401
  403         c3      9    MON    C12    403 -0.06417100  12.010000   ; qtot -0.543572
  404         c3      9    MON    C13    404 0.01956300  12.010000   ; qtot -0.524009
  405         os      9    MON     O1    405 -0.27889500  16.000000   ; qtot -0.802904
  406         c6      9    MON    C14    406 -0.04220400  12.010000   ; qtot -0.845108
  407         c6      9    MON    C15    407 -0.01014500  12.010000   ; qtot -0.855253
  408         oh      9    MON     O2    408 -0.48597100  16.000000   ; qtot -1.341224
  409         c6      9    MON    C16    409 0.04455800  12.010000   ; qtot -1.296666
  410         c3      9    MON    C17    410 0.05192000  12.010000   ; qtot -1.244746
  411         oh      9    MON     O3    411 -0.59730600  16.000000   ; qtot -1.842052
  412         os      9    MON     O4    412 -0.30787100  16.000000   ; qtot -2.149923
  413         c6      9    MON    C18    413 0.23610000  12.010000   ; qtot -1.913823
  414         oh      9    MON     O5    414 -0.60532100  16.000000   ; qtot -2.519144
  415         c6      9    MON    C19    415 -0.01478700  12.010000   ; qtot -2.533931
  416         oh      9    MON     O6    416 -0.63066000  16.000000   ; qtot -3.164591
  417          c      9    MON    C20    417 0.25903800  12.010000   ; qtot -2.905553
  418          o      9    MON     O7    418 -0.45650150  16.000000   ; qtot -3.362055
  419         hc      9    MON     H2    419 0.09694350   1.008000   ; qtot -3.265111
  420         ha      9    MON     H3    420 0.11892750   1.008000   ; qtot -3.146184
  421         hc      9    MON     H6    421 0.05738100   1.008000   ; qtot -3.088803
  422         hc      9    MON     H7    422 0.05738100   1.008000   ; qtot -3.031422
  423         hc      9    MON     H8    423 0.09694350   1.008000   ; qtot -2.934478
  424         ha      9    MON     H9    424 0.11892750   1.008000   ; qtot -2.815551
  425         h1      9    MON    H12    425 0.05160700   1.008000   ; qtot -2.763944
  426         h1      9    MON    H13    426 0.05160700   1.008000   ; qtot -2.712337
  427         hc      9    MON    H14    427 0.03111200   1.008000   ; qtot -2.681225
  428         hc      9    MON    H15    428 0.03111200   1.008000   ; qtot -2.650113
  429         hc      9    MON    H16    429 0.03512800   1.008000   ; qtot -2.614985
  430         hc      9    MON    H17    430 0.03512800   1.008000   ; qtot -2.579857
  431         h1      9    MON    H18    431 0.05619800   1.008000   ; qtot -2.523659
  432         h1      9    MON    H19    432 0.05619800   1.008000   ; qtot -2.467461
  433         h1      9    MON    H20    433 0.13651300   1.008000   ; qtot -2.330948
  434         h1      9    MON    H21    434 0.15019400   1.008000   ; qtot -2.180754
  435         ho      9    MON    H22    435 0.37534200   1.008000   ; qtot -1.805412
  436         h1      9    MON    H23    436 0.11149400   1.008000   ; qtot -1.693918
  437         h1      9    MON    H24    437 0.08981300   1.008000   ; qtot -1.604105
  438         h1      9    MON    H25    438 0.08981300   1.008000   ; qtot -1.514292
  439         ho      9    MON    H26    439 0.37077800   1.008000   ; qtot -1.143514
  440         h2      9    MON    H27    440 0.10730400   1.008000   ; qtot -1.036210
  441         ho      9    MON    H28    441 0.44626500   1.008000   ; qtot -0.589945
  442         h1      9    MON    H29    442 0.14014100   1.008000   ; qtot -0.449804
  443         ho      9    MON    H30    443 0.44980400   1.008000   ; qtot 0.000000
; residue   10 MON rtp MON q 0.0
  444          o     10    MON      O    444 -0.45650150  16.000000   ; qtot -0.456501
  445          c     10    MON      C    445 0.25903800  12.010000   ; qtot -0.197463
  446         c5     10    MON     C1    446 0.00310500  12.010000   ; qtot -0.194358
  447         hc     10    MON      H    447 0.08104550   1.008000   ; qtot -0.113313
  448         c5     10    MON     C2    448 0.00310500  12.010000   ; qtot -0.110208
  449         c5     10    MON     C3    449 -0.04055300  12.010000   ; qtot -0.150761
  450         c2     10    MON     C4    450 -0.16447100  12.010000   ; qtot -0.315232
  451         c5     10    MON     C6    451 -0.08222800  12.010000   ; qtot -0.397460
  452         c5     10    MON     C7    452 -0.04055300  12.010000   ; qtot -0.438013
  453         c2     10    MON     C8    453 -0.16447100  12.010000   ; qtot -0.602484
  454         hc     10    MON     H1    454 0.08104550   1.008000   ; qtot -0.521438
  455          n     10    MON      N    455 0.06859500  14.010000   ; qtot -0.452843
  456         c3     10    MON    C10    456 -0.01288500  12.010000   ; qtot -0.465728
  457         c3     10    MON    C11    457 -0.01367300  12.010000   ; qtot -0.479401
  458         c3     10    MON    C12    458 -0.06417100  12.010000   ; qtot -0.543572
  459         c3     10    MON    C13    459 0.01956300  12.010000   ; qtot -0.524009
  460         os     10    MON     O1    460 -0.27889500  16.000000   ; qtot -0.802904
  461         c6     10    MON    C14    461 -0.04220400  12.010000   ; qtot -0.845108
  462         c6     10    MON    C15    462 -0.01014500  12.010000   ; qtot -0.855253
  463         oh     10    MON     O2    463 -0.48597100  16.000000   ; qtot -1.341224
  464         c6     10    MON    C16    464 0.04455800  12.010000   ; qtot -1.296666
  465         c3     10    MON    C17    465 0.05192000  12.010000   ; qtot -1.244746
  466         oh     10    MON     O3    466 -0.59730600  16.000000   ; qtot -1.842052
  467         os     10    MON     O4    467 -0.30787100  16.000000   ; qtot -2.149923
  468         c6     10    MON    C18    468 0.23610000  12.010000   ; qtot -1.913823
  469         oh     10    MON     O5    469 -0.60532100  16.000000   ; qtot -2.519144
  470         c6     10    MON    C19    470 -0.01478700  12.010000   ; qtot -2.533931
  471         oh     10    MON     O6    471 -0.63066000  16.000000   ; qtot -3.164591
  472          c     10    MON    C20    472 0.25903800  12.010000   ; qtot -2.905553
  473          o     10    MON     O7    473 -0.45650150  16.000000   ; qtot -3.362055
  474         hc     10    MON     H2    474 0.09694350   1.008000   ; qtot -3.265111
  475         ha     10    MON     H3    475 0.11892750   1.008000   ; qtot -3.146184
  476         hc     10    MON     H6    476 0.05738100   1.008000   ; qtot -3.088803
  477         hc     10    MON     H7    477 0.05738100   1.008000   ; qtot -3.031422
  478         hc     10    MON     H8    478 0.09694350   1.008000   ; qtot -2.934478
  479         ha     10    MON     H9    479 0.11892750   1.008000   ; qtot -2.815551
  480         h1     10    MON    H12    480 0.05160700   1.008000   ; qtot -2.763944
  481         h1     10    MON    H13    481 0.05160700   1.008000   ; qtot -2.712337
  482         hc     10    MON    H14    482 0.03111200   1.008000   ; qtot -2.681225
  483         hc     10    MON    H15    483 0.03111200   1.008000   ; qtot -2.650113
  484         hc     10    MON    H16    484 0.03512800   1.008000   ; qtot -2.614985
  485         hc     10    MON    H17    485 0.03512800   1.008000   ; qtot -2.579857
  486         h1     10    MON    H18    486 0.05619800   1.008000   ; qtot -2.523659
  487         h1     10    MON    H19    487 0.05619800   1.008000   ; qtot -2.467461
  488         h1     10    MON    H20    488 0.13651300   1.008000   ; qtot -2.330948
  489         h1     10    MON    H21    489 0.15019400   1.008000   ; qtot -2.180754
  490         ho     10    MON    H22    490 0.37534200   1.008000   ; qtot -1.805412
  491         h1     10    MON    H23    491 0.11149400   1.008000   ; qtot -1.693918
  492         h1     10    MON    H24    492 0.08981300   1.008000   ; qtot -1.604105
  493         h1     10    MON    H25    493 0.08981300   1.008000   ; qtot -1.514292
  494         ho     10    MON    H26    494 0.37077800   1.008000   ; qtot -1.143514
  495         h2     10    MON    H27    495 0.10730400   1.008000   ; qtot -1.036210
  496         ho     10    MON    H28    496 0.44626500   1.008000   ; qtot -0.589945
  497         h1     10    MON    H29    497 0.14014100   1.008000   ; qtot -0.449804
  498         ho     10    MON    H30    498 0.44980400   1.008000   ; qtot 0.000000
; residue   11 MNL rtp MNL q 0.1
  499          o     11    MNL      O    499 -0.45650150  16.000000   ; qtot -0.456501
  500          c     11    MNL      C    500 0.25903800  12.010000   ; qtot -0.197463
  501         c5     11    MNL     C1    501 0.00310500  12.010000   ; qtot -0.194358
  502         hc     11    MNL      H    502 0.08104550   1.008000   ; qtot -0.113313
  503         c5     11    MNL     C2    503 0.00310500  12.010000   ; qtot -0.110208
  504         c5     11    MNL     C3    504 -0.04055300  12.010000   ; qtot -0.150761
  505         c2     11    MNL     C4    505 -0.16447100  12.010000   ; qtot -0.315232
  506         c5     11    MNL     C6    506 -0.08222800  12.010000   ; qtot -0.397460
  507         c5     11    MNL     C7    507 -0.04055300  12.010000   ; qtot -0.438013
  508         c2     11    MNL     C8    508 -0.10630450  12.010000   ; qtot -0.544317
  509         hc     11    MNL     H1    509 0.08104550   1.008000   ; qtot -0.463272
  510          n     11    MNL      N    510 0.06859500  14.010000   ; qtot -0.394677
  511         c3     11    MNL    C10    511 -0.01288500  12.010000   ; qtot -0.407562
  512         c3     11    MNL    C11    512 -0.01367300  12.010000   ; qtot -0.421235
  513         c3     11    MNL    C12    513 -0.06417100  12.010000   ; qtot -0.485406
  514         c3     11    MNL    C13    514 0.01956300  12.010000   ; qtot -0.465843
  515         os     11    MNL     O1    515 -0.27889500  16.000000   ; qtot -0.744738
  516         c6     11    MNL    C14    516 -0.04220400  12.010000   ; qtot -0.786942
  517         c6     11    MNL    C15    517 -0.01014500  12.010000   ; qtot -0.797087
  518         oh     11    MNL     O2    518 -0.48597100  16.000000   ; qtot -1.283058
  519         c6     11    MNL    C16    519 0.04455800  12.010000   ; qtot -1.238500
  520         c3     11    MNL    C17    520 0.05192000  12.010000   ; qtot -1.186580
  521         oh     11    MNL     O3    521 -0.59730600  16.000000   ; qtot -1.783886
  522         os     11    MNL     O4    522 -0.30787100  16.000000   ; qtot -2.091757
  523         c6     11    MNL    C18    523 0.23610000  12.010000   ; qtot -1.855657
  524         oh     11    MNL     O5    524 -0.60532100  16.000000   ; qtot -2.460978
  525         c6     11    MNL    C19    525 -0.01478700  12.010000   ; qtot -2.475765
  526         oh     11    MNL     O6    526 -0.63066000  16.000000   ; qtot -3.106425
  527          c     11    MNL    C20    527 0.25903800  12.010000   ; qtot -2.847387
  528          o     11    MNL     O7    528 -0.45650150  16.000000   ; qtot -3.303888
  529         hc     11    MNL     H2    529 0.09694350   1.008000   ; qtot -3.206945
  530         ha     11    MNL     H3    530 0.11892750   1.008000   ; qtot -3.088017
  531         hc     11    MNL     H6    531 0.05738100   1.008000   ; qtot -3.030636
  532         hc     11    MNL     H7    532 0.05738100   1.008000   ; qtot -2.973255
  533         hc     11    MNL     H8    533 0.09694350   1.008000   ; qtot -2.876312
  534         ha     11    MNL     H9    534 0.11892750   1.008000   ; qtot -2.757384
  535         h1     11    MNL    H12    535 0.05160700   1.008000   ; qtot -2.705777
  536         h1     11    MNL    H13    536 0.05160700   1.008000   ; qtot -2.654170
  537         hc     11    MNL    H14    537 0.03111200   1.008000   ; qtot -2.623058
  538         hc     11    MNL    H15    538 0.03111200   1.008000   ; qtot -2.591946
  539         hc     11    MNL    H16    539 0.03512800   1.008000   ; qtot -2.556818
  540         hc     11    MNL    H17    540 0.03512800   1.008000   ; qtot -2.521690
  541         h1     11    MNL    H18    541 0.05619800   1.008000   ; qtot -2.465492
  542         h1     11    MNL    H19    542 0.05619800   1.008000   ; qtot -2.409294
  543         h1     11    MNL    H20    543 0.13651300   1.008000   ; qtot -2.272781
  544         h1     11    MNL    H21    544 0.15019400   1.008000   ; qtot -2.122587
  545         ho     11    MNL    H22    545 0.37534200   1.008000   ; qtot -1.747245
  546         h1     11    MNL    H23    546 0.11149400   1.008000   ; qtot -1.635751
  547         h1     11    MNL    H24    547 0.08981300   1.008000   ; qtot -1.545938
  548         h1     11    MNL    H25    548 0.08981300   1.008000   ; qtot -1.456125
  549         ho     11    MNL    H26    549 0.37077800   1.008000   ; qtot -1.085347
  550         h2     11    MNL    H27    550 0.10730400   1.008000   ; qtot -0.978043
  551         ho     11    MNL    H28    551 0.44626500   1.008000   ; qtot -0.531778
  552         h1     11    MNL    H29    552 0.14014100   1.008000   ; qtot -0.391637
  553         ho     11    MNL    H30    553 0.44980400   1.008000   ; qtot 0.058167
; residue   12 CPT rtp CPT q -0.1
  554         c2     12    CPT     CC    554 -0.40208650  12.010000   ; qtot -0.343920
  555         ha     12    CPT    HC1    555 0.17196000   1.008000   ; qtot -0.171960
  556         ha     12    CPT    HC2    556 0.17196000   1.008000   ; qtot 0.000000

[ bonds ]
;    ai     aj funct         c0         c1         c2         c3
      1     10     1   0.13379 364844.800000
     32     33     1   0.12190 494214.080000
     30     31     1   0.14230 265014.560000
     28     29     1   0.14230 265014.560000
     28     30     1   0.15380 251793.120000
     27     28     1   0.14320 258236.480000
     25     26     1   0.14242 238613.520000
     24     27     1   0.14320 258236.480000
     24     25     1   0.15380 251793.120000
     22     24     1   0.15380 251793.120000
     22     23     1   0.14230 265014.560000
     21     30     1   0.15380 251793.120000
     21     22     1   0.15380 251793.120000
     20     21     1   0.14320 258236.480000
     19     20     1   0.14273 236203.536000
     18     19     1   0.15354 191535.152000
     17     18     1   0.15354 191535.152000
     16     17     1   0.15354 191535.152000
     15     32     1   0.13967 265650.528000
     15     16     1   0.14643 212932.128000
     13     65     1   0.13379 364844.800000
     12     13     1   0.15100 273466.240000
     11     12     1   0.15380 251793.120000
      9     10     1   0.15100 273466.240000
      9     11     1   0.15380 251793.120000
      8      9     1   0.15380 251793.120000
      8     32     1   0.15240 261918.400000
      6     12     1   0.15380 251793.120000
      6      8     1   0.15380 251793.120000
      5      6     1   0.15240 261918.400000
      5     15     1   0.13967 265650.528000
      4      5     1   0.12190 494214.080000
     87     88     1   0.12190 494214.080000
     85     86     1   0.14230 265014.560000
     83     84     1   0.14230 265014.560000
     83     85     1   0.15380 251793.120000
     82     83     1   0.14320 258236.480000
     80     81     1   0.14242 238613.520000
     79     82     1   0.14320 258236.480000
     79     80     1   0.15380 251793.120000
     77     79     1   0.15380 251793.120000
     77     78     1   0.14230 265014.560000
     76     85     1   0.15380 251793.120000
     76     77     1   0.15380 251793.120000
     75     76     1   0.14320 258236.480000
     74     75     1   0.14273 236203.536000
     73     74     1   0.15354 191535.152000
     72     73     1   0.15354 191535.152000
     71     72     1   0.15354 191535.152000
     70     87     1   0.13967 265650.528000
     70     71     1   0.14643 212932.128000
     68    120     1   0.13379 364844.800000
     67     68     1   0.15100 273466.240000
     66     67     1   0.15380 251793.120000
     64     65     1   0.15100 273466.240000
     64     66     1   0.15380 251793.120000
     63     64     1   0.15380 251793.120000
     63     87     1   0.15240 261918.400000
     61     67     1   0.15380 251793.120000
     61     63     1   0.15380 251793.120000
     60     61     1   0.15240 261918.400000
     60     70     1   0.13967 265650.528000
     59     60     1   0.12190 494214.080000
    142    143     1   0.12190 494214.080000
    140    141     1   0.14230 265014.560000
    138    139     1   0.14230 265014.560000
    138    140     1   0.15380 251793.120000
    137    138     1   0.14320 258236.480000
    135    136     1   0.14242 238613.520000
    134    137     1   0.14320 258236.480000
    134    135     1   0.15380 251793.120000
    132    134     1   0.15380 251793.120000
    132    133     1   0.14230 265014.560000
    131    140     1   0.15380 251793.120000
    131    132     1   0.15380 251793.120000
    130    131     1   0.14320 258236.480000
    129    130     1   0.14273 236203.536000
    128    129     1   0.15354 191535.152000
    127    128     1   0.15354 191535.152000
    126    127     1   0.15354 191535.152000
    125    142     1   0.13967 265650.528000
    125    126     1   0.14643 212932.128000
    123    175     1   0.13379 364844.800000
    122    123     1   0.15100 273466.240000
    121    122     1   0.15380 251793.120000
    119    120     1   0.15100 273466.240000
    119    121     1   0.15380 251793.120000
    118    119     1   0.15380 251793.120000
    118    142     1   0.15240 261918.400000
    116    122     1   0.15380 251793.120000
    116    118     1   0.15380 251793.120000
    115    116     1   0.15240 261918.400000
    115    125     1   0.13967 265650.528000
    114    115     1   0.12190 494214.080000
    197    198     1   0.12190 494214.080000
    195    196     1   0.14230 265014.560000
    193    194     1   0.14230 265014.560000
    193    195     1   0.15380 251793.120000
    192    193     1   0.14320 258236.480000
    190    191     1   0.14242 238613.520000
    189    192     1   0.14320 258236.480000
    189    190     1   0.15380 251793.120000
    187    189     1   0.15380 251793.120000
    187    188     1   0.14230 265014.560000
    186    195     1   0.15380 251793.120000
    186    187     1   0.15380 251793.120000
    185    186     1   0.14320 258236.480000
    184    185     1   0.14273 236203.536000
    183    184     1   0.15354 191535.152000
    182    183     1   0.15354 191535.152000
    181    182     1   0.15354 191535.152000
    180    197     1   0.13967 265650.528000
    180    181     1   0.14643 212932.128000
    178    230     1   0.13379 364844.800000
    177    178     1   0.15100 273466.240000
    176    177     1   0.15380 251793.120000
    174    175     1   0.15100 273466.240000
    174    176     1   0.15380 251793.120000
    173    174     1   0.15380 251793.120000
    173    197     1   0.15240 261918.400000
    171    177     1   0.15380 251793.120000
    171    173     1   0.15380 251793.120000
    170    171     1   0.15240 261918.400000
    170    180     1   0.13967 265650.528000
    169    170     1   0.12190 494214.080000
    252    253     1   0.12190 494214.080000
    250    251     1   0.14230 265014.560000
    248    249     1   0.14230 265014.560000
    248    250     1   0.15380 251793.120000
    247    248     1   0.14320 258236.480000
    245    246     1   0.14242 238613.520000
    244    247     1   0.14320 258236.480000
    244    245     1   0.15380 251793.120000
    242    244     1   0.15380 251793.120000
    242    243     1   0.14230 265014.560000
    241    250     1   0.15380 251793.120000
    241    242     1   0.15380 251793.120000
    240    241     1   0.14320 258236.480000
    239    240     1   0.14273 236203.536000
    238    239     1   0.15354 191535.152000
    237    238     1   0.15354 191535.152000
    236    237     1   0.15354 191535.152000
    235    252     1   0.13967 265650.528000
    235    236     1   0.14643 212932.128000
    233    285     1   0.13379 364844.800000
    232    233     1   0.15100 273466.240000
    231    232     1   0.15380 251793.120000
    229    230     1   0.15100 273466.240000
    229    231     1   0.15380 251793.120000
    228    229     1   0.15380 251793.120000
    228    252     1   0.15240 261918.400000
    226    232     1   0.15380 251793.120000
    226    228     1   0.15380 251793.120000
    225    226     1   0.15240 261918.400000
    225    235     1   0.13967 265650.528000
    224    225     1   0.12190 494214.080000
    307    308     1   0.12190 494214.080000
    305    306     1   0.14230 265014.560000
    303    304     1   0.14230 265014.560000
    303    305     1   0.15380 251793.120000
    302    303     1   0.14320 258236.480000
    300    301     1   0.14242 238613.520000
    299    302     1   0.14320 258236.480000
    299    300     1   0.15380 251793.120000
    297    299     1   0.15380 251793.120000
    297    298     1   0.14230 265014.560000
    296    305     1   0.15380 251793.120000
    296    297     1   0.15380 251793.120000
    295    296     1   0.14320 258236.480000
    294    295     1   0.14273 236203.536000
    293    294     1   0.15354 191535.152000
    292    293     1   0.15354 191535.152000
    291    292     1   0.15354 191535.152000
    290    307     1   0.13967 265650.528000
    290    291     1   0.14643 212932.128000
    288    340     1   0.13379 364844.800000
    287    288     1   0.15100 273466.240000
    286    287     1   0.15380 251793.120000
    284    285     1   0.15100 273466.240000
    284    286     1   0.15380 251793.120000
    283    284     1   0.15380 251793.120000
    283    307     1   0.15240 261918.400000
    281    287     1   0.15380 251793.120000
    281    283     1   0.15380 251793.120000
    280    281     1   0.15240 261918.400000
    280    290     1   0.13967 265650.528000
    279    280     1   0.12190 494214.080000
    362    363     1   0.12190 494214.080000
    360    361     1   0.14230 265014.560000
    358    359     1   0.14230 265014.560000
    358    360     1   0.15380 251793.120000
    357    358     1   0.14320 258236.480000
    355    356     1   0.14242 238613.520000
    354    357     1   0.14320 258236.480000
    354    355     1   0.15380 251793.120000
    352    354     1   0.15380 251793.120000
    352    353     1   0.14230 265014.560000
    351    360     1   0.15380 251793.120000
    351    352     1   0.15380 251793.120000
    350    351     1   0.14320 258236.480000
    349    350     1   0.14273 236203.536000
    348    349     1   0.15354 191535.152000
    347    348     1   0.15354 191535.152000
    346    347     1   0.15354 191535.152000
    345    362     1   0.13967 265650.528000
    345    346     1   0.14643 212932.128000
    343    395     1   0.13379 364844.800000
    342    343     1   0.15100 273466.240000
    341    342     1   0.15380 251793.120000
    339    340     1   0.15100 273466.240000
    339    341     1   0.15380 251793.120000
    338    339     1   0.15380 251793.120000
    338    362     1   0.15240 261918.400000
    336    342     1   0.15380 251793.120000
    336    338     1   0.15380 251793.120000
    335    336     1   0.15240 261918.400000
    335    345     1   0.13967 265650.528000
    334    335     1   0.12190 494214.080000
    417    418     1   0.12190 494214.080000
    415    416     1   0.14230 265014.560000
    413    414     1   0.14230 265014.560000
    413    415     1   0.15380 251793.120000
    412    413     1   0.14320 258236.480000
    410    411     1   0.14242 238613.520000
    409    412     1   0.14320 258236.480000
    409    410     1   0.15380 251793.120000
    407    409     1   0.15380 251793.120000
    407    408     1   0.14230 265014.560000
    406    415     1   0.15380 251793.120000
    406    407     1   0.15380 251793.120000
    405    406     1   0.14320 258236.480000
    404    405     1   0.14273 236203.536000
    403    404     1   0.15354 191535.152000
    402    403     1   0.15354 191535.152000
    401    402     1   0.15354 191535.152000
    400    417     1   0.13967 265650.528000
    400    401     1   0.14643 212932.128000
    398    450     1   0.13379 364844.800000
    397    398     1   0.15100 273466.240000
    396    397     1   0.15380 251793.120000
    394    395     1   0.15100 273466.240000
    394    396     1   0.15380 251793.120000
    393    394     1   0.15380 251793.120000
    393    417     1   0.15240 261918.400000
    391    397     1   0.15380 251793.120000
    391    393     1   0.15380 251793.120000
    390    391     1   0.15240 261918.400000
    390    400     1   0.13967 265650.528000
    389    390     1   0.12190 494214.080000
    472    473     1   0.12190 494214.080000
    470    471     1   0.14230 265014.560000
    468    469     1   0.14230 265014.560000
    468    470     1   0.15380 251793.120000
    467    468     1   0.14320 258236.480000
    465    466     1   0.14242 238613.520000
    464    467     1   0.14320 258236.480000
    464    465     1   0.15380 251793.120000
    462    464     1   0.15380 251793.120000
    462    463     1   0.14230 265014.560000
    461    470     1   0.15380 251793.120000
    461    462     1   0.15380 251793.120000
    460    461     1   0.14320 258236.480000
    459    460     1   0.14273 236203.536000
    458    459     1   0.15354 191535.152000
    457    458     1   0.15354 191535.152000
    456    457     1   0.15354 191535.152000
    455    472     1   0.13967 265650.528000
    455    456     1   0.14643 212932.128000
    453    505     1   0.13379 364844.800000
    452    453     1   0.15100 273466.240000
    451    452     1   0.15380 251793.120000
    449    450     1   0.15100 273466.240000
    449    451     1   0.15380 251793.120000
    448    449     1   0.15380 251793.120000
    448    472     1   0.15240 261918.400000
    446    452     1   0.15380 251793.120000
    446    448     1   0.15380 251793.120000
    445    446     1   0.15240 261918.400000
    445    455     1   0.13967 265650.528000
    444    445     1   0.12190 494214.080000
    527    528     1   0.12190 494214.080000
    525    526     1   0.14230 265014.560000
    523    524     1   0.14230 265014.560000
    523    525     1   0.15380 251793.120000
    522    523     1   0.14320 258236.480000
    520    521     1   0.14242 238613.520000
    519    522     1   0.14320 258236.480000
    519    520     1   0.15380 251793.120000
    517    519     1   0.15380 251793.120000
    517    518     1   0.14230 265014.560000
    516    525     1   0.15380 251793.120000
    516    517     1   0.15380 251793.120000
    515    516     1   0.14320 258236.480000
    514    515     1   0.14273 236203.536000
    513    514     1   0.15354 191535.152000
    512    513     1   0.15354 191535.152000
    511    512     1   0.15354 191535.152000
    510    527     1   0.13967 265650.528000
    510    511     1   0.14643 212932.128000
    508    554     1   0.13379 364844.800000
    507    508     1   0.15100 273466.240000
    506    507     1   0.15380 251793.120000
    504    505     1   0.15100 273466.240000
    504    506     1   0.15380 251793.120000
    503    504     1   0.15380 251793.120000
    503    527     1   0.15240 261918.400000
    501    507     1   0.15380 251793.120000
    501    503     1   0.15380 251793.120000
    500    501     1   0.15240 261918.400000
    500    510     1   0.13967 265650.528000
    499    500     1   0.12190 494214.080000
      1      2     1   0.10882 298980.272000
      1      3     1   0.10882 298980.272000
     31     58     1   0.09725 448114.768000
     30     57     1   0.10970 276646.080000
     29     56     1   0.09725 448114.768000
     28     55     1   0.10960 277566.560000
     26     54     1   0.09725 448114.768000
     25     52     1   0.10969 288043.296000
     25     53     1   0.10969 288043.296000
     24     51     1   0.10970 276646.080000
     23     50     1   0.09725 448114.768000
     22     49     1   0.10970 276646.080000
     21     48     1   0.10970 276646.080000
     19     46     1   0.10969 288043.296000
     19     47     1   0.10969 288043.296000
     18     45     1   0.10962 288905.200000
     18     44     1   0.10962 288905.200000
     17     43     1   0.10962 288905.200000
     17     42     1   0.10962 288905.200000
     16     40     1   0.10969 288043.296000
     16     41     1   0.10969 288043.296000
     13     39     1   0.10882 298980.272000
     12     38     1   0.10970 276646.080000
     11     37     1   0.10970 276646.080000
     11     36     1   0.10970 276646.080000
     10     35     1   0.10882 298980.272000
      9     34     1   0.10970 276646.080000
      8     14     1   0.10970 276646.080000
      6      7     1   0.10970 276646.080000
     86    113     1   0.09725 448114.768000
     85    112     1   0.10970 276646.080000
     84    111     1   0.09725 448114.768000
     83    110     1   0.10960 277566.560000
     81    109     1   0.09725 448114.768000
     80    107     1   0.10969 288043.296000
     80    108     1   0.10969 288043.296000
     79    106     1   0.10970 276646.080000
     78    105     1   0.09725 448114.768000
     77    104     1   0.10970 276646.080000
     76    103     1   0.10970 276646.080000
     74    101     1   0.10969 288043.296000
     74    102     1   0.10969 288043.296000
     73    100     1   0.10962 288905.200000
     73     99     1   0.10962 288905.200000
     72     98     1   0.10962 288905.200000
     72     97     1   0.10962 288905.200000
     71     95     1   0.10969 288043.296000
     71     96     1   0.10969 288043.296000
     68     94     1   0.10882 298980.272000
     67     93     1   0.10970 276646.080000
     66     92     1   0.10970 276646.080000
     66     91     1   0.10970 276646.080000
     65     90     1   0.10882 298980.272000
     64     89     1   0.10970 276646.080000
     63     69     1   0.10970 276646.080000
     61     62     1   0.10970 276646.080000
    141    168     1   0.09725 448114.768000
    140    167     1   0.10970 276646.080000
    139    166     1   0.09725 448114.768000
    138    165     1   0.10960 277566.560000
    136    164     1   0.09725 448114.768000
    135    162     1   0.10969 288043.296000
    135    163     1   0.10969 288043.296000
    134    161     1   0.10970 276646.080000
    133    160     1   0.09725 448114.768000
    132    159     1   0.10970 276646.080000
    131    158     1   0.10970 276646.080000
    129    156     1   0.10969 288043.296000
    129    157     1   0.10969 288043.296000
    128    155     1   0.10962 288905.200000
    128    154     1   0.10962 288905.200000
    127    153     1   0.10962 288905.200000
    127    152     1   0.10962 288905.200000
    126    150     1   0.10969 288043.296000
    126    151     1   0.10969 288043.296000
    123    149     1   0.10882 298980.272000
    122    148     1   0.10970 276646.080000
    121    147     1   0.10970 276646.080000
    121    146     1   0.10970 276646.080000
    120    145     1   0.10882 298980.272000
    119    144     1   0.10970 276646.080000
    118    124     1   0.10970 276646.080000
    116    117     1   0.10970 276646.080000
    196    223     1   0.09725 448114.768000
    195    222     1   0.10970 276646.080000
    194    221     1   0.09725 448114.768000
    193    220     1   0.10960 277566.560000
    191    219     1   0.09725 448114.768000
    190    217     1   0.10969 288043.296000
    190    218     1   0.10969 288043.296000
    189    216     1   0.10970 276646.080000
    188    215     1   0.09725 448114.768000
    187    214     1   0.10970 276646.080000
    186    213     1   0.10970 276646.080000
    184    211     1   0.10969 288043.296000
    184    212     1   0.10969 288043.296000
    183    210     1   0.10962 288905.200000
    183    209     1   0.10962 288905.200000
    182    208     1   0.10962 288905.200000
    182    207     1   0.10962 288905.200000
    181    205     1   0.10969 288043.296000
    181    206     1   0.10969 288043.296000
    178    204     1   0.10882 298980.272000
    177    203     1   0.10970 276646.080000
    176    202     1   0.10970 276646.080000
    176    201     1   0.10970 276646.080000
    175    200     1   0.10882 298980.272000
    174    199     1   0.10970 276646.080000
    173    179     1   0.10970 276646.080000
    171    172     1   0.10970 276646.080000
    251    278     1   0.09725 448114.768000
    250    277     1   0.10970 276646.080000
    249    276     1   0.09725 448114.768000
    248    275     1   0.10960 277566.560000
    246    274     1   0.09725 448114.768000
    245    272     1   0.10969 288043.296000
    245    273     1   0.10969 288043.296000
    244    271     1   0.10970 276646.080000
    243    270     1   0.09725 448114.768000
    242    269     1   0.10970 276646.080000
    241    268     1   0.10970 276646.080000
    239    266     1   0.10969 288043.296000
    239    267     1   0.10969 288043.296000
    238    265     1   0.10962 288905.200000
    238    264     1   0.10962 288905.200000
    237    263     1   0.10962 288905.200000
    237    262     1   0.10962 288905.200000
    236    260     1   0.10969 288043.296000
    236    261     1   0.10969 288043.296000
    233    259     1   0.10882 298980.272000
    232    258     1   0.10970 276646.080000
    231    257     1   0.10970 276646.080000
    231    256     1   0.10970 276646.080000
    230    255     1   0.10882 298980.272000
    229    254     1   0.10970 276646.080000
    228    234     1   0.10970 276646.080000
    226    227     1   0.10970 276646.080000
    306    333     1   0.09725 448114.768000
    305    332     1   0.10970 276646.080000
    304    331     1   0.09725 448114.768000
    303    330     1   0.10960 277566.560000
    301    329     1   0.09725 448114.768000
    300    327     1   0.10969 288043.296000
    300    328     1   0.10969 288043.296000
    299    326     1   0.10970 276646.080000
    298    325     1   0.09725 448114.768000
    297    324     1   0.10970 276646.080000
    296    323     1   0.10970 276646.080000
    294    321     1   0.10969 288043.296000
    294    322     1   0.10969 288043.296000
    293    320     1   0.10962 288905.200000
    293    319     1   0.10962 288905.200000
    292    318     1   0.10962 288905.200000
    292    317     1   0.10962 288905.200000
    291    315     1   0.10969 288043.296000
    291    316     1   0.10969 288043.296000
    288    314     1   0.10882 298980.272000
    287    313     1   0.10970 276646.080000
    286    312     1   0.10970 276646.080000
    286    311     1   0.10970 276646.080000
    285    310     1   0.10882 298980.272000
    284    309     1   0.10970 276646.080000
    283    289     1   0.10970 276646.080000
    281    282     1   0.10970 276646.080000
    361    388     1   0.09725 448114.768000
    360    387     1   0.10970 276646.080000
    359    386     1   0.09725 448114.768000
    358    385     1   0.10960 277566.560000
    356    384     1   0.09725 448114.768000
    355    382     1   0.10969 288043.296000
    355    383     1   0.10969 288043.296000
    354    381     1   0.10970 276646.080000
    353    380     1   0.09725 448114.768000
    352    379     1   0.10970 276646.080000
    351    378     1   0.10970 276646.080000
    349    376     1   0.10969 288043.296000
    349    377     1   0.10969 288043.296000
    348    375     1   0.10962 288905.200000
    348    374     1   0.10962 288905.200000
    347    373     1   0.10962 288905.200000
    347    372     1   0.10962 288905.200000
    346    370     1   0.10969 288043.296000
    346    371     1   0.10969 288043.296000
    343    369     1   0.10882 298980.272000
    342    368     1   0.10970 276646.080000
    341    367     1   0.10970 276646.080000
    341    366     1   0.10970 276646.080000
    340    365     1   0.10882 298980.272000
    339    364     1   0.10970 276646.080000
    338    344     1   0.10970 276646.080000
    336    337     1   0.10970 276646.080000
    416    443     1   0.09725 448114.768000
    415    442     1   0.10970 276646.080000
    414    441     1   0.09725 448114.768000
    413    440     1   0.10960 277566.560000
    411    439     1   0.09725 448114.768000
    410    437     1   0.10969 288043.296000
    410    438     1   0.10969 288043.296000
    409    436     1   0.10970 276646.080000
    408    435     1   0.09725 448114.768000
    407    434     1   0.10970 276646.080000
    406    433     1   0.10970 276646.080000
    404    431     1   0.10969 288043.296000
    404    432     1   0.10969 288043.296000
    403    430     1   0.10962 288905.200000
    403    429     1   0.10962 288905.200000
    402    428     1   0.10962 288905.200000
    402    427     1   0.10962 288905.200000
    401    425     1   0.10969 288043.296000
    401    426     1   0.10969 288043.296000
    398    424     1   0.10882 298980.272000
    397    423     1   0.10970 276646.080000
    396    422     1   0.10970 276646.080000
    396    421     1   0.10970 276646.080000
    395    420     1   0.10882 298980.272000
    394    419     1   0.10970 276646.080000
    393    399     1   0.10970 276646.080000
    391    392     1   0.10970 276646.080000
    471    498     1   0.09725 448114.768000
    470    497     1   0.10970 276646.080000
    469    496     1   0.09725 448114.768000
    468    495     1   0.10960 277566.560000
    466    494     1   0.09725 448114.768000
    465    492     1   0.10969 288043.296000
    465    493     1   0.10969 288043.296000
    464    491     1   0.10970 276646.080000
    463    490     1   0.09725 448114.768000
    462    489     1   0.10970 276646.080000
    461    488     1   0.10970 276646.080000
    459    486     1   0.10969 288043.296000
    459    487     1   0.10969 288043.296000
    458    485     1   0.10962 288905.200000
    458    484     1   0.10962 288905.200000
    457    483     1   0.10962 288905.200000
    457    482     1   0.10962 288905.200000
    456    480     1   0.10969 288043.296000
    456    481     1   0.10969 288043.296000
    453    479     1   0.10882 298980.272000
    452    478     1   0.10970 276646.080000
    451    477     1   0.10970 276646.080000
    451    476     1   0.10970 276646.080000
    450    475     1   0.10882 298980.272000
    449    474     1   0.10970 276646.080000
    448    454     1   0.10970 276646.080000
    446    447     1   0.10970 276646.080000
    526    553     1   0.09725 448114.768000
    525    552     1   0.10970 276646.080000
    524    551     1   0.09725 448114.768000
    523    550     1   0.10960 277566.560000
    521    549     1   0.09725 448114.768000
    520    547     1   0.10969 288043.296000
    520    548     1   0.10969 288043.296000
    519    546     1   0.10970 276646.080000
    518    545     1   0.09725 448114.768000
    517    544     1   0.10970 276646.080000
    516    543     1   0.10970 276646.080000
    514    541     1   0.10969 288043.296000
    514    542     1   0.10969 288043.296000
    513    540     1   0.10962 288905.200000
    513    539     1   0.10962 288905.200000
    512    538     1   0.10962 288905.200000
    512    537     1   0.10962 288905.200000
    511    535     1   0.10969 288043.296000
    511    536     1   0.10969 288043.296000
    508    534     1   0.10882 298980.272000
    507    533     1   0.10970 276646.080000
    506    532     1   0.10970 276646.080000
    506    531     1   0.10970 276646.080000
    505    530     1   0.10882 298980.272000
    504    529     1   0.10970 276646.080000
    503    509     1   0.10970 276646.080000
    501    502     1   0.10970 276646.080000
    554    555     1   0.10882 298980.272000
    554    556     1   0.10882 298980.272000

[ pairs ]
;    ai     aj funct         c0         c1         c2         c3
      1     11     1
      1      8     1
     29     31     1
     27     31     1
     26     27     1
     25     28     1
     24     29     1
     24     30     1
     23     30     1
     23     27     1
     23     25     1
     22     31     1
     22     28     1
     22     26     1
     21     29     1
     21     27     1
     21     25     1
     20     31     1
     20     28     1
     20     24     1
     20     23     1
     19     30     1
     19     22     1
     18     21     1
     17     20     1
     17     32     1
     16     19     1
     16     33     1
     15     18     1
     13     66     1
     13     63     1
     12     64     1
     12     32     1
     12     15     1
     11     32     1
     11     65     1
     10     12     1
     10     32     1
      9     13     1
      9     33     1
      9     15     1
      8     16     1
      8     13     1
      6     65     1
      6     10     1
      6     33     1
      6     16     1
      5     11     1
      5     13     1
      5      9     1
      5     33     1
      5     17     1
      4     12     1
      4      8     1
      4     32     1
      4     16     1
     84     86     1
     82     86     1
     81     82     1
     80     83     1
     79     84     1
     79     85     1
     78     85     1
     78     82     1
     78     80     1
     77     86     1
     77     83     1
     77     81     1
     76     84     1
     76     82     1
     76     80     1
     75     86     1
     75     83     1
     75     79     1
     75     78     1
     74     85     1
     74     77     1
     73     76     1
     72     75     1
     72     87     1
     71     74     1
     71     88     1
     70     73     1
     68    121     1
     68    118     1
     67    119     1
     67     87     1
     67     70     1
     66     87     1
     66    120     1
     65     67     1
     65     87     1
     64     68     1
     64     88     1
     64     70     1
     63     71     1
     63     68     1
     61    120     1
     61     65     1
     61     88     1
     61     71     1
     60     66     1
     60     68     1
     60     64     1
     60     88     1
     60     72     1
     59     67     1
     59     63     1
     59     87     1
     59     71     1
    139    141     1
    137    141     1
    136    137     1
    135    138     1
    134    139     1
    134    140     1
    133    140     1
    133    137     1
    133    135     1
    132    141     1
    132    138     1
    132    136     1
    131    139     1
    131    137     1
    131    135     1
    130    141     1
    130    138     1
    130    134     1
    130    133     1
    129    140     1
    129    132     1
    128    131     1
    127    130     1
    127    142     1
    126    129     1
    126    143     1
    125    128     1
    123    176     1
    123    173     1
    122    174     1
    122    142     1
    122    125     1
    121    142     1
    121    175     1
    120    122     1
    120    142     1
    119    123     1
    119    143     1
    119    125     1
    118    126     1
    118    123     1
    116    175     1
    116    120     1
    116    143     1
    116    126     1
    115    121     1
    115    123     1
    115    119     1
    115    143     1
    115    127     1
    114    122     1
    114    118     1
    114    142     1
    114    126     1
    194    196     1
    192    196     1
    191    192     1
    190    193     1
    189    194     1
    189    195     1
    188    195     1
    188    192     1
    188    190     1
    187    196     1
    187    193     1
    187    191     1
    186    194     1
    186    192     1
    186    190     1
    185    196     1
    185    193     1
    185    189     1
    185    188     1
    184    195     1
    184    187     1
    183    186     1
    182    185     1
    182    197     1
    181    184     1
    181    198     1
    180    183     1
    178    231     1
    178    228     1
    177    229     1
    177    197     1
    177    180     1
    176    197     1
    176    230     1
    175    177     1
    175    197     1
    174    178     1
    174    198     1
    174    180     1
    173    181     1
    173    178     1
    171    230     1
    171    175     1
    171    198     1
    171    181     1
    170    176     1
    170    178     1
    170    174     1
    170    198     1
    170    182     1
    169    177     1
    169    173     1
    169    197     1
    169    181     1
    249    251     1
    247    251     1
    246    247     1
    245    248     1
    244    249     1
    244    250     1
    243    250     1
    243    247     1
    243    245     1
    242    251     1
    242    248     1
    242    246     1
    241    249     1
    241    247     1
    241    245     1
    240    251     1
    240    248     1
    240    244     1
    240    243     1
    239    250     1
    239    242     1
    238    241     1
    237    240     1
    237    252     1
    236    239     1
    236    253     1
    235    238     1
    233    286     1
    233    283     1
    232    284     1
    232    252     1
    232    235     1
    231    252     1
    231    285     1
    230    232     1
    230    252     1
    229    233     1
    229    253     1
    229    235     1
    228    236     1
    228    233     1
    226    285     1
    226    230     1
    226    253     1
    226    236     1
    225    231     1
    225    233     1
    225    229     1
    225    253     1
    225    237     1
    224    232     1
    224    228     1
    224    252     1
    224    236     1
    304    306     1
    302    306     1
    301    302     1
    300    303     1
    299    304     1
    299    305     1
    298    305     1
    298    302     1
    298    300     1
    297    306     1
    297    303     1
    297    301     1
    296    304     1
    296    302     1
    296    300     1
    295    306     1
    295    303     1
    295    299     1
    295    298     1
    294    305     1
    294    297     1
    293    296     1
    292    295     1
    292    307     1
    291    294     1
    291    308     1
    290    293     1
    288    341     1
    288    338     1
    287    339     1
    287    307     1
    287    290     1
    286    307     1
    286    340     1
    285    287     1
    285    307     1
    284    288     1
    284    308     1
    284    290     1
    283    291     1
    283    288     1
    281    340     1
    281    285     1
    281    308     1
    281    291     1
    280    286     1
    280    288     1
    280    284     1
    280    308     1
    280    292     1
    279    287     1
    279    283     1
    279    307     1
    279    291     1
    359    361     1
    357    361     1
    356    357     1
    355    358     1
    354    359     1
    354    360     1
    353    360     1
    353    357     1
    353    355     1
    352    361     1
    352    358     1
    352    356     1
    351    359     1
    351    357     1
    351    355     1
    350    361     1
    350    358     1
    350    354     1
    350    353     1
    349    360     1
    349    352     1
    348    351     1
    347    350     1
    347    362     1
    346    349     1
    346    363     1
    345    348     1
    343    396     1
    343    393     1
    342    394     1
    342    362     1
    342    345     1
    341    362     1
    341    395     1
    340    342     1
    340    362     1
    339    343     1
    339    363     1
    339    345     1
    338    346     1
    338    343     1
    336    395     1
    336    340     1
    336    363     1
    336    346     1
    335    341     1
    335    343     1
    335    339     1
    335    363     1
    335    347     1
    334    342     1
    334    338     1
    334    362     1
    334    346     1
    414    416     1
    412    416     1
    411    412     1
    410    413     1
    409    414     1
    409    415     1
    408    415     1
    408    412     1
    408    410     1
    407    416     1
    407    413     1
    407    411     1
    406    414     1
    406    412     1
    406    410     1
    405    416     1
    405    413     1
    405    409     1
    405    408     1
    404    415     1
    404    407     1
    403    406     1
    402    405     1
    402    417     1
    401    404     1
    401    418     1
    400    403     1
    398    451     1
    398    448     1
    397    449     1
    397    417     1
    397    400     1
    396    417     1
    396    450     1
    395    397     1
    395    417     1
    394    398     1
    394    418     1
    394    400     1
    393    401     1
    393    398     1
    391    450     1
    391    395     1
    391    418     1
    391    401     1
    390    396     1
    390    398     1
    390    394     1
    390    418     1
    390    402     1
    389    397     1
    389    393     1
    389    417     1
    389    401     1
    469    471     1
    467    471     1
    466    467     1
    465    468     1
    464    469     1
    464    470     1
    463    470     1
    463    467     1
    463    465     1
    462    471     1
    462    468     1
    462    466     1
    461    469     1
    461    467     1
    461    465     1
    460    471     1
    460    468     1
    460    464     1
    460    463     1
    459    470     1
    459    462     1
    458    461     1
    457    460     1
    457    472     1
    456    459     1
    456    473     1
    455    458     1
    453    506     1
    453    503     1
    452    504     1
    452    472     1
    452    455     1
    451    472     1
    451    505     1
    450    452     1
    450    472     1
    449    453     1
    449    473     1
    449    455     1
    448    456     1
    448    453     1
    446    505     1
    446    450     1
    446    473     1
    446    456     1
    445    451     1
    445    453     1
    445    449     1
    445    473     1
    445    457     1
    444    452     1
    444    448     1
    444    472     1
    444    456     1
    524    526     1
    522    526     1
    521    522     1
    520    523     1
    519    524     1
    519    525     1
    518    525     1
    518    522     1
    518    520     1
    517    526     1
    517    523     1
    517    521     1
    516    524     1
    516    522     1
    516    520     1
    515    526     1
    515    523     1
    515    519     1
    515    518     1
    514    525     1
    514    517     1
    513    516     1
    512    515     1
    512    527     1
    511    514     1
    511    528     1
    510    513     1
    507    527     1
    507    510     1
    506    527     1
    506    554     1
    505    507     1
    505    527     1
    504    508     1
    504    528     1
    504    510     1
    503    511     1
    503    508     1
    501    554     1
    501    505     1
    501    528     1
    501    511     1
    500    506     1
    500    508     1
    500    504     1
    500    528     1
    500    512     1
    499    507     1
    499    503     1
    499    527     1
    499    511     1
      3     35     1
      3      9     1
      2     35     1
      2      9     1
      1     34     1
     57     58     1
     55     56     1
     55     57     1
     53     54     1
     52     54     1
     51     52     1
     51     53     1
     49     51     1
     49     50     1
     48     57     1
     48     49     1
     45     46     1
     45     47     1
     44     46     1
     44     47     1
     43     45     1
     43     44     1
     42     45     1
     42     44     1
     41     43     1
     41     42     1
     40     43     1
     40     42     1
     39     90     1
     39     64     1
     38     39     1
     38     65     1
     37     38     1
     36     38     1
     34     35     1
     34     37     1
     34     36     1
     32     34     1
     32     40     1
     32     41     1
     31     55     1
     31     48     1
     30     56     1
     30     49     1
     29     57     1
     28     58     1
     28     48     1
     28     51     1
     27     56     1
     27     57     1
     27     49     1
     27     52     1
     27     53     1
     26     51     1
     25     49     1
     24     55     1
     24     48     1
     24     50     1
     24     54     1
     23     48     1
     23     51     1
     22     57     1
     22     52     1
     22     53     1
     21     58     1
     21     55     1
     21     46     1
     21     47     1
     21     51     1
     21     50     1
     20     45     1
     20     44     1
     20     57     1
     20     49     1
     19     48     1
     19     43     1
     19     42     1
     18     40     1
     18     41     1
     17     46     1
     17     47     1
     16     45     1
     16     44     1
     15     43     1
     15     42     1
     14     34     1
     14     33     1
     14     15     1
     13     37     1
     13     36     1
     13     89     1
     12     34     1
     12     90     1
     12     14     1
     11     35     1
     11     14     1
     11     39     1
     10     37     1
     10     36     1
     10     14     1
      9     38     1
      8     35     1
      8     37     1
      8     36     1
      8     38     1
      7     38     1
      7     11     1
      7     13     1
      7      9     1
      7     32     1
      7     14     1
      7     15     1
      6     37     1
      6     36     1
      6     39     1
      6     34     1
      5     38     1
      5     14     1
      5     40     1
      5     41     1
      4      7     1
    112    113     1
    110    111     1
    110    112     1
    108    109     1
    107    109     1
    106    107     1
    106    108     1
    104    106     1
    104    105     1
    103    112     1
    103    104     1
    100    101     1
    100    102     1
     99    101     1
     99    102     1
     98    100     1
     98     99     1
     97    100     1
     97     99     1
     96     98     1
     96     97     1
     95     98     1
     95     97     1
     94    145     1
     94    119     1
     93     94     1
     93    120     1
     92     93     1
     91     93     1
     89     90     1
     89     92     1
     89     91     1
     87     89     1
     87     95     1
     87     96     1
     86    110     1
     86    103     1
     85    111     1
     85    104     1
     84    112     1
     83    113     1
     83    103     1
     83    106     1
     82    111     1
     82    112     1
     82    104     1
     82    107     1
     82    108     1
     81    106     1
     80    104     1
     79    110     1
     79    103     1
     79    105     1
     79    109     1
     78    103     1
     78    106     1
     77    112     1
     77    107     1
     77    108     1
     76    113     1
     76    110     1
     76    101     1
     76    102     1
     76    106     1
     76    105     1
     75    100     1
     75     99     1
     75    112     1
     75    104     1
     74    103     1
     74     98     1
     74     97     1
     73     95     1
     73     96     1
     72    101     1
     72    102     1
     71    100     1
     71     99     1
     70     98     1
     70     97     1
     69     89     1
     69     88     1
     69     70     1
     68     92     1
     68     91     1
     68    144     1
     67     89     1
     67    145     1
     67     69     1
     66     90     1
     66     69     1
     66     94     1
     65     92     1
     65     91     1
     65     69     1
     64     93     1
     63     90     1
     63     92     1
     63     91     1
     63     93     1
     62     93     1
     62     66     1
     62     68     1
     62     64     1
     62     87     1
     62     69     1
     62     70     1
     61     92     1
     61     91     1
     61     94     1
     61     89     1
     60     93     1
     60     69     1
     60     95     1
     60     96     1
     59     62     1
    167    168     1
    165    166     1
    165    167     1
    163    164     1
    162    164     1
    161    162     1
    161    163     1
    159    161     1
    159    160     1
    158    167     1
    158    159     1
    155    156     1
    155    157     1
    154    156     1
    154    157     1
    153    155     1
    153    154     1
    152    155     1
    152    154     1
    151    153     1
    151    152     1
    150    153     1
    150    152     1
    149    200     1
    149    174     1
    148    149     1
    148    175     1
    147    148     1
    146    148     1
    144    145     1
    144    147     1
    144    146     1
    142    144     1
    142    150     1
    142    151     1
    141    165     1
    141    158     1
    140    166     1
    140    159     1
    139    167     1
    138    168     1
    138    158     1
    138    161     1
    137    166     1
    137    167     1
    137    159     1
    137    162     1
    137    163     1
    136    161     1
    135    159     1
    134    165     1
    134    158     1
    134    160     1
    134    164     1
    133    158     1
    133    161     1
    132    167     1
    132    162     1
    132    163     1
    131    168     1
    131    165     1
    131    156     1
    131    157     1
    131    161     1
    131    160     1
    130    155     1
    130    154     1
    130    167     1
    130    159     1
    129    158     1
    129    153     1
    129    152     1
    128    150     1
    128    151     1
    127    156     1
    127    157     1
    126    155     1
    126    154     1
    125    153     1
    125    152     1
    124    144     1
    124    143     1
    124    125     1
    123    147     1
    123    146     1
    123    199     1
    122    144     1
    122    200     1
    122    124     1
    121    145     1
    121    124     1
    121    149     1
    120    147     1
    120    146     1
    120    124     1
    119    148     1
    118    145     1
    118    147     1
    118    146     1
    118    148     1
    117    148     1
    117    121     1
    117    123     1
    117    119     1
    117    142     1
    117    124     1
    117    125     1
    116    147     1
    116    146     1
    116    149     1
    116    144     1
    115    148     1
    115    124     1
    115    150     1
    115    151     1
    114    117     1
    222    223     1
    220    221     1
    220    222     1
    218    219     1
    217    219     1
    216    217     1
    216    218     1
    214    216     1
    214    215     1
    213    222     1
    213    214     1
    210    211     1
    210    212     1
    209    211     1
    209    212     1
    208    210     1
    208    209     1
    207    210     1
    207    209     1
    206    208     1
    206    207     1
    205    208     1
    205    207     1
    204    255     1
    204    229     1
    203    204     1
    203    230     1
    202    203     1
    201    203     1
    199    200     1
    199    202     1
    199    201     1
    197    199     1
    197    205     1
    197    206     1
    196    220     1
    196    213     1
    195    221     1
    195    214     1
    194    222     1
    193    223     1
    193    213     1
    193    216     1
    192    221     1
    192    222     1
    192    214     1
    192    217     1
    192    218     1
    191    216     1
    190    214     1
    189    220     1
    189    213     1
    189    215     1
    189    219     1
    188    213     1
    188    216     1
    187    222     1
    187    217     1
    187    218     1
    186    223     1
    186    220     1
    186    211     1
    186    212     1
    186    216     1
    186    215     1
    185    210     1
    185    209     1
    185    222     1
    185    214     1
    184    213     1
    184    208     1
    184    207     1
    183    205     1
    183    206     1
    182    211     1
    182    212     1
    181    210     1
    181    209     1
    180    208     1
    180    207     1
    179    199     1
    179    198     1
    179    180     1
    178    202     1
    178    201     1
    178    254     1
    177    199     1
    177    255     1
    177    179     1
    176    200     1
    176    179     1
    176    204     1
    175    202     1
    175    201     1
    175    179     1
    174    203     1
    173    200     1
    173    202     1
    173    201     1
    173    203     1
    172    203     1
    172    176     1
    172    178     1
    172    174     1
    172    197     1
    172    179     1
    172    180     1
    171    202     1
    171    201     1
    171    204     1
    171    199     1
    170    203     1
    170    179     1
    170    205     1
    170    206     1
    169    172     1
    277    278     1
    275    276     1
    275    277     1
    273    274     1
    272    274     1
    271    272     1
    271    273     1
    269    271     1
    269    270     1
    268    277     1
    268    269     1
    265    266     1
    265    267     1
    264    266     1
    264    267     1
    263    265     1
    263    264     1
    262    265     1
    262    264     1
    261    263     1
    261    262     1
    260    263     1
    260    262     1
    259    310     1
    259    284     1
    258    259     1
    258    285     1
    257    258     1
    256    258     1
    254    255     1
    254    257     1
    254    256     1
    252    254     1
    252    260     1
    252    261     1
    251    275     1
    251    268     1
    250    276     1
    250    269     1
    249    277     1
    248    278     1
    248    268     1
    248    271     1
    247    276     1
    247    277     1
    247    269     1
    247    272     1
    247    273     1
    246    271     1
    245    269     1
    244    275     1
    244    268     1
    244    270     1
    244    274     1
    243    268     1
    243    271     1
    242    277     1
    242    272     1
    242    273     1
    241    278     1
    241    275     1
    241    266     1
    241    267     1
    241    271     1
    241    270     1
    240    265     1
    240    264     1
    240    277     1
    240    269     1
    239    268     1
    239    263     1
    239    262     1
    238    260     1
    238    261     1
    237    266     1
    237    267     1
    236    265     1
    236    264     1
    235    263     1
    235    262     1
    234    254     1
    234    253     1
    234    235     1
    233    257     1
    233    256     1
    233    309     1
    232    254     1
    232    310     1
    232    234     1
    231    255     1
    231    234     1
    231    259     1
    230    257     1
    230    256     1
    230    234     1
    229    258     1
    228    255     1
    228    257     1
    228    256     1
    228    258     1
    227    258     1
    227    231     1
    227    233     1
    227    229     1
    227    252     1
    227    234     1
    227    235     1
    226    257     1
    226    256     1
    226    259     1
    226    254     1
    225    258     1
    225    234     1
    225    260     1
    225    261     1
    224    227     1
    332    333     1
    330    331     1
    330    332     1
    328    329     1
    327    329     1
    326    327     1
    326    328     1
    324    326     1
    324    325     1
    323    332     1
    323    324     1
    320    321     1
    320    322     1
    319    321     1
    319    322     1
    318    320     1
    318    319     1
    317    320     1
    317    319     1
    316    318     1
    316    317     1
    315    318     1
    315    317     1
    314    365     1
    314    339     1
    313    314     1
    313    340     1
    312    313     1
    311    313     1
    309    310     1
    309    312     1
    309    311     1
    307    309     1
    307    315     1
    307    316     1
    306    330     1
    306    323     1
    305    331     1
    305    324     1
    304    332     1
    303    333     1
    303    323     1
    303    326     1
    302    331     1
    302    332     1
    302    324     1
    302    327     1
    302    328     1
    301    326     1
    300    324     1
    299    330     1
    299    323     1
    299    325     1
    299    329     1
    298    323     1
    298    326     1
    297    332     1
    297    327     1
    297    328     1
    296    333     1
    296    330     1
    296    321     1
    296    322     1
    296    326     1
    296    325     1
    295    320     1
    295    319     1
    295    332     1
    295    324     1
    294    323     1
    294    318     1
    294    317     1
    293    315     1
    293    316     1
    292    321     1
    292    322     1
    291    320     1
    291    319     1
    290    318     1
    290    317     1
    289    309     1
    289    308     1
    289    290     1
    288    312     1
    288    311     1
    288    364     1
    287    309     1
    287    365     1
    287    289     1
    286    310     1
    286    289     1
    286    314     1
    285    312     1
    285    311     1
    285    289     1
    284    313     1
    283    310     1
    283    312     1
    283    311     1
    283    313     1
    282    313     1
    282    286     1
    282    288     1
    282    284     1
    282    307     1
    282    289     1
    282    290     1
    281    312     1
    281    311     1
    281    314     1
    281    309     1
    280    313     1
    280    289     1
    280    315     1
    280    316     1
    279    282     1
    387    388     1
    385    386     1
    385    387     1
    383    384     1
    382    384     1
    381    382     1
    381    383     1
    379    381     1
    379    380     1
    378    387     1
    378    379     1
    375    376     1
    375    377     1
    374    376     1
    374    377     1
    373    375     1
    373    374     1
    372    375     1
    372    374     1
    371    373     1
    371    372     1
    370    373     1
    370    372     1
    369    420     1
    369    394     1
    368    369     1
    368    395     1
    367    368     1
    366    368     1
    364    365     1
    364    367     1
    364    366     1
    362    364     1
    362    370     1
    362    371     1
    361    385     1
    361    378     1
    360    386     1
    360    379     1
    359    387     1
    358    388     1
    358    378     1
    358    381     1
    357    386     1
    357    387     1
    357    379     1
    357    382     1
    357    383     1
    356    381     1
    355    379     1
    354    385     1
    354    378     1
    354    380     1
    354    384     1
    353    378     1
    353    381     1
    352    387     1
    352    382     1
    352    383     1
    351    388     1
    351    385     1
    351    376     1
    351    377     1
    351    381     1
    351    380     1
    350    375     1
    350    374     1
    350    387     1
    350    379     1
    349    378     1
    349    373     1
    349    372     1
    348    370     1
    348    371     1
    347    376     1
    347    377     1
    346    375     1
    346    374     1
    345    373     1
    345    372     1
    344    364     1
    344    363     1
    344    345     1
    343    367     1
    343    366     1
    343    419     1
    342    364     1
    342    420     1
    342    344     1
    341    365     1
    341    344     1
    341    369     1
    340    367     1
    340    366     1
    340    344     1
    339    368     1
    338    365     1
    338    367     1
    338    366     1
    338    368     1
    337    368     1
    337    341     1
    337    343     1
    337    339     1
    337    362     1
    337    344     1
    337    345     1
    336    367     1
    336    366     1
    336    369     1
    336    364     1
    335    368     1
    335    344     1
    335    370     1
    335    371     1
    334    337     1
    442    443     1
    440    441     1
    440    442     1
    438    439     1
    437    439     1
    436    437     1
    436    438     1
    434    436     1
    434    435     1
    433    442     1
    433    434     1
    430    431     1
    430    432     1
    429    431     1
    429    432     1
    428    430     1
    428    429     1
    427    430     1
    427    429     1
    426    428     1
    426    427     1
    425    428     1
    425    427     1
    424    475     1
    424    449     1
    423    424     1
    423    450     1
    422    423     1
    421    423     1
    419    420     1
    419    422     1
    419    421     1
    417    419     1
    417    425     1
    417    426     1
    416    440     1
    416    433     1
    415    441     1
    415    434     1
    414    442     1
    413    443     1
    413    433     1
    413    436     1
    412    441     1
    412    442     1
    412    434     1
    412    437     1
    412    438     1
    411    436     1
    410    434     1
    409    440     1
    409    433     1
    409    435     1
    409    439     1
    408    433     1
    408    436     1
    407    442     1
    407    437     1
    407    438     1
    406    443     1
    406    440     1
    406    431     1
    406    432     1
    406    436     1
    406    435     1
    405    430     1
    405    429     1
    405    442     1
    405    434     1
    404    433     1
    404    428     1
    404    427     1
    403    425     1
    403    426     1
    402    431     1
    402    432     1
    401    430     1
    401    429     1
    400    428     1
    400    427     1
    399    419     1
    399    418     1
    399    400     1
    398    422     1
    398    421     1
    398    474     1
    397    419     1
    397    475     1
    397    399     1
    396    420     1
    396    399     1
    396    424     1
    395    422     1
    395    421     1
    395    399     1
    394    423     1
    393    420     1
    393    422     1
    393    421     1
    393    423     1
    392    423     1
    392    396     1
    392    398     1
    392    394     1
    392    417     1
    392    399     1
    392    400     1
    391    422     1
    391    421     1
    391    424     1
    391    419     1
    390    423     1
    390    399     1
    390    425     1
    390    426     1
    389    392     1
    497    498     1
    495    496     1
    495    497     1
    493    494     1
    492    494     1
    491    492     1
    491    493     1
    489    491     1
    489    490     1
    488    497     1
    488    489     1
    485    486     1
    485    487     1
    484    486     1
    484    487     1
    483    485     1
    483    484     1
    482    485     1
    482    484     1
    481    483     1
    481    482     1
    480    483     1
    480    482     1
    479    530     1
    479    504     1
    478    479     1
    478    505     1
    477    478     1
    476    478     1
    474    475     1
    474    477     1
    474    476     1
    472    474     1
    472    480     1
    472    481     1
    471    495     1
    471    488     1
    470    496     1
    470    489     1
    469    497     1
    468    498     1
    468    488     1
    468    491     1
    467    496     1
    467    497     1
    467    489     1
    467    492     1
    467    493     1
    466    491     1
    465    489     1
    464    495     1
    464    488     1
    464    490     1
    464    494     1
    463    488     1
    463    491     1
    462    497     1
    462    492     1
    462    493     1
    461    498     1
    461    495     1
    461    486     1
    461    487     1
    461    491     1
    461    490     1
    460    485     1
    460    484     1
    460    497     1
    460    489     1
    459    488     1
    459    483     1
    459    482     1
    458    480     1
    458    481     1
    457    486     1
    457    487     1
    456    485     1
    456    484     1
    455    483     1
    455    482     1
    454    474     1
    454    473     1
    454    455     1
    453    477     1
    453    476     1
    453    529     1
    452    474     1
    452    530     1
    452    454     1
    451    475     1
    451    454     1
    451    479     1
    450    477     1
    450    476     1
    450    454     1
    449    478     1
    448    475     1
    448    477     1
    448    476     1
    448    478     1
    447    478     1
    447    451     1
    447    453     1
    447    449     1
    447    472     1
    447    454     1
    447    455     1
    446    477     1
    446    476     1
    446    479     1
    446    474     1
    445    478     1
    445    454     1
    445    480     1
    445    481     1
    444    447     1
    552    553     1
    550    551     1
    550    552     1
    548    549     1
    547    549     1
    546    547     1
    546    548     1
    544    546     1
    544    545     1
    543    552     1
    543    544     1
    540    541     1
    540    542     1
    539    541     1
    539    542     1
    538    540     1
    538    539     1
    537    540     1
    537    539     1
    536    538     1
    536    537     1
    535    538     1
    535    537     1
    534    555     1
    534    556     1
    533    534     1
    533    554     1
    532    533     1
    531    533     1
    529    530     1
    529    532     1
    529    531     1
    527    529     1
    527    535     1
    527    536     1
    526    550     1
    526    543     1
    525    551     1
    525    544     1
    524    552     1
    523    553     1
    523    543     1
    523    546     1
    522    551     1
    522    552     1
    522    544     1
    522    547     1
    522    548     1
    521    546     1
    520    544     1
    519    550     1
    519    543     1
    519    545     1
    519    549     1
    518    543     1
    518    546     1
    517    552     1
    517    547     1
    517    548     1
    516    553     1
    516    550     1
    516    541     1
    516    542     1
    516    546     1
    516    545     1
    515    540     1
    515    539     1
    515    552     1
    515    544     1
    514    543     1
    514    538     1
    514    537     1
    513    535     1
    513    536     1
    512    541     1
    512    542     1
    511    540     1
    511    539     1
    510    538     1
    510    537     1
    509    529     1
    509    528     1
    509    510     1
    508    532     1
    508    531     1
    507    529     1
    507    555     1
    507    556     1
    507    509     1
    506    530     1
    506    509     1
    506    534     1
    505    532     1
    505    531     1
    505    509     1
    504    533     1
    503    530     1
    503    532     1
    503    531     1
    503    533     1
    502    533     1
    502    506     1
    502    508     1
    502    504     1
    502    527     1
    502    509     1
    502    510     1
    501    532     1
    501    531     1
    501    534     1
    501    529     1
    500    533     1
    500    509     1
    500    535     1
    500    536     1
    499    502     1

[ angles ]
;    ai     aj     ak funct         c0         c1         c2         c3
      1     10      9     1   123.6300530 536.388800
     29     28     30     1   110.1900474 564.840000
     28     30     31     1   110.1900474 564.840000
     27     28     29     1   109.3800466 607.516800
     27     28     30     1   107.9700462 569.024000
     25     24     27     1   107.9700462 569.024000
     24     27     28     1   112.4800480 524.673600
     24     25     26     1   110.1900474 564.840000
     23     22     24     1   110.1900474 564.840000
     22     21     30     1   111.5100476 526.347200
     22     24     27     1   107.9700462 569.024000
     22     24     25     1   111.5100476 526.347200
     21     30     31     1   110.1900474 564.840000
     21     30     28     1   111.5100476 526.347200
     21     22     24     1   111.5100476 526.347200
     21     22     23     1   110.1900474 564.840000
     20     21     30     1   107.9700462 569.024000
     20     21     22     1   107.9700462 569.024000
     19     20     21     1   112.4800480 524.673600
     18     19     20     1   107.6200464 648.017920
     17     18     19     1   112.6300483 500.992160
     16     17     18     1   112.6300483 500.992160
     16     15     32     1   118.8300510 646.344320
     15     32     33     1   122.5700525 725.338240
     15     16     17     1   112.7800481 543.501600
     13     65     64     1   123.6300530 536.388800
     12     13     65     1   123.6300530 536.388800
     11     12     13     1   111.5600479 530.531200
     10      9     11     1   111.5600479 530.531200
      9     11     12     1   111.5100476 526.347200
      9      8     32     1   111.0400475 529.694400
      8      9     10     1   111.5600479 530.531200
      8      9     11     1   111.5100476 526.347200
      8     32     33     1   123.2000528 564.003200
      8     32     15     1   115.1800491 558.982400
      8      6     12     1   111.5100476 526.347200
      6     12     11     1   111.5100476 526.347200
      6     12     13     1   111.5600479 530.531200
      6      8      9     1   111.5100476 526.347200
      6      8     32     1   111.0400475 529.694400
      6      5     15     1   115.1800491 558.982400
      5      6     12     1   111.0400475 529.694400
      5      6      8     1   111.0400475 529.694400
      5     15     32     1   125.2100535 645.591200
      5     15     16     1   118.8300510 646.344320
      4      5      6     1   123.2000528 564.003200
      4      5     15     1   122.5700525 725.338240
     84     83     85     1   110.1900474 564.840000
     83     85     86     1   110.1900474 564.840000
     82     83     84     1   109.3800466 607.516800
     82     83     85     1   107.9700462 569.024000
     80     79     82     1   107.9700462 569.024000
     79     82     83     1   112.4800480 524.673600
     79     80     81     1   110.1900474 564.840000
     78     77     79     1   110.1900474 564.840000
     77     76     85     1   111.5100476 526.347200
     77     79     82     1   107.9700462 569.024000
     77     79     80     1   111.5100476 526.347200
     76     85     86     1   110.1900474 564.840000
     76     85     83     1   111.5100476 526.347200
     76     77     79     1   111.5100476 526.347200
     76     77     78     1   110.1900474 564.840000
     75     76     85     1   107.9700462 569.024000
     75     76     77     1   107.9700462 569.024000
     74     75     76     1   112.4800480 524.673600
     73     74     75     1   107.6200464 648.017920
     72     73     74     1   112.6300483 500.992160
     71     72     73     1   112.6300483 500.992160
     71     70     87     1   118.8300510 646.344320
     70     87     88     1   122.5700525 725.338240
     70     71     72     1   112.7800481 543.501600
     68    120    119     1   123.6300530 536.388800
     67     68    120     1   123.6300530 536.388800
     66     67     68     1   111.5600479 530.531200
     65     64     66     1   111.5600479 530.531200
     64     66     67     1   111.5100476 526.347200
     64     63     87     1   111.0400475 529.694400
     63     64     65     1   111.5600479 530.531200
     63     64     66     1   111.5100476 526.347200
     63     87     88     1   123.2000528 564.003200
     63     87     70     1   115.1800491 558.982400
     63     61     67     1   111.5100476 526.347200
     61     67     66     1   111.5100476 526.347200
     61     67     68     1   111.5600479 530.531200
     61     63     64     1   111.5100476 526.347200
     61     63     87     1   111.0400475 529.694400
     61     60     70     1   115.1800491 558.982400
     60     61     67     1   111.0400475 529.694400
     60     61     63     1   111.0400475 529.694400
     60     70     87     1   125.2100535 645.591200
     60     70     71     1   118.8300510 646.344320
     59     60     61     1   123.2000528 564.003200
     59     60     70     1   122.5700525 725.338240
    139    138    140     1   110.1900474 564.840000
    138    140    141     1   110.1900474 564.840000
    137    138    139     1   109.3800466 607.516800
    137    138    140     1   107.9700462 569.024000
    135    134    137     1   107.9700462 569.024000
    134    137    138     1   112.4800480 524.673600
    134    135    136     1   110.1900474 564.840000
    133    132    134     1   110.1900474 564.840000
    132    131    140     1   111.5100476 526.347200
    132    134    137     1   107.9700462 569.024000
    132    134    135     1   111.5100476 526.347200
    131    140    141     1   110.1900474 564.840000
    131    140    138     1   111.5100476 526.347200
    131    132    134     1   111.5100476 526.347200
    131    132    133     1   110.1900474 564.840000
    130    131    140     1   107.9700462 569.024000
    130    131    132     1   107.9700462 569.024000
    129    130    131     1   112.4800480 524.673600
    128    129    130     1   107.6200464 648.017920
    127    128    129     1   112.6300483 500.992160
    126    127    128     1   112.6300483 500.992160
    126    125    142     1   118.8300510 646.344320
    125    142    143     1   122.5700525 725.338240
    125    126    127     1   112.7800481 543.501600
    123    175    174     1   123.6300530 536.388800
    122    123    175     1   123.6300530 536.388800
    121    122    123     1   111.5600479 530.531200
    120    119    121     1   111.5600479 530.531200
    119    121    122     1   111.5100476 526.347200
    119    118    142     1   111.0400475 529.694400
    118    119    120     1   111.5600479 530.531200
    118    119    121     1   111.5100476 526.347200
    118    142    143     1   123.2000528 564.003200
    118    142    125     1   115.1800491 558.982400
    118    116    122     1   111.5100476 526.347200
    116    122    121     1   111.5100476 526.347200
    116    122    123     1   111.5600479 530.531200
    116    118    119     1   111.5100476 526.347200
    116    118    142     1   111.0400475 529.694400
    116    115    125     1   115.1800491 558.982400
    115    116    122     1   111.0400475 529.694400
    115    116    118     1   111.0400475 529.694400
    115    125    142     1   125.2100535 645.591200
    115    125    126     1   118.8300510 646.344320
    114    115    116     1   123.2000528 564.003200
    114    115    125     1   122.5700525 725.338240
    194    193    195     1   110.1900474 564.840000
    193    195    196     1   110.1900474 564.840000
    192    193    194     1   109.3800466 607.516800
    192    193    195     1   107.9700462 569.024000
    190    189    192     1   107.9700462 569.024000
    189    192    193     1   112.4800480 524.673600
    189    190    191     1   110.1900474 564.840000
    188    187    189     1   110.1900474 564.840000
    187    186    195     1   111.5100476 526.347200
    187    189    192     1   107.9700462 569.024000
    187    189    190     1   111.5100476 526.347200
    186    195    196     1   110.1900474 564.840000
    186    195    193     1   111.5100476 526.347200
    186    187    189     1   111.5100476 526.347200
    186    187    188     1   110.1900474 564.840000
    185    186    195     1   107.9700462 569.024000
    185    186    187     1   107.9700462 569.024000
    184    185    186     1   112.4800480 524.673600
    183    184    185     1   107.6200464 648.017920
    182    183    184     1   112.6300483 500.992160
    181    182    183     1   112.6300483 500.992160
    181    180    197     1   118.8300510 646.344320
    180    197    198     1   122.5700525 725.338240
    180    181    182     1   112.7800481 543.501600
    178    230    229     1   123.6300530 536.388800
    177    178    230     1   123.6300530 536.388800
    176    177    178     1   111.5600479 530.531200
    175    174    176     1   111.5600479 530.531200
    174    176    177     1   111.5100476 526.347200
    174    173    197     1   111.0400475 529.694400
    173    174    175     1   111.5600479 530.531200
    173    174    176     1   111.5100476 526.347200
    173    197    198     1   123.2000528 564.003200
    173    197    180     1   115.1800491 558.982400
    173    171    177     1   111.5100476 526.347200
    171    177    176     1   111.5100476 526.347200
    171    177    178     1   111.5600479 530.531200
    171    173    174     1   111.5100476 526.347200
    171    173    197     1   111.0400475 529.694400
    171    170    180     1   115.1800491 558.982400
    170    171    177     1   111.0400475 529.694400
    170    171    173     1   111.0400475 529.694400
    170    180    197     1   125.2100535 645.591200
    170    180    181     1   118.8300510 646.344320
    169    170    171     1   123.2000528 564.003200
    169    170    180     1   122.5700525 725.338240
    249    248    250     1   110.1900474 564.840000
    248    250    251     1   110.1900474 564.840000
    247    248    249     1   109.3800466 607.516800
    247    248    250     1   107.9700462 569.024000
    245    244    247     1   107.9700462 569.024000
    244    247    248     1   112.4800480 524.673600
    244    245    246     1   110.1900474 564.840000
    243    242    244     1   110.1900474 564.840000
    242    241    250     1   111.5100476 526.347200
    242    244    247     1   107.9700462 569.024000
    242    244    245     1   111.5100476 526.347200
    241    250    251     1   110.1900474 564.840000
    241    250    248     1   111.5100476 526.347200
    241    242    244     1   111.5100476 526.347200
    241    242    243     1   110.1900474 564.840000
    240    241    250     1   107.9700462 569.024000
    240    241    242     1   107.9700462 569.024000
    239    240    241     1   112.4800480 524.673600
    238    239    240     1   107.6200464 648.017920
    237    238    239     1   112.6300483 500.992160
    236    237    238     1   112.6300483 500.992160
    236    235    252     1   118.8300510 646.344320
    235    252    253     1   122.5700525 725.338240
    235    236    237     1   112.7800481 543.501600
    233    285    284     1   123.6300530 536.388800
    232    233    285     1   123.6300530 536.388800
    231    232    233     1   111.5600479 530.531200
    230    229    231     1   111.5600479 530.531200
    229    231    232     1   111.5100476 526.347200
    229    228    252     1   111.0400475 529.694400
    228    229    230     1   111.5600479 530.531200
    228    229    231     1   111.5100476 526.347200
    228    252    253     1   123.2000528 564.003200
    228    252    235     1   115.1800491 558.982400
    228    226    232     1   111.5100476 526.347200
    226    232    231     1   111.5100476 526.347200
    226    232    233     1   111.5600479 530.531200
    226    228    229     1   111.5100476 526.347200
    226    228    252     1   111.0400475 529.694400
    226    225    235     1   115.1800491 558.982400
    225    226    232     1   111.0400475 529.694400
    225    226    228     1   111.0400475 529.694400
    225    235    252     1   125.2100535 645.591200
    225    235    236     1   118.8300510 646.344320
    224    225    226     1   123.2000528 564.003200
    224    225    235     1   122.5700525 725.338240
    304    303    305     1   110.1900474 564.840000
    303    305    306     1   110.1900474 564.840000
    302    303    304     1   109.3800466 607.516800
    302    303    305     1   107.9700462 569.024000
    300    299    302     1   107.9700462 569.024000
    299    302    303     1   112.4800480 524.673600
    299    300    301     1   110.1900474 564.840000
    298    297    299     1   110.1900474 564.840000
    297    296    305     1   111.5100476 526.347200
    297    299    302     1   107.9700462 569.024000
    297    299    300     1   111.5100476 526.347200
    296    305    306     1   110.1900474 564.840000
    296    305    303     1   111.5100476 526.347200
    296    297    299     1   111.5100476 526.347200
    296    297    298     1   110.1900474 564.840000
    295    296    305     1   107.9700462 569.024000
    295    296    297     1   107.9700462 569.024000
    294    295    296     1   112.4800480 524.673600
    293    294    295     1   107.6200464 648.017920
    292    293    294     1   112.6300483 500.992160
    291    292    293     1   112.6300483 500.992160
    291    290    307     1   118.8300510 646.344320
    290    307    308     1   122.5700525 725.338240
    290    291    292     1   112.7800481 543.501600
    288    340    339     1   123.6300530 536.388800
    287    288    340     1   123.6300530 536.388800
    286    287    288     1   111.5600479 530.531200
    285    284    286     1   111.5600479 530.531200
    284    286    287     1   111.5100476 526.347200
    284    283    307     1   111.0400475 529.694400
    283    284    285     1   111.5600479 530.531200
    283    284    286     1   111.5100476 526.347200
    283    307    308     1   123.2000528 564.003200
    283    307    290     1   115.1800491 558.982400
    283    281    287     1   111.5100476 526.347200
    281    287    286     1   111.5100476 526.347200
    281    287    288     1   111.5600479 530.531200
    281    283    284     1   111.5100476 526.347200
    281    283    307     1   111.0400475 529.694400
    281    280    290     1   115.1800491 558.982400
    280    281    287     1   111.0400475 529.694400
    280    281    283     1   111.0400475 529.694400
    280    290    307     1   125.2100535 645.591200
    280    290    291     1   118.8300510 646.344320
    279    280    281     1   123.2000528 564.003200
    279    280    290     1   122.5700525 725.338240
    359    358    360     1   110.1900474 564.840000
    358    360    361     1   110.1900474 564.840000
    357    358    359     1   109.3800466 607.516800
    357    358    360     1   107.9700462 569.024000
    355    354    357     1   107.9700462 569.024000
    354    357    358     1   112.4800480 524.673600
    354    355    356     1   110.1900474 564.840000
    353    352    354     1   110.1900474 564.840000
    352    351    360     1   111.5100476 526.347200
    352    354    357     1   107.9700462 569.024000
    352    354    355     1   111.5100476 526.347200
    351    360    361     1   110.1900474 564.840000
    351    360    358     1   111.5100476 526.347200
    351    352    354     1   111.5100476 526.347200
    351    352    353     1   110.1900474 564.840000
    350    351    360     1   107.9700462 569.024000
    350    351    352     1   107.9700462 569.024000
    349    350    351     1   112.4800480 524.673600
    348    349    350     1   107.6200464 648.017920
    347    348    349     1   112.6300483 500.992160
    346    347    348     1   112.6300483 500.992160
    346    345    362     1   118.8300510 646.344320
    345    362    363     1   122.5700525 725.338240
    345    346    347     1   112.7800481 543.501600
    343    395    394     1   123.6300530 536.388800
    342    343    395     1   123.6300530 536.388800
    341    342    343     1   111.5600479 530.531200
    340    339    341     1   111.5600479 530.531200
    339    341    342     1   111.5100476 526.347200
    339    338    362     1   111.0400475 529.694400
    338    339    340     1   111.5600479 530.531200
    338    339    341     1   111.5100476 526.347200
    338    362    363     1   123.2000528 564.003200
    338    362    345     1   115.1800491 558.982400
    338    336    342     1   111.5100476 526.347200
    336    342    341     1   111.5100476 526.347200
    336    342    343     1   111.5600479 530.531200
    336    338    339     1   111.5100476 526.347200
    336    338    362     1   111.0400475 529.694400
    336    335    345     1   115.1800491 558.982400
    335    336    342     1   111.0400475 529.694400
    335    336    338     1   111.0400475 529.694400
    335    345    362     1   125.2100535 645.591200
    335    345    346     1   118.8300510 646.344320
    334    335    336     1   123.2000528 564.003200
    334    335    345     1   122.5700525 725.338240
    414    413    415     1   110.1900474 564.840000
    413    415    416     1   110.1900474 564.840000
    412    413    414     1   109.3800466 607.516800
    412    413    415     1   107.9700462 569.024000
    410    409    412     1   107.9700462 569.024000
    409    412    413     1   112.4800480 524.673600
    409    410    411     1   110.1900474 564.840000
    408    407    409     1   110.1900474 564.840000
    407    406    415     1   111.5100476 526.347200
    407    409    412     1   107.9700462 569.024000
    407    409    410     1   111.5100476 526.347200
    406    415    416     1   110.1900474 564.840000
    406    415    413     1   111.5100476 526.347200
    406    407    409     1   111.5100476 526.347200
    406    407    408     1   110.1900474 564.840000
    405    406    415     1   107.9700462 569.024000
    405    406    407     1   107.9700462 569.024000
    404    405    406     1   112.4800480 524.673600
    403    404    405     1   107.6200464 648.017920
    402    403    404     1   112.6300483 500.992160
    401    402    403     1   112.6300483 500.992160
    401    400    417     1   118.8300510 646.344320
    400    417    418     1   122.5700525 725.338240
    400    401    402     1   112.7800481 543.501600
    398    450    449     1   123.6300530 536.388800
    397    398    450     1   123.6300530 536.388800
    396    397    398     1   111.5600479 530.531200
    395    394    396     1   111.5600479 530.531200
    394    396    397     1   111.5100476 526.347200
    394    393    417     1   111.0400475 529.694400
    393    394    395     1   111.5600479 530.531200
    393    394    396     1   111.5100476 526.347200
    393    417    418     1   123.2000528 564.003200
    393    417    400     1   115.1800491 558.982400
    393    391    397     1   111.5100476 526.347200
    391    397    396     1   111.5100476 526.347200
    391    397    398     1   111.5600479 530.531200
    391    393    394     1   111.5100476 526.347200
    391    393    417     1   111.0400475 529.694400
    391    390    400     1   115.1800491 558.982400
    390    391    397     1   111.0400475 529.694400
    390    391    393     1   111.0400475 529.694400
    390    400    417     1   125.2100535 645.591200
    390    400    401     1   118.8300510 646.344320
    389    390    391     1   123.2000528 564.003200
    389    390    400     1   122.5700525 725.338240
    469    468    470     1   110.1900474 564.840000
    468    470    471     1   110.1900474 564.840000
    467    468    469     1   109.3800466 607.516800
    467    468    470     1   107.9700462 569.024000
    465    464    467     1   107.9700462 569.024000
    464    467    468     1   112.4800480 524.673600
    464    465    466     1   110.1900474 564.840000
    463    462    464     1   110.1900474 564.840000
    462    461    470     1   111.5100476 526.347200
    462    464    467     1   107.9700462 569.024000
    462    464    465     1   111.5100476 526.347200
    461    470    471     1   110.1900474 564.840000
    461    470    468     1   111.5100476 526.347200
    461    462    464     1   111.5100476 526.347200
    461    462    463     1   110.1900474 564.840000
    460    461    470     1   107.9700462 569.024000
    460    461    462     1   107.9700462 569.024000
    459    460    461     1   112.4800480 524.673600
    458    459    460     1   107.6200464 648.017920
    457    458    459     1   112.6300483 500.992160
    456    457    458     1   112.6300483 500.992160
    456    455    472     1   118.8300510 646.344320
    455    472    473     1   122.5700525 725.338240
    455    456    457     1   112.7800481 543.501600
    453    505    504     1   123.6300530 536.388800
    452    453    505     1   123.6300530 536.388800
    451    452    453     1   111.5600479 530.531200
    450    449    451     1   111.5600479 530.531200
    449    451    452     1   111.5100476 526.347200
    449    448    472     1   111.0400475 529.694400
    448    449    450     1   111.5600479 530.531200
    448    449    451     1   111.5100476 526.347200
    448    472    473     1   123.2000528 564.003200
    448    472    455     1   115.1800491 558.982400
    448    446    452     1   111.5100476 526.347200
    446    452    451     1   111.5100476 526.347200
    446    452    453     1   111.5600479 530.531200
    446    448    449     1   111.5100476 526.347200
    446    448    472     1   111.0400475 529.694400
    446    445    455     1   115.1800491 558.982400
    445    446    452     1   111.0400475 529.694400
    445    446    448     1   111.0400475 529.694400
    445    455    472     1   125.2100535 645.591200
    445    455    456     1   118.8300510 646.344320
    444    445    446     1   123.2000528 564.003200
    444    445    455     1   122.5700525 725.338240
    524    523    525     1   110.1900474 564.840000
    523    525    526     1   110.1900474 564.840000
    522    523    524     1   109.3800466 607.516800
    522    523    525     1   107.9700462 569.024000
    520    519    522     1   107.9700462 569.024000
    519    522    523     1   112.4800480 524.673600
    519    520    521     1   110.1900474 564.840000
    518    517    519     1   110.1900474 564.840000
    517    516    525     1   111.5100476 526.347200
    517    519    522     1   107.9700462 569.024000
    517    519    520     1   111.5100476 526.347200
    516    525    526     1   110.1900474 564.840000
    516    525    523     1   111.5100476 526.347200
    516    517    519     1   111.5100476 526.347200
    516    517    518     1   110.1900474 564.840000
    515    516    525     1   107.9700462 569.024000
    515    516    517     1   107.9700462 569.024000
    514    515    516     1   112.4800480 524.673600
    513    514    515     1   107.6200464 648.017920
    512    513    514     1   112.6300483 500.992160
    511    512    513     1   112.6300483 500.992160
    511    510    527     1   118.8300510 646.344320
    510    527    528     1   122.5700525 725.338240
    510    511    512     1   112.7800481 543.501600
    507    508    554     1   123.6300530 536.388800
    506    507    508     1   111.5600479 530.531200
    505    504    506     1   111.5600479 530.531200
    504    506    507     1   111.5100476 526.347200
    504    503    527     1   111.0400475 529.694400
    503    504    505     1   111.5600479 530.531200
    503    504    506     1   111.5100476 526.347200
    503    527    528     1   123.2000528 564.003200
    503    527    510     1   115.1800491 558.982400
    503    501    507     1   111.5100476 526.347200
    501    507    506     1   111.5100476 526.347200
    501    507    508     1   111.5600479 530.531200
    501    503    504     1   111.5100476 526.347200
    501    503    527     1   111.0400475 529.694400
    501    500    510     1   115.1800491 558.982400
    500    501    507     1   111.0400475 529.694400
    500    501    503     1   111.0400475 529.694400
    500    510    527     1   125.2100535 645.591200
    500    510    511     1   118.8300510 646.344320
    499    500    501     1   123.2000528 564.003200
    499    500    510     1   122.5700525 725.338240
      3      1     10     1   120.3900518 388.024160
      2      1      3     1   116.6600501 290.034880
      2      1     10     1   120.3900518 388.024160
      1     10     35     1   120.3900518 388.024160
     52     25     53     1   108.5500468 298.235520
     46     19     47     1   108.5500468 298.235520
     44     18     45     1   107.7300462 299.574400
     42     17     43     1   107.7300462 299.574400
     40     16     41     1   108.5500468 298.235520
     39     13     65     1   120.3900518 388.024160
     36     11     37     1   107.5800459 329.699200
     31     30     57     1   110.2600474 425.931200
     30     31     58     1   107.2600461 396.643200
     30     28     55     1   110.2200475 386.601600
     30     21     48     1   109.5600471 388.275200
     29     28     55     1   109.4300470 427.604800
     28     29     56     1   107.2600461 396.643200
     28     30     57     1   109.5600471 388.275200
     27     28     55     1   109.5800467 425.931200
     27     24     51     1   109.7800468 425.094400
     26     25     52     1   110.3800471 471.034720
     26     25     53     1   110.3800471 471.034720
     25     24     51     1   109.5600471 388.275200
     25     26     54     1   107.3900462 545.007840
     24     22     49     1   109.5600471 388.275200
     24     25     52     1   109.5600471 388.275200
     24     25     53     1   109.5600471 388.275200
     23     22     49     1   110.2600474 425.931200
     22     21     48     1   109.5600471 388.275200
     22     24     51     1   109.5600471 388.275200
     22     23     50     1   107.2600461 396.643200
     21     30     57     1   109.5600471 388.275200
     21     22     49     1   109.5600471 388.275200
     20     19     46     1   110.3400472 470.281600
     20     19     47     1   110.3400472 470.281600
     20     21     48     1   109.7800468 425.094400
     19     18     45     1   109.6800468 362.083360
     19     18     44     1   109.6800468 362.083360
     18     19     46     1   109.5900471 362.167040
     18     19     47     1   109.5900471 362.167040
     18     17     43     1   109.6800468 362.083360
     18     17     42     1   109.6800468 362.083360
     17     18     45     1   109.6800468 362.083360
     17     18     44     1   109.6800468 362.083360
     17     16     40     1   109.5900471 362.167040
     17     16     41     1   109.5900471 362.167040
     16     17     43     1   109.6800468 362.083360
     16     17     42     1   109.6800468 362.083360
     15     16     40     1   108.7600467 402.417120
     15     16     41     1   108.7600467 402.417120
     14      8     32     1   108.7700466 392.459200
     13     12     38     1   110.3600474 393.296000
     13     65     90     1   120.3900518 388.024160
     12     11     37     1   109.8000471 387.438400
     12     11     36     1   109.8000471 387.438400
     12     13     39     1   115.6800493 384.091200
     11      9     34     1   109.8000471 387.438400
     11     12     38     1   109.8000471 387.438400
     10      9     34     1   110.3600474 393.296000
      9     10     35     1   115.6800493 384.091200
      9     11     37     1   109.8000471 387.438400
      9     11     36     1   109.8000471 387.438400
      9      8     14     1   109.8000471 387.438400
      8      9     34     1   109.8000471 387.438400
      7      6     12     1   109.8000471 387.438400
      7      6      8     1   109.8000471 387.438400
      6     12     38     1   109.8000471 387.438400
      6      8     14     1   109.8000471 387.438400
      5      6      7     1   108.7700466 392.459200
    107     80    108     1   108.5500468 298.235520
    101     74    102     1   108.5500468 298.235520
     99     73    100     1   107.7300462 299.574400
     97     72     98     1   107.7300462 299.574400
     95     71     96     1   108.5500468 298.235520
     94     68    120     1   120.3900518 388.024160
     91     66     92     1   107.5800459 329.699200
     86     85    112     1   110.2600474 425.931200
     85     86    113     1   107.2600461 396.643200
     85     83    110     1   110.2200475 386.601600
     85     76    103     1   109.5600471 388.275200
     84     83    110     1   109.4300470 427.604800
     83     84    111     1   107.2600461 396.643200
     83     85    112     1   109.5600471 388.275200
     82     83    110     1   109.5800467 425.931200
     82     79    106     1   109.7800468 425.094400
     81     80    107     1   110.3800471 471.034720
     81     80    108     1   110.3800471 471.034720
     80     79    106     1   109.5600471 388.275200
     80     81    109     1   107.3900462 545.007840
     79     77    104     1   109.5600471 388.275200
     79     80    107     1   109.5600471 388.275200
     79     80    108     1   109.5600471 388.275200
     78     77    104     1   110.2600474 425.931200
     77     76    103     1   109.5600471 388.275200
     77     79    106     1   109.5600471 388.275200
     77     78    105     1   107.2600461 396.643200
     76     85    112     1   109.5600471 388.275200
     76     77    104     1   109.5600471 388.275200
     75     74    101     1   110.3400472 470.281600
     75     74    102     1   110.3400472 470.281600
     75     76    103     1   109.7800468 425.094400
     74     73    100     1   109.6800468 362.083360
     74     73     99     1   109.6800468 362.083360
     73     74    101     1   109.5900471 362.167040
     73     74    102     1   109.5900471 362.167040
     73     72     98     1   109.6800468 362.083360
     73     72     97     1   109.6800468 362.083360
     72     73    100     1   109.6800468 362.083360
     72     73     99     1   109.6800468 362.083360
     72     71     95     1   109.5900471 362.167040
     72     71     96     1   109.5900471 362.167040
     71     72     98     1   109.6800468 362.083360
     71     72     97     1   109.6800468 362.083360
     70     71     95     1   108.7600467 402.417120
     70     71     96     1   108.7600467 402.417120
     69     63     87     1   108.7700466 392.459200
     68     67     93     1   110.3600474 393.296000
     68    120    145     1   120.3900518 388.024160
     67     66     92     1   109.8000471 387.438400
     67     66     91     1   109.8000471 387.438400
     67     68     94     1   115.6800493 384.091200
     66     64     89     1   109.8000471 387.438400
     66     67     93     1   109.8000471 387.438400
     65     64     89     1   110.3600474 393.296000
     64     65     90     1   115.6800493 384.091200
     64     66     92     1   109.8000471 387.438400
     64     66     91     1   109.8000471 387.438400
     64     63     69     1   109.8000471 387.438400
     63     64     89     1   109.8000471 387.438400
     62     61     67     1   109.8000471 387.438400
     62     61     63     1   109.8000471 387.438400
     61     67     93     1   109.8000471 387.438400
     61     63     69     1   109.8000471 387.438400
     60     61     62     1   108.7700466 392.459200
    162    135    163     1   108.5500468 298.235520
    156    129    157     1   108.5500468 298.235520
    154    128    155     1   107.7300462 299.574400
    152    127    153     1   107.7300462 299.574400
    150    126    151     1   108.5500468 298.235520
    149    123    175     1   120.3900518 388.024160
    146    121    147     1   107.5800459 329.699200
    141    140    167     1   110.2600474 425.931200
    140    141    168     1   107.2600461 396.643200
    140    138    165     1   110.2200475 386.601600
    140    131    158     1   109.5600471 388.275200
    139    138    165     1   109.4300470 427.604800
    138    139    166     1   107.2600461 396.643200
    138    140    167     1   109.5600471 388.275200
    137    138    165     1   109.5800467 425.931200
    137    134    161     1   109.7800468 425.094400
    136    135    162     1   110.3800471 471.034720
    136    135    163     1   110.3800471 471.034720
    135    134    161     1   109.5600471 388.275200
    135    136    164     1   107.3900462 545.007840
    134    132    159     1   109.5600471 388.275200
    134    135    162     1   109.5600471 388.275200
    134    135    163     1   109.5600471 388.275200
    133    132    159     1   110.2600474 425.931200
    132    131    158     1   109.5600471 388.275200
    132    134    161     1   109.5600471 388.275200
    132    133    160     1   107.2600461 396.643200
    131    140    167     1   109.5600471 388.275200
    131    132    159     1   109.5600471 388.275200
    130    129    156     1   110.3400472 470.281600
    130    129    157     1   110.3400472 470.281600
    130    131    158     1   109.7800468 425.094400
    129    128    155     1   109.6800468 362.083360
    129    128    154     1   109.6800468 362.083360
    128    129    156     1   109.5900471 362.167040
    128    129    157     1   109.5900471 362.167040
    128    127    153     1   109.6800468 362.083360
    128    127    152     1   109.6800468 362.083360
    127    128    155     1   109.6800468 362.083360
    127    128    154     1   109.6800468 362.083360
    127    126    150     1   109.5900471 362.167040
    127    126    151     1   109.5900471 362.167040
    126    127    153     1   109.6800468 362.083360
    126    127    152     1   109.6800468 362.083360
    125    126    150     1   108.7600467 402.417120
    125    126    151     1   108.7600467 402.417120
    124    118    142     1   108.7700466 392.459200
    123    122    148     1   110.3600474 393.296000
    123    175    200     1   120.3900518 388.024160
    122    121    147     1   109.8000471 387.438400
    122    121    146     1   109.8000471 387.438400
    122    123    149     1   115.6800493 384.091200
    121    119    144     1   109.8000471 387.438400
    121    122    148     1   109.8000471 387.438400
    120    119    144     1   110.3600474 393.296000
    119    120    145     1   115.6800493 384.091200
    119    121    147     1   109.8000471 387.438400
    119    121    146     1   109.8000471 387.438400
    119    118    124     1   109.8000471 387.438400
    118    119    144     1   109.8000471 387.438400
    117    116    122     1   109.8000471 387.438400
    117    116    118     1   109.8000471 387.438400
    116    122    148     1   109.8000471 387.438400
    116    118    124     1   109.8000471 387.438400
    115    116    117     1   108.7700466 392.459200
    217    190    218     1   108.5500468 298.235520
    211    184    212     1   108.5500468 298.235520
    209    183    210     1   107.7300462 299.574400
    207    182    208     1   107.7300462 299.574400
    205    181    206     1   108.5500468 298.235520
    204    178    230     1   120.3900518 388.024160
    201    176    202     1   107.5800459 329.699200
    196    195    222     1   110.2600474 425.931200
    195    196    223     1   107.2600461 396.643200
    195    193    220     1   110.2200475 386.601600
    195    186    213     1   109.5600471 388.275200
    194    193    220     1   109.4300470 427.604800
    193    194    221     1   107.2600461 396.643200
    193    195    222     1   109.5600471 388.275200
    192    193    220     1   109.5800467 425.931200
    192    189    216     1   109.7800468 425.094400
    191    190    217     1   110.3800471 471.034720
    191    190    218     1   110.3800471 471.034720
    190    189    216     1   109.5600471 388.275200
    190    191    219     1   107.3900462 545.007840
    189    187    214     1   109.5600471 388.275200
    189    190    217     1   109.5600471 388.275200
    189    190    218     1   109.5600471 388.275200
    188    187    214     1   110.2600474 425.931200
    187    186    213     1   109.5600471 388.275200
    187    189    216     1   109.5600471 388.275200
    187    188    215     1   107.2600461 396.643200
    186    195    222     1   109.5600471 388.275200
    186    187    214     1   109.5600471 388.275200
    185    184    211     1   110.3400472 470.281600
    185    184    212     1   110.3400472 470.281600
    185    186    213     1   109.7800468 425.094400
    184    183    210     1   109.6800468 362.083360
    184    183    209     1   109.6800468 362.083360
    183    184    211     1   109.5900471 362.167040
    183    184    212     1   109.5900471 362.167040
    183    182    208     1   109.6800468 362.083360
    183    182    207     1   109.6800468 362.083360
    182    183    210     1   109.6800468 362.083360
    182    183    209     1   109.6800468 362.083360
    182    181    205     1   109.5900471 362.167040
    182    181    206     1   109.5900471 362.167040
    181    182    208     1   109.6800468 362.083360
    181    182    207     1   109.6800468 362.083360
    180    181    205     1   108.7600467 402.417120
    180    181    206     1   108.7600467 402.417120
    179    173    197     1   108.7700466 392.459200
    178    177    203     1   110.3600474 393.296000
    178    230    255     1   120.3900518 388.024160
    177    176    202     1   109.8000471 387.438400
    177    176    201     1   109.8000471 387.438400
    177    178    204     1   115.6800493 384.091200
    176    174    199     1   109.8000471 387.438400
    176    177    203     1   109.8000471 387.438400
    175    174    199     1   110.3600474 393.296000
    174    175    200     1   115.6800493 384.091200
    174    176    202     1   109.8000471 387.438400
    174    176    201     1   109.8000471 387.438400
    174    173    179     1   109.8000471 387.438400
    173    174    199     1   109.8000471 387.438400
    172    171    177     1   109.8000471 387.438400
    172    171    173     1   109.8000471 387.438400
    171    177    203     1   109.8000471 387.438400
    171    173    179     1   109.8000471 387.438400
    170    171    172     1   108.7700466 392.459200
    272    245    273     1   108.5500468 298.235520
    266    239    267     1   108.5500468 298.235520
    264    238    265     1   107.7300462 299.574400
    262    237    263     1   107.7300462 299.574400
    260    236    261     1   108.5500468 298.235520
    259    233    285     1   120.3900518 388.024160
    256    231    257     1   107.5800459 329.699200
    251    250    277     1   110.2600474 425.931200
    250    251    278     1   107.2600461 396.643200
    250    248    275     1   110.2200475 386.601600
    250    241    268     1   109.5600471 388.275200
    249    248    275     1   109.4300470 427.604800
    248    249    276     1   107.2600461 396.643200
    248    250    277     1   109.5600471 388.275200
    247    248    275     1   109.5800467 425.931200
    247    244    271     1   109.7800468 425.094400
    246    245    272     1   110.3800471 471.034720
    246    245    273     1   110.3800471 471.034720
    245    244    271     1   109.5600471 388.275200
    245    246    274     1   107.3900462 545.007840
    244    242    269     1   109.5600471 388.275200
    244    245    272     1   109.5600471 388.275200
    244    245    273     1   109.5600471 388.275200
    243    242    269     1   110.2600474 425.931200
    242    241    268     1   109.5600471 388.275200
    242    244    271     1   109.5600471 388.275200
    242    243    270     1   107.2600461 396.643200
    241    250    277     1   109.5600471 388.275200
    241    242    269     1   109.5600471 388.275200
    240    239    266     1   110.3400472 470.281600
    240    239    267     1   110.3400472 470.281600
    240    241    268     1   109.7800468 425.094400
    239    238    265     1   109.6800468 362.083360
    239    238    264     1   109.6800468 362.083360
    238    239    266     1   109.5900471 362.167040
    238    239    267     1   109.5900471 362.167040
    238    237    263     1   109.6800468 362.083360
    238    237    262     1   109.6800468 362.083360
    237    238    265     1   109.6800468 362.083360
    237    238    264     1   109.6800468 362.083360
    237    236    260     1   109.5900471 362.167040
    237    236    261     1   109.5900471 362.167040
    236    237    263     1   109.6800468 362.083360
    236    237    262     1   109.6800468 362.083360
    235    236    260     1   108.7600467 402.417120
    235    236    261     1   108.7600467 402.417120
    234    228    252     1   108.7700466 392.459200
    233    232    258     1   110.3600474 393.296000
    233    285    310     1   120.3900518 388.024160
    232    231    257     1   109.8000471 387.438400
    232    231    256     1   109.8000471 387.438400
    232    233    259     1   115.6800493 384.091200
    231    229    254     1   109.8000471 387.438400
    231    232    258     1   109.8000471 387.438400
    230    229    254     1   110.3600474 393.296000
    229    230    255     1   115.6800493 384.091200
    229    231    257     1   109.8000471 387.438400
    229    231    256     1   109.8000471 387.438400
    229    228    234     1   109.8000471 387.438400
    228    229    254     1   109.8000471 387.438400
    227    226    232     1   109.8000471 387.438400
    227    226    228     1   109.8000471 387.438400
    226    232    258     1   109.8000471 387.438400
    226    228    234     1   109.8000471 387.438400
    225    226    227     1   108.7700466 392.459200
    327    300    328     1   108.5500468 298.235520
    321    294    322     1   108.5500468 298.235520
    319    293    320     1   107.7300462 299.574400
    317    292    318     1   107.7300462 299.574400
    315    291    316     1   108.5500468 298.235520
    314    288    340     1   120.3900518 388.024160
    311    286    312     1   107.5800459 329.699200
    306    305    332     1   110.2600474 425.931200
    305    306    333     1   107.2600461 396.643200
    305    303    330     1   110.2200475 386.601600
    305    296    323     1   109.5600471 388.275200
    304    303    330     1   109.4300470 427.604800
    303    304    331     1   107.2600461 396.643200
    303    305    332     1   109.5600471 388.275200
    302    303    330     1   109.5800467 425.931200
    302    299    326     1   109.7800468 425.094400
    301    300    327     1   110.3800471 471.034720
    301    300    328     1   110.3800471 471.034720
    300    299    326     1   109.5600471 388.275200
    300    301    329     1   107.3900462 545.007840
    299    297    324     1   109.5600471 388.275200
    299    300    327     1   109.5600471 388.275200
    299    300    328     1   109.5600471 388.275200
    298    297    324     1   110.2600474 425.931200
    297    296    323     1   109.5600471 388.275200
    297    299    326     1   109.5600471 388.275200
    297    298    325     1   107.2600461 396.643200
    296    305    332     1   109.5600471 388.275200
    296    297    324     1   109.5600471 388.275200
    295    294    321     1   110.3400472 470.281600
    295    294    322     1   110.3400472 470.281600
    295    296    323     1   109.7800468 425.094400
    294    293    320     1   109.6800468 362.083360
    294    293    319     1   109.6800468 362.083360
    293    294    321     1   109.5900471 362.167040
    293    294    322     1   109.5900471 362.167040
    293    292    318     1   109.6800468 362.083360
    293    292    317     1   109.6800468 362.083360
    292    293    320     1   109.6800468 362.083360
    292    293    319     1   109.6800468 362.083360
    292    291    315     1   109.5900471 362.167040
    292    291    316     1   109.5900471 362.167040
    291    292    318     1   109.6800468 362.083360
    291    292    317     1   109.6800468 362.083360
    290    291    315     1   108.7600467 402.417120
    290    291    316     1   108.7600467 402.417120
    289    283    307     1   108.7700466 392.459200
    288    287    313     1   110.3600474 393.296000
    288    340    365     1   120.3900518 388.024160
    287    286    312     1   109.8000471 387.438400
    287    286    311     1   109.8000471 387.438400
    287    288    314     1   115.6800493 384.091200
    286    284    309     1   109.8000471 387.438400
    286    287    313     1   109.8000471 387.438400
    285    284    309     1   110.3600474 393.296000
    284    285    310     1   115.6800493 384.091200
    284    286    312     1   109.8000471 387.438400
    284    286    311     1   109.8000471 387.438400
    284    283    289     1   109.8000471 387.438400
    283    284    309     1   109.8000471 387.438400
    282    281    287     1   109.8000471 387.438400
    282    281    283     1   109.8000471 387.438400
    281    287    313     1   109.8000471 387.438400
    281    283    289     1   109.8000471 387.438400
    280    281    282     1   108.7700466 392.459200
    382    355    383     1   108.5500468 298.235520
    376    349    377     1   108.5500468 298.235520
    374    348    375     1   107.7300462 299.574400
    372    347    373     1   107.7300462 299.574400
    370    346    371     1   108.5500468 298.235520
    369    343    395     1   120.3900518 388.024160
    366    341    367     1   107.5800459 329.699200
    361    360    387     1   110.2600474 425.931200
    360    361    388     1   107.2600461 396.643200
    360    358    385     1   110.2200475 386.601600
    360    351    378     1   109.5600471 388.275200
    359    358    385     1   109.4300470 427.604800
    358    359    386     1   107.2600461 396.643200
    358    360    387     1   109.5600471 388.275200
    357    358    385     1   109.5800467 425.931200
    357    354    381     1   109.7800468 425.094400
    356    355    382     1   110.3800471 471.034720
    356    355    383     1   110.3800471 471.034720
    355    354    381     1   109.5600471 388.275200
    355    356    384     1   107.3900462 545.007840
    354    352    379     1   109.5600471 388.275200
    354    355    382     1   109.5600471 388.275200
    354    355    383     1   109.5600471 388.275200
    353    352    379     1   110.2600474 425.931200
    352    351    378     1   109.5600471 388.275200
    352    354    381     1   109.5600471 388.275200
    352    353    380     1   107.2600461 396.643200
    351    360    387     1   109.5600471 388.275200
    351    352    379     1   109.5600471 388.275200
    350    349    376     1   110.3400472 470.281600
    350    349    377     1   110.3400472 470.281600
    350    351    378     1   109.7800468 425.094400
    349    348    375     1   109.6800468 362.083360
    349    348    374     1   109.6800468 362.083360
    348    349    376     1   109.5900471 362.167040
    348    349    377     1   109.5900471 362.167040
    348    347    373     1   109.6800468 362.083360
    348    347    372     1   109.6800468 362.083360
    347    348    375     1   109.6800468 362.083360
    347    348    374     1   109.6800468 362.083360
    347    346    370     1   109.5900471 362.167040
    347    346    371     1   109.5900471 362.167040
    346    347    373     1   109.6800468 362.083360
    346    347    372     1   109.6800468 362.083360
    345    346    370     1   108.7600467 402.417120
    345    346    371     1   108.7600467 402.417120
    344    338    362     1   108.7700466 392.459200
    343    342    368     1   110.3600474 393.296000
    343    395    420     1   120.3900518 388.024160
    342    341    367     1   109.8000471 387.438400
    342    341    366     1   109.8000471 387.438400
    342    343    369     1   115.6800493 384.091200
    341    339    364     1   109.8000471 387.438400
    341    342    368     1   109.8000471 387.438400
    340    339    364     1   110.3600474 393.296000
    339    340    365     1   115.6800493 384.091200
    339    341    367     1   109.8000471 387.438400
    339    341    366     1   109.8000471 387.438400
    339    338    344     1   109.8000471 387.438400
    338    339    364     1   109.8000471 387.438400
    337    336    342     1   109.8000471 387.438400
    337    336    338     1   109.8000471 387.438400
    336    342    368     1   109.8000471 387.438400
    336    338    344     1   109.8000471 387.438400
    335    336    337     1   108.7700466 392.459200
    437    410    438     1   108.5500468 298.235520
    431    404    432     1   108.5500468 298.235520
    429    403    430     1   107.7300462 299.574400
    427    402    428     1   107.7300462 299.574400
    425    401    426     1   108.5500468 298.235520
    424    398    450     1   120.3900518 388.024160
    421    396    422     1   107.5800459 329.699200
    416    415    442     1   110.2600474 425.931200
    415    416    443     1   107.2600461 396.643200
    415    413    440     1   110.2200475 386.601600
    415    406    433     1   109.5600471 388.275200
    414    413    440     1   109.4300470 427.604800
    413    414    441     1   107.2600461 396.643200
    413    415    442     1   109.5600471 388.275200
    412    413    440     1   109.5800467 425.931200
    412    409    436     1   109.7800468 425.094400
    411    410    437     1   110.3800471 471.034720
    411    410    438     1   110.3800471 471.034720
    410    409    436     1   109.5600471 388.275200
    410    411    439     1   107.3900462 545.007840
    409    407    434     1   109.5600471 388.275200
    409    410    437     1   109.5600471 388.275200
    409    410    438     1   109.5600471 388.275200
    408    407    434     1   110.2600474 425.931200
    407    406    433     1   109.5600471 388.275200
    407    409    436     1   109.5600471 388.275200
    407    408    435     1   107.2600461 396.643200
    406    415    442     1   109.5600471 388.275200
    406    407    434     1   109.5600471 388.275200
    405    404    431     1   110.3400472 470.281600
    405    404    432     1   110.3400472 470.281600
    405    406    433     1   109.7800468 425.094400
    404    403    430     1   109.6800468 362.083360
    404    403    429     1   109.6800468 362.083360
    403    404    431     1   109.5900471 362.167040
    403    404    432     1   109.5900471 362.167040
    403    402    428     1   109.6800468 362.083360
    403    402    427     1   109.6800468 362.083360
    402    403    430     1   109.6800468 362.083360
    402    403    429     1   109.6800468 362.083360
    402    401    425     1   109.5900471 362.167040
    402    401    426     1   109.5900471 362.167040
    401    402    428     1   109.6800468 362.083360
    401    402    427     1   109.6800468 362.083360
    400    401    425     1   108.7600467 402.417120
    400    401    426     1   108.7600467 402.417120
    399    393    417     1   108.7700466 392.459200
    398    397    423     1   110.3600474 393.296000
    398    450    475     1   120.3900518 388.024160
    397    396    422     1   109.8000471 387.438400
    397    396    421     1   109.8000471 387.438400
    397    398    424     1   115.6800493 384.091200
    396    394    419     1   109.8000471 387.438400
    396    397    423     1   109.8000471 387.438400
    395    394    419     1   110.3600474 393.296000
    394    395    420     1   115.6800493 384.091200
    394    396    422     1   109.8000471 387.438400
    394    396    421     1   109.8000471 387.438400
    394    393    399     1   109.8000471 387.438400
    393    394    419     1   109.8000471 387.438400
    392    391    397     1   109.8000471 387.438400
    392    391    393     1   109.8000471 387.438400
    391    397    423     1   109.8000471 387.438400
    391    393    399     1   109.8000471 387.438400
    390    391    392     1   108.7700466 392.459200
    492    465    493     1   108.5500468 298.235520
    486    459    487     1   108.5500468 298.235520
    484    458    485     1   107.7300462 299.574400
    482    457    483     1   107.7300462 299.574400
    480    456    481     1   108.5500468 298.235520
    479    453    505     1   120.3900518 388.024160
    476    451    477     1   107.5800459 329.699200
    471    470    497     1   110.2600474 425.931200
    470    471    498     1   107.2600461 396.643200
    470    468    495     1   110.2200475 386.601600
    470    461    488     1   109.5600471 388.275200
    469    468    495     1   109.4300470 427.604800
    468    469    496     1   107.2600461 396.643200
    468    470    497     1   109.5600471 388.275200
    467    468    495     1   109.5800467 425.931200
    467    464    491     1   109.7800468 425.094400
    466    465    492     1   110.3800471 471.034720
    466    465    493     1   110.3800471 471.034720
    465    464    491     1   109.5600471 388.275200
    465    466    494     1   107.3900462 545.007840
    464    462    489     1   109.5600471 388.275200
    464    465    492     1   109.5600471 388.275200
    464    465    493     1   109.5600471 388.275200
    463    462    489     1   110.2600474 425.931200
    462    461    488     1   109.5600471 388.275200
    462    464    491     1   109.5600471 388.275200
    462    463    490     1   107.2600461 396.643200
    461    470    497     1   109.5600471 388.275200
    461    462    489     1   109.5600471 388.275200
    460    459    486     1   110.3400472 470.281600
    460    459    487     1   110.3400472 470.281600
    460    461    488     1   109.7800468 425.094400
    459    458    485     1   109.6800468 362.083360
    459    458    484     1   109.6800468 362.083360
    458    459    486     1   109.5900471 362.167040
    458    459    487     1   109.5900471 362.167040
    458    457    483     1   109.6800468 362.083360
    458    457    482     1   109.6800468 362.083360
    457    458    485     1   109.6800468 362.083360
    457    458    484     1   109.6800468 362.083360
    457    456    480     1   109.5900471 362.167040
    457    456    481     1   109.5900471 362.167040
    456    457    483     1   109.6800468 362.083360
    456    457    482     1   109.6800468 362.083360
    455    456    480     1   108.7600467 402.417120
    455    456    481     1   108.7600467 402.417120
    454    448    472     1   108.7700466 392.459200
    453    452    478     1   110.3600474 393.296000
    453    505    530     1   120.3900518 388.024160
    452    451    477     1   109.8000471 387.438400
    452    451    476     1   109.8000471 387.438400
    452    453    479     1   115.6800493 384.091200
    451    449    474     1   109.8000471 387.438400
    451    452    478     1   109.8000471 387.438400
    450    449    474     1   110.3600474 393.296000
    449    450    475     1   115.6800493 384.091200
    449    451    477     1   109.8000471 387.438400
    449    451    476     1   109.8000471 387.438400
    449    448    454     1   109.8000471 387.438400
    448    449    474     1   109.8000471 387.438400
    447    446    452     1   109.8000471 387.438400
    447    446    448     1   109.8000471 387.438400
    446    452    478     1   109.8000471 387.438400
    446    448    454     1   109.8000471 387.438400
    445    446    447     1   108.7700466 392.459200
    547    520    548     1   108.5500468 298.235520
    541    514    542     1   108.5500468 298.235520
    539    513    540     1   107.7300462 299.574400
    537    512    538     1   107.7300462 299.574400
    535    511    536     1   108.5500468 298.235520
    534    508    554     1   120.3900518 388.024160
    531    506    532     1   107.5800459 329.699200
    526    525    552     1   110.2600474 425.931200
    525    526    553     1   107.2600461 396.643200
    525    523    550     1   110.2200475 386.601600
    525    516    543     1   109.5600471 388.275200
    524    523    550     1   109.4300470 427.604800
    523    524    551     1   107.2600461 396.643200
    523    525    552     1   109.5600471 388.275200
    522    523    550     1   109.5800467 425.931200
    522    519    546     1   109.7800468 425.094400
    521    520    547     1   110.3800471 471.034720
    521    520    548     1   110.3800471 471.034720
    520    519    546     1   109.5600471 388.275200
    520    521    549     1   107.3900462 545.007840
    519    517    544     1   109.5600471 388.275200
    519    520    547     1   109.5600471 388.275200
    519    520    548     1   109.5600471 388.275200
    518    517    544     1   110.2600474 425.931200
    517    516    543     1   109.5600471 388.275200
    517    519    546     1   109.5600471 388.275200
    517    518    545     1   107.2600461 396.643200
    516    525    552     1   109.5600471 388.275200
    516    517    544     1   109.5600471 388.275200
    515    514    541     1   110.3400472 470.281600
    515    514    542     1   110.3400472 470.281600
    515    516    543     1   109.7800468 425.094400
    514    513    540     1   109.6800468 362.083360
    514    513    539     1   109.6800468 362.083360
    513    514    541     1   109.5900471 362.167040
    513    514    542     1   109.5900471 362.167040
    513    512    538     1   109.6800468 362.083360
    513    512    537     1   109.6800468 362.083360
    512    513    540     1   109.6800468 362.083360
    512    513    539     1   109.6800468 362.083360
    512    511    535     1   109.5900471 362.167040
    512    511    536     1   109.5900471 362.167040
    511    512    538     1   109.6800468 362.083360
    511    512    537     1   109.6800468 362.083360
    510    511    535     1   108.7600467 402.417120
    510    511    536     1   108.7600467 402.417120
    509    503    527     1   108.7700466 392.459200
    508    507    533     1   110.3600474 393.296000
    508    554    555     1   120.3900518 388.024160
    508    554    556     1   120.3900518 388.024160
    507    506    532     1   109.8000471 387.438400
    507    506    531     1   109.8000471 387.438400
    507    508    534     1   115.6800493 384.091200
    506    504    529     1   109.8000471 387.438400
    506    507    533     1   109.8000471 387.438400
    505    504    529     1   110.3600474 393.296000
    504    505    530     1   115.6800493 384.091200
    504    506    532     1   109.8000471 387.438400
    504    506    531     1   109.8000471 387.438400
    504    503    509     1   109.8000471 387.438400
    503    504    529     1   109.8000471 387.438400
    502    501    507     1   109.8000471 387.438400
    502    501    503     1   109.8000471 387.438400
    501    507    533     1   109.8000471 387.438400
    501    503    509     1   109.8000471 387.438400
    500    501    502     1   108.7700466 392.459200
    555    554    556     1   116.6600501 290.034880

[ dihedrals ]
;    ai     aj     ak     al funct         c0         c1         c2         c3         c4         c5
      1     10      9     11     1  0.0000000  0.0000000  2
      1     10      9      8     1  0.0000000  0.0000000  2
     29     28     30     31     1  0.0000000  4.9162000  2
     29     28     30     31     1  0.0000000  0.6024960  3
     27     28     30     31     1  0.0000000  4.9162000  2
     27     28     30     31     1  0.0000000  0.6024960  3
     26     25     24     27     1  0.0000000  4.9162000  2
     26     25     24     27     1  0.0000000  0.6024960  3
     25     24     27     28     1  180.0000771  0.4184000  2
     25     24     27     28     1  0.0000000  1.6024720  3
     24     27     28     29     1  0.0000000  1.6038667  3
     24     27     28     30     1  180.0000771  0.4184000  2
     24     27     28     30     1  0.0000000  1.6024720  3
     24     22     21     30     1  180.0000771  0.8368000  1
     24     22     21     30     1  180.0000771  1.0460000  2
     24     22     21     30     1  0.0000000  0.7531200  3
     23     22     21     30     1  0.0000000  0.6508444  3
     23     22     24     27     1  0.0000000  4.9162000  2
     23     22     24     27     1  0.0000000  0.6024960  3
     23     22     24     25     1  0.0000000  0.6508444  3
     22     21     30     31     1  0.0000000  0.6508444  3
     22     21     30     28     1  180.0000771  0.8368000  1
     22     21     30     28     1  180.0000771  1.0460000  2
     22     21     30     28     1  0.0000000  0.7531200  3
     22     24     27     28     1  180.0000771  0.4184000  2
     22     24     27     28     1  0.0000000  1.6024720  3
     22     24     25     26     1  0.0000000  0.6508444  3
     21     30     28     29     1  0.0000000  0.6508444  3
     21     30     28     27     1  0.0000000  0.6508444  3
     21     22     24     27     1  0.0000000  0.6508444  3
     21     22     24     25     1  180.0000771  0.8368000  1
     21     22     24     25     1  180.0000771  1.0460000  2
     21     22     24     25     1  0.0000000  0.7531200  3
     20     21     30     31     1  0.0000000  4.9162000  2
     20     21     30     31     1  0.0000000  0.6024960  3
     20     21     30     28     1  0.0000000  0.6508444  3
     20     21     22     24     1  0.0000000  0.6508444  3
     20     21     22     23     1  0.0000000  4.9162000  2
     20     21     22     23     1  0.0000000  0.6024960  3
     19     20     21     30     1  180.0000771  0.4184000  2
     19     20     21     30     1  0.0000000  1.6024720  3
     19     20     21     22     1  180.0000771  0.4184000  2
     19     20     21     22     1  0.0000000  1.6024720  3
     18     19     20     21     1  180.0000771  0.4184000  2
     18     19     20     21     1  0.0000000  1.6024720  3
     17     18     19     20     1  0.0000000  0.6508444  3
     17     16     15     32     1  0.0000000  9.4558400  1
     17     16     15     32     1  180.0000771  0.1255200  3
     17     16     15     32     1  180.0000771  2.7196000  4
     16     17     18     19     1  0.0000000  2.1756800  3
     16     15     32     33     1  180.0000771  10.4600000  2
     15     16     17     18     1  0.0000000  0.4184000  3
     13     65     64     66     1  0.0000000  0.0000000  2
     13     65     64     63     1  0.0000000  0.0000000  2
     12     13     65     64     1  180.0000771  27.8236000  2
     12      6      8     32     1  0.0000000  0.6508444  3
     12      6      5     15     1  0.0000000  0.2928800  2
     12      6      5     15     1  0.0000000  0.4184000  4
     11      9      8     32     1  0.0000000  0.6508444  3
     11     12     13     65     1  0.0000000  0.0000000  2
     10      9     11     12     1  0.0000000  0.6508444  3
     10      9      8     32     1  0.0000000  0.6508444  3
      9     11     12     13     1  0.0000000  0.6508444  3
      9      8     32     33     1  180.0000771  0.0000000  2
      9      8     32     15     1  0.0000000  0.2928800  2
      9      8     32     15     1  0.0000000  0.4184000  4
      9      8      6     12     1  180.0000771  0.8368000  1
      9      8      6     12     1  180.0000771  1.0460000  2
      9      8      6     12     1  0.0000000  0.7531200  3
      8      9     11     12     1  180.0000771  0.8368000  1
      8      9     11     12     1  180.0000771  1.0460000  2
      8      9     11     12     1  0.0000000  0.7531200  3
      8     32     15     16     1  180.0000771  6.2760000  1
      8     32     15     16     1  0.0000000  0.0000000  2
      8      6     12     11     1  180.0000771  0.8368000  1
      8      6     12     11     1  180.0000771  1.0460000  2
      8      6     12     11     1  0.0000000  0.7531200  3
      8      6     12     13     1  0.0000000  0.6508444  3
      8      6      5     15     1  0.0000000  0.2928800  2
      8      6      5     15     1  0.0000000  0.4184000  4
      6     12     11      9     1  180.0000771  0.8368000  1
      6     12     11      9     1  180.0000771  1.0460000  2
      6     12     11      9     1  0.0000000  0.7531200  3
      6     12     13     65     1  0.0000000  0.0000000  2
      6      8      9     10     1  0.0000000  0.6508444  3
      6      8      9     11     1  180.0000771  0.8368000  1
      6      8      9     11     1  180.0000771  1.0460000  2
      6      8      9     11     1  0.0000000  0.7531200  3
      6      8     32     33     1  180.0000771  0.0000000  2
      6      8     32     15     1  0.0000000  0.2928800  2
      6      8     32     15     1  0.0000000  0.4184000  4
      6      5     15     32     1  180.0000771  10.4600000  2
      6      5     15     16     1  180.0000771  6.2760000  1
      6      5     15     16     1  0.0000000  0.0000000  2
      5      6     12     11     1  0.0000000  0.6508444  3
      5      6     12     13     1  0.0000000  0.6508444  3
      5      6      8      9     1  0.0000000  0.6508444  3
      5      6      8     32     1  0.0000000  0.6508444  3
      5     15     32      8     1  180.0000771  10.4600000  2
      5     15     32     33     1  180.0000771  10.4600000  2
      5     15     16     17     1  0.0000000  9.4558400  1
      5     15     16     17     1  180.0000771  0.1255200  3
      5     15     16     17     1  180.0000771  2.7196000  4
      4      5      6     12     1  180.0000771  0.0000000  2
      4      5      6      8     1  180.0000771  0.0000000  2
      4      5     15     32     1  180.0000771  10.4600000  2
      4      5     15     16     1  180.0000771  10.4600000  2
     84     83     85     86     1  0.0000000  4.9162000  2
     84     83     85     86     1  0.0000000  0.6024960  3
     82     83     85     86     1  0.0000000  4.9162000  2
     82     83     85     86     1  0.0000000  0.6024960  3
     81     80     79     82     1  0.0000000  4.9162000  2
     81     80     79     82     1  0.0000000  0.6024960  3
     80     79     82     83     1  180.0000771  0.4184000  2
     80     79     82     83     1  0.0000000  1.6024720  3
     79     82     83     84     1  0.0000000  1.6038667  3
     79     82     83     85     1  180.0000771  0.4184000  2
     79     82     83     85     1  0.0000000  1.6024720  3
     79     77     76     85     1  180.0000771  0.8368000  1
     79     77     76     85     1  180.0000771  1.0460000  2
     79     77     76     85     1  0.0000000  0.7531200  3
     78     77     76     85     1  0.0000000  0.6508444  3
     78     77     79     82     1  0.0000000  4.9162000  2
     78     77     79     82     1  0.0000000  0.6024960  3
     78     77     79     80     1  0.0000000  0.6508444  3
     77     76     85     86     1  0.0000000  0.6508444  3
     77     76     85     83     1  180.0000771  0.8368000  1
     77     76     85     83     1  180.0000771  1.0460000  2
     77     76     85     83     1  0.0000000  0.7531200  3
     77     79     82     83     1  180.0000771  0.4184000  2
     77     79     82     83     1  0.0000000  1.6024720  3
     77     79     80     81     1  0.0000000  0.6508444  3
     76     85     83     84     1  0.0000000  0.6508444  3
     76     85     83     82     1  0.0000000  0.6508444  3
     76     77     79     82     1  0.0000000  0.6508444  3
     76     77     79     80     1  180.0000771  0.8368000  1
     76     77     79     80     1  180.0000771  1.0460000  2
     76     77     79     80     1  0.0000000  0.7531200  3
     75     76     85     86     1  0.0000000  4.9162000  2
     75     76     85     86     1  0.0000000  0.6024960  3
     75     76     85     83     1  0.0000000  0.6508444  3
     75     76     77     79     1  0.0000000  0.6508444  3
     75     76     77     78     1  0.0000000  4.9162000  2
     75     76     77     78     1  0.0000000  0.6024960  3
     74     75     76     85     1  180.0000771  0.4184000  2
     74     75     76     85     1  0.0000000  1.6024720  3
     74     75     76     77     1  180.0000771  0.4184000  2
     74     75     76     77     1  0.0000000  1.6024720  3
     73     74     75     76     1  180.0000771  0.4184000  2
     73     74     75     76     1  0.0000000  1.6024720  3
     72     73     74     75     1  0.0000000  0.6508444  3
     72     71     70     87     1  0.0000000  9.4558400  1
     72     71     70     87     1  180.0000771  0.1255200  3
     72     71     70     87     1  180.0000771  2.7196000  4
     71     72     73     74     1  0.0000000  2.1756800  3
     71     70     87     88     1  180.0000771  10.4600000  2
     70     71     72     73     1  0.0000000  0.4184000  3
     68    120    119    121     1  0.0000000  0.0000000  2
     68    120    119    118     1  0.0000000  0.0000000  2
     67     68    120    119     1  180.0000771  27.8236000  2
     67     61     63     87     1  0.0000000  0.6508444  3
     67     61     60     70     1  0.0000000  0.2928800  2
     67     61     60     70     1  0.0000000  0.4184000  4
     66     64     63     87     1  0.0000000  0.6508444  3
     66     67     68    120     1  0.0000000  0.0000000  2
     65     64     66     67     1  0.0000000  0.6508444  3
     65     64     63     87     1  0.0000000  0.6508444  3
     64     66     67     68     1  0.0000000  0.6508444  3
     64     63     87     88     1  180.0000771  0.0000000  2
     64     63     87     70     1  0.0000000  0.2928800  2
     64     63     87     70     1  0.0000000  0.4184000  4
     64     63     61     67     1  180.0000771  0.8368000  1
     64     63     61     67     1  180.0000771  1.0460000  2
     64     63     61     67     1  0.0000000  0.7531200  3
     63     64     66     67     1  180.0000771  0.8368000  1
     63     64     66     67     1  180.0000771  1.0460000  2
     63     64     66     67     1  0.0000000  0.7531200  3
     63     87     70     71     1  180.0000771  6.2760000  1
     63     87     70     71     1  0.0000000  0.0000000  2
     63     61     67     66     1  180.0000771  0.8368000  1
     63     61     67     66     1  180.0000771  1.0460000  2
     63     61     67     66     1  0.0000000  0.7531200  3
     63     61     67     68     1  0.0000000  0.6508444  3
     63     61     60     70     1  0.0000000  0.2928800  2
     63     61     60     70     1  0.0000000  0.4184000  4
     61     67     66     64     1  180.0000771  0.8368000  1
     61     67     66     64     1  180.0000771  1.0460000  2
     61     67     66     64     1  0.0000000  0.7531200  3
     61     67     68    120     1  0.0000000  0.0000000  2
     61     63     64     65     1  0.0000000  0.6508444  3
     61     63     64     66     1  180.0000771  0.8368000  1
     61     63     64     66     1  180.0000771  1.0460000  2
     61     63     64     66     1  0.0000000  0.7531200  3
     61     63     87     88     1  180.0000771  0.0000000  2
     61     63     87     70     1  0.0000000  0.2928800  2
     61     63     87     70     1  0.0000000  0.4184000  4
     61     60     70     87     1  180.0000771  10.4600000  2
     61     60     70     71     1  180.0000771  6.2760000  1
     61     60     70     71     1  0.0000000  0.0000000  2
     60     61     67     66     1  0.0000000  0.6508444  3
     60     61     67     68     1  0.0000000  0.6508444  3
     60     61     63     64     1  0.0000000  0.6508444  3
     60     61     63     87     1  0.0000000  0.6508444  3
     60     70     87     63     1  180.0000771  10.4600000  2
     60     70     87     88     1  180.0000771  10.4600000  2
     60     70     71     72     1  0.0000000  9.4558400  1
     60     70     71     72     1  180.0000771  0.1255200  3
     60     70     71     72     1  180.0000771  2.7196000  4
     59     60     61     67     1  180.0000771  0.0000000  2
     59     60     61     63     1  180.0000771  0.0000000  2
     59     60     70     87     1  180.0000771  10.4600000  2
     59     60     70     71     1  180.0000771  10.4600000  2
    139    138    140    141     1  0.0000000  4.9162000  2
    139    138    140    141     1  0.0000000  0.6024960  3
    137    138    140    141     1  0.0000000  4.9162000  2
    137    138    140    141     1  0.0000000  0.6024960  3
    136    135    134    137     1  0.0000000  4.9162000  2
    136    135    134    137     1  0.0000000  0.6024960  3
    135    134    137    138     1  180.0000771  0.4184000  2
    135    134    137    138     1  0.0000000  1.6024720  3
    134    137    138    139     1  0.0000000  1.6038667  3
    134    137    138    140     1  180.0000771  0.4184000  2
    134    137    138    140     1  0.0000000  1.6024720  3
    134    132    131    140     1  180.0000771  0.8368000  1
    134    132    131    140     1  180.0000771  1.0460000  2
    134    132    131    140     1  0.0000000  0.7531200  3
    133    132    131    140     1  0.0000000  0.6508444  3
    133    132    134    137     1  0.0000000  4.9162000  2
    133    132    134    137     1  0.0000000  0.6024960  3
    133    132    134    135     1  0.0000000  0.6508444  3
    132    131    140    141     1  0.0000000  0.6508444  3
    132    131    140    138     1  180.0000771  0.8368000  1
    132    131    140    138     1  180.0000771  1.0460000  2
    132    131    140    138     1  0.0000000  0.7531200  3
    132    134    137    138     1  180.0000771  0.4184000  2
    132    134    137    138     1  0.0000000  1.6024720  3
    132    134    135    136     1  0.0000000  0.6508444  3
    131    140    138    139     1  0.0000000  0.6508444  3
    131    140    138    137     1  0.0000000  0.6508444  3
    131    132    134    137     1  0.0000000  0.6508444  3
    131    132    134    135     1  180.0000771  0.8368000  1
    131    132    134    135     1  180.0000771  1.0460000  2
    131    132    134    135     1  0.0000000  0.7531200  3
    130    131    140    141     1  0.0000000  4.9162000  2
    130    131    140    141     1  0.0000000  0.6024960  3
    130    131    140    138     1  0.0000000  0.6508444  3
    130    131    132    134     1  0.0000000  0.6508444  3
    130    131    132    133     1  0.0000000  4.9162000  2
    130    131    132    133     1  0.0000000  0.6024960  3
    129    130    131    140     1  180.0000771  0.4184000  2
    129    130    131    140     1  0.0000000  1.6024720  3
    129    130    131    132     1  180.0000771  0.4184000  2
    129    130    131    132     1  0.0000000  1.6024720  3
    128    129    130    131     1  180.0000771  0.4184000  2
    128    129    130    131     1  0.0000000  1.6024720  3
    127    128    129    130     1  0.0000000  0.6508444  3
    127    126    125    142     1  0.0000000  9.4558400  1
    127    126    125    142     1  180.0000771  0.1255200  3
    127    126    125    142     1  180.0000771  2.7196000  4
    126    127    128    129     1  0.0000000  2.1756800  3
    126    125    142    143     1  180.0000771  10.4600000  2
    125    126    127    128     1  0.0000000  0.4184000  3
    123    175    174    176     1  0.0000000  0.0000000  2
    123    175    174    173     1  0.0000000  0.0000000  2
    122    123    175    174     1  180.0000771  27.8236000  2
    122    116    118    142     1  0.0000000  0.6508444  3
    122    116    115    125     1  0.0000000  0.2928800  2
    122    116    115    125     1  0.0000000  0.4184000  4
    121    119    118    142     1  0.0000000  0.6508444  3
    121    122    123    175     1  0.0000000  0.0000000  2
    120    119    121    122     1  0.0000000  0.6508444  3
    120    119    118    142     1  0.0000000  0.6508444  3
    119    121    122    123     1  0.0000000  0.6508444  3
    119    118    142    143     1  180.0000771  0.0000000  2
    119    118    142    125     1  0.0000000  0.2928800  2
    119    118    142    125     1  0.0000000  0.4184000  4
    119    118    116    122     1  180.0000771  0.8368000  1
    119    118    116    122     1  180.0000771  1.0460000  2
    119    118    116    122     1  0.0000000  0.7531200  3
    118    119    121    122     1  180.0000771  0.8368000  1
    118    119    121    122     1  180.0000771  1.0460000  2
    118    119    121    122     1  0.0000000  0.7531200  3
    118    142    125    126     1  180.0000771  6.2760000  1
    118    142    125    126     1  0.0000000  0.0000000  2
    118    116    122    121     1  180.0000771  0.8368000  1
    118    116    122    121     1  180.0000771  1.0460000  2
    118    116    122    121     1  0.0000000  0.7531200  3
    118    116    122    123     1  0.0000000  0.6508444  3
    118    116    115    125     1  0.0000000  0.2928800  2
    118    116    115    125     1  0.0000000  0.4184000  4
    116    122    121    119     1  180.0000771  0.8368000  1
    116    122    121    119     1  180.0000771  1.0460000  2
    116    122    121    119     1  0.0000000  0.7531200  3
    116    122    123    175     1  0.0000000  0.0000000  2
    116    118    119    120     1  0.0000000  0.6508444  3
    116    118    119    121     1  180.0000771  0.8368000  1
    116    118    119    121     1  180.0000771  1.0460000  2
    116    118    119    121     1  0.0000000  0.7531200  3
    116    118    142    143     1  180.0000771  0.0000000  2
    116    118    142    125     1  0.0000000  0.2928800  2
    116    118    142    125     1  0.0000000  0.4184000  4
    116    115    125    142     1  180.0000771  10.4600000  2
    116    115    125    126     1  180.0000771  6.2760000  1
    116    115    125    126     1  0.0000000  0.0000000  2
    115    116    122    121     1  0.0000000  0.6508444  3
    115    116    122    123     1  0.0000000  0.6508444  3
    115    116    118    119     1  0.0000000  0.6508444  3
    115    116    118    142     1  0.0000000  0.6508444  3
    115    125    142    118     1  180.0000771  10.4600000  2
    115    125    142    143     1  180.0000771  10.4600000  2
    115    125    126    127     1  0.0000000  9.4558400  1
    115    125    126    127     1  180.0000771  0.1255200  3
    115    125    126    127     1  180.0000771  2.7196000  4
    114    115    116    122     1  180.0000771  0.0000000  2
    114    115    116    118     1  180.0000771  0.0000000  2
    114    115    125    142     1  180.0000771  10.4600000  2
    114    115    125    126     1  180.0000771  10.4600000  2
    194    193    195    196     1  0.0000000  4.9162000  2
    194    193    195    196     1  0.0000000  0.6024960  3
    192    193    195    196     1  0.0000000  4.9162000  2
    192    193    195    196     1  0.0000000  0.6024960  3
    191    190    189    192     1  0.0000000  4.9162000  2
    191    190    189    192     1  0.0000000  0.6024960  3
    190    189    192    193     1  180.0000771  0.4184000  2
    190    189    192    193     1  0.0000000  1.6024720  3
    189    192    193    194     1  0.0000000  1.6038667  3
    189    192    193    195     1  180.0000771  0.4184000  2
    189    192    193    195     1  0.0000000  1.6024720  3
    189    187    186    195     1  180.0000771  0.8368000  1
    189    187    186    195     1  180.0000771  1.0460000  2
    189    187    186    195     1  0.0000000  0.7531200  3
    188    187    186    195     1  0.0000000  0.6508444  3
    188    187    189    192     1  0.0000000  4.9162000  2
    188    187    189    192     1  0.0000000  0.6024960  3
    188    187    189    190     1  0.0000000  0.6508444  3
    187    186    195    196     1  0.0000000  0.6508444  3
    187    186    195    193     1  180.0000771  0.8368000  1
    187    186    195    193     1  180.0000771  1.0460000  2
    187    186    195    193     1  0.0000000  0.7531200  3
    187    189    192    193     1  180.0000771  0.4184000  2
    187    189    192    193     1  0.0000000  1.6024720  3
    187    189    190    191     1  0.0000000  0.6508444  3
    186    195    193    194     1  0.0000000  0.6508444  3
    186    195    193    192     1  0.0000000  0.6508444  3
    186    187    189    192     1  0.0000000  0.6508444  3
    186    187    189    190     1  180.0000771  0.8368000  1
    186    187    189    190     1  180.0000771  1.0460000  2
    186    187    189    190     1  0.0000000  0.7531200  3
    185    186    195    196     1  0.0000000  4.9162000  2
    185    186    195    196     1  0.0000000  0.6024960  3
    185    186    195    193     1  0.0000000  0.6508444  3
    185    186    187    189     1  0.0000000  0.6508444  3
    185    186    187    188     1  0.0000000  4.9162000  2
    185    186    187    188     1  0.0000000  0.6024960  3
    184    185    186    195     1  180.0000771  0.4184000  2
    184    185    186    195     1  0.0000000  1.6024720  3
    184    185    186    187     1  180.0000771  0.4184000  2
    184    185    186    187     1  0.0000000  1.6024720  3
    183    184    185    186     1  180.0000771  0.4184000  2
    183    184    185    186     1  0.0000000  1.6024720  3
    182    183    184    185     1  0.0000000  0.6508444  3
    182    181    180    197     1  0.0000000  9.4558400  1
    182    181    180    197     1  180.0000771  0.1255200  3
    182    181    180    197     1  180.0000771  2.7196000  4
    181    182    183    184     1  0.0000000  2.1756800  3
    181    180    197    198     1  180.0000771  10.4600000  2
    180    181    182    183     1  0.0000000  0.4184000  3
    178    230    229    231     1  0.0000000  0.0000000  2
    178    230    229    228     1  0.0000000  0.0000000  2
    177    178    230    229     1  180.0000771  27.8236000  2
    177    171    173    197     1  0.0000000  0.6508444  3
    177    171    170    180     1  0.0000000  0.2928800  2
    177    171    170    180     1  0.0000000  0.4184000  4
    176    174    173    197     1  0.0000000  0.6508444  3
    176    177    178    230     1  0.0000000  0.0000000  2
    175    174    176    177     1  0.0000000  0.6508444  3
    175    174    173    197     1  0.0000000  0.6508444  3
    174    176    177    178     1  0.0000000  0.6508444  3
    174    173    197    198     1  180.0000771  0.0000000  2
    174    173    197    180     1  0.0000000  0.2928800  2
    174    173    197    180     1  0.0000000  0.4184000  4
    174    173    171    177     1  180.0000771  0.8368000  1
    174    173    171    177     1  180.0000771  1.0460000  2
    174    173    171    177     1  0.0000000  0.7531200  3
    173    174    176    177     1  180.0000771  0.8368000  1
    173    174    176    177     1  180.0000771  1.0460000  2
    173    174    176    177     1  0.0000000  0.7531200  3
    173    197    180    181     1  180.0000771  6.2760000  1
    173    197    180    181     1  0.0000000  0.0000000  2
    173    171    177    176     1  180.0000771  0.8368000  1
    173    171    177    176     1  180.0000771  1.0460000  2
    173    171    177    176     1  0.0000000  0.7531200  3
    173    171    177    178     1  0.0000000  0.6508444  3
    173    171    170    180     1  0.0000000  0.2928800  2
    173    171    170    180     1  0.0000000  0.4184000  4
    171    177    176    174     1  180.0000771  0.8368000  1
    171    177    176    174     1  180.0000771  1.0460000  2
    171    177    176    174     1  0.0000000  0.7531200  3
    171    177    178    230     1  0.0000000  0.0000000  2
    171    173    174    175     1  0.0000000  0.6508444  3
    171    173    174    176     1  180.0000771  0.8368000  1
    171    173    174    176     1  180.0000771  1.0460000  2
    171    173    174    176     1  0.0000000  0.7531200  3
    171    173    197    198     1  180.0000771  0.0000000  2
    171    173    197    180     1  0.0000000  0.2928800  2
    171    173    197    180     1  0.0000000  0.4184000  4
    171    170    180    197     1  180.0000771  10.4600000  2
    171    170    180    181     1  180.0000771  6.2760000  1
    171    170    180    181     1  0.0000000  0.0000000  2
    170    171    177    176     1  0.0000000  0.6508444  3
    170    171    177    178     1  0.0000000  0.6508444  3
    170    171    173    174     1  0.0000000  0.6508444  3
    170    171    173    197     1  0.0000000  0.6508444  3
    170    180    197    173     1  180.0000771  10.4600000  2
    170    180    197    198     1  180.0000771  10.4600000  2
    170    180    181    182     1  0.0000000  9.4558400  1
    170    180    181    182     1  180.0000771  0.1255200  3
    170    180    181    182     1  180.0000771  2.7196000  4
    169    170    171    177     1  180.0000771  0.0000000  2
    169    170    171    173     1  180.0000771  0.0000000  2
    169    170    180    197     1  180.0000771  10.4600000  2
    169    170    180    181     1  180.0000771  10.4600000  2
    249    248    250    251     1  0.0000000  4.9162000  2
    249    248    250    251     1  0.0000000  0.6024960  3
    247    248    250    251     1  0.0000000  4.9162000  2
    247    248    250    251     1  0.0000000  0.6024960  3
    246    245    244    247     1  0.0000000  4.9162000  2
    246    245    244    247     1  0.0000000  0.6024960  3
    245    244    247    248     1  180.0000771  0.4184000  2
    245    244    247    248     1  0.0000000  1.6024720  3
    244    247    248    249     1  0.0000000  1.6038667  3
    244    247    248    250     1  180.0000771  0.4184000  2
    244    247    248    250     1  0.0000000  1.6024720  3
    244    242    241    250     1  180.0000771  0.8368000  1
    244    242    241    250     1  180.0000771  1.0460000  2
    244    242    241    250     1  0.0000000  0.7531200  3
    243    242    241    250     1  0.0000000  0.6508444  3
    243    242    244    247     1  0.0000000  4.9162000  2
    243    242    244    247     1  0.0000000  0.6024960  3
    243    242    244    245     1  0.0000000  0.6508444  3
    242    241    250    251     1  0.0000000  0.6508444  3
    242    241    250    248     1  180.0000771  0.8368000  1
    242    241    250    248     1  180.0000771  1.0460000  2
    242    241    250    248     1  0.0000000  0.7531200  3
    242    244    247    248     1  180.0000771  0.4184000  2
    242    244    247    248     1  0.0000000  1.6024720  3
    242    244    245    246     1  0.0000000  0.6508444  3
    241    250    248    249     1  0.0000000  0.6508444  3
    241    250    248    247     1  0.0000000  0.6508444  3
    241    242    244    247     1  0.0000000  0.6508444  3
    241    242    244    245     1  180.0000771  0.8368000  1
    241    242    244    245     1  180.0000771  1.0460000  2
    241    242    244    245     1  0.0000000  0.7531200  3
    240    241    250    251     1  0.0000000  4.9162000  2
    240    241    250    251     1  0.0000000  0.6024960  3
    240    241    250    248     1  0.0000000  0.6508444  3
    240    241    242    244     1  0.0000000  0.6508444  3
    240    241    242    243     1  0.0000000  4.9162000  2
    240    241    242    243     1  0.0000000  0.6024960  3
    239    240    241    250     1  180.0000771  0.4184000  2
    239    240    241    250     1  0.0000000  1.6024720  3
    239    240    241    242     1  180.0000771  0.4184000  2
    239    240    241    242     1  0.0000000  1.6024720  3
    238    239    240    241     1  180.0000771  0.4184000  2
    238    239    240    241     1  0.0000000  1.6024720  3
    237    238    239    240     1  0.0000000  0.6508444  3
    237    236    235    252     1  0.0000000  9.4558400  1
    237    236    235    252     1  180.0000771  0.1255200  3
    237    236    235    252     1  180.0000771  2.7196000  4
    236    237    238    239     1  0.0000000  2.1756800  3
    236    235    252    253     1  180.0000771  10.4600000  2
    235    236    237    238     1  0.0000000  0.4184000  3
    233    285    284    286     1  0.0000000  0.0000000  2
    233    285    284    283     1  0.0000000  0.0000000  2
    232    233    285    284     1  180.0000771  27.8236000  2
    232    226    228    252     1  0.0000000  0.6508444  3
    232    226    225    235     1  0.0000000  0.2928800  2
    232    226    225    235     1  0.0000000  0.4184000  4
    231    229    228    252     1  0.0000000  0.6508444  3
    231    232    233    285     1  0.0000000  0.0000000  2
    230    229    231    232     1  0.0000000  0.6508444  3
    230    229    228    252     1  0.0000000  0.6508444  3
    229    231    232    233     1  0.0000000  0.6508444  3
    229    228    252    253     1  180.0000771  0.0000000  2
    229    228    252    235     1  0.0000000  0.2928800  2
    229    228    252    235     1  0.0000000  0.4184000  4
    229    228    226    232     1  180.0000771  0.8368000  1
    229    228    226    232     1  180.0000771  1.0460000  2
    229    228    226    232     1  0.0000000  0.7531200  3
    228    229    231    232     1  180.0000771  0.8368000  1
    228    229    231    232     1  180.0000771  1.0460000  2
    228    229    231    232     1  0.0000000  0.7531200  3
    228    252    235    236     1  180.0000771  6.2760000  1
    228    252    235    236     1  0.0000000  0.0000000  2
    228    226    232    231     1  180.0000771  0.8368000  1
    228    226    232    231     1  180.0000771  1.0460000  2
    228    226    232    231     1  0.0000000  0.7531200  3
    228    226    232    233     1  0.0000000  0.6508444  3
    228    226    225    235     1  0.0000000  0.2928800  2
    228    226    225    235     1  0.0000000  0.4184000  4
    226    232    231    229     1  180.0000771  0.8368000  1
    226    232    231    229     1  180.0000771  1.0460000  2
    226    232    231    229     1  0.0000000  0.7531200  3
    226    232    233    285     1  0.0000000  0.0000000  2
    226    228    229    230     1  0.0000000  0.6508444  3
    226    228    229    231     1  180.0000771  0.8368000  1
    226    228    229    231     1  180.0000771  1.0460000  2
    226    228    229    231     1  0.0000000  0.7531200  3
    226    228    252    253     1  180.0000771  0.0000000  2
    226    228    252    235     1  0.0000000  0.2928800  2
    226    228    252    235     1  0.0000000  0.4184000  4
    226    225    235    252     1  180.0000771  10.4600000  2
    226    225    235    236     1  180.0000771  6.2760000  1
    226    225    235    236     1  0.0000000  0.0000000  2
    225    226    232    231     1  0.0000000  0.6508444  3
    225    226    232    233     1  0.0000000  0.6508444  3
    225    226    228    229     1  0.0000000  0.6508444  3
    225    226    228    252     1  0.0000000  0.6508444  3
    225    235    252    228     1  180.0000771  10.4600000  2
    225    235    252    253     1  180.0000771  10.4600000  2
    225    235    236    237     1  0.0000000  9.4558400  1
    225    235    236    237     1  180.0000771  0.1255200  3
    225    235    236    237     1  180.0000771  2.7196000  4
    224    225    226    232     1  180.0000771  0.0000000  2
    224    225    226    228     1  180.0000771  0.0000000  2
    224    225    235    252     1  180.0000771  10.4600000  2
    224    225    235    236     1  180.0000771  10.4600000  2
    304    303    305    306     1  0.0000000  4.9162000  2
    304    303    305    306     1  0.0000000  0.6024960  3
    302    303    305    306     1  0.0000000  4.9162000  2
    302    303    305    306     1  0.0000000  0.6024960  3
    301    300    299    302     1  0.0000000  4.9162000  2
    301    300    299    302     1  0.0000000  0.6024960  3
    300    299    302    303     1  180.0000771  0.4184000  2
    300    299    302    303     1  0.0000000  1.6024720  3
    299    302    303    304     1  0.0000000  1.6038667  3
    299    302    303    305     1  180.0000771  0.4184000  2
    299    302    303    305     1  0.0000000  1.6024720  3
    299    297    296    305     1  180.0000771  0.8368000  1
    299    297    296    305     1  180.0000771  1.0460000  2
    299    297    296    305     1  0.0000000  0.7531200  3
    298    297    296    305     1  0.0000000  0.6508444  3
    298    297    299    302     1  0.0000000  4.9162000  2
    298    297    299    302     1  0.0000000  0.6024960  3
    298    297    299    300     1  0.0000000  0.6508444  3
    297    296    305    306     1  0.0000000  0.6508444  3
    297    296    305    303     1  180.0000771  0.8368000  1
    297    296    305    303     1  180.0000771  1.0460000  2
    297    296    305    303     1  0.0000000  0.7531200  3
    297    299    302    303     1  180.0000771  0.4184000  2
    297    299    302    303     1  0.0000000  1.6024720  3
    297    299    300    301     1  0.0000000  0.6508444  3
    296    305    303    304     1  0.0000000  0.6508444  3
    296    305    303    302     1  0.0000000  0.6508444  3
    296    297    299    302     1  0.0000000  0.6508444  3
    296    297    299    300     1  180.0000771  0.8368000  1
    296    297    299    300     1  180.0000771  1.0460000  2
    296    297    299    300     1  0.0000000  0.7531200  3
    295    296    305    306     1  0.0000000  4.9162000  2
    295    296    305    306     1  0.0000000  0.6024960  3
    295    296    305    303     1  0.0000000  0.6508444  3
    295    296    297    299     1  0.0000000  0.6508444  3
    295    296    297    298     1  0.0000000  4.9162000  2
    295    296    297    298     1  0.0000000  0.6024960  3
    294    295    296    305     1  180.0000771  0.4184000  2
    294    295    296    305     1  0.0000000  1.6024720  3
    294    295    296    297     1  180.0000771  0.4184000  2
    294    295    296    297     1  0.0000000  1.6024720  3
    293    294    295    296     1  180.0000771  0.4184000  2
    293    294    295    296     1  0.0000000  1.6024720  3
    292    293    294    295     1  0.0000000  0.6508444  3
    292    291    290    307     1  0.0000000  9.4558400  1
    292    291    290    307     1  180.0000771  0.1255200  3
    292    291    290    307     1  180.0000771  2.7196000  4
    291    292    293    294     1  0.0000000  2.1756800  3
    291    290    307    308     1  180.0000771  10.4600000  2
    290    291    292    293     1  0.0000000  0.4184000  3
    288    340    339    341     1  0.0000000  0.0000000  2
    288    340    339    338     1  0.0000000  0.0000000  2
    287    288    340    339     1  180.0000771  27.8236000  2
    287    281    283    307     1  0.0000000  0.6508444  3
    287    281    280    290     1  0.0000000  0.2928800  2
    287    281    280    290     1  0.0000000  0.4184000  4
    286    284    283    307     1  0.0000000  0.6508444  3
    286    287    288    340     1  0.0000000  0.0000000  2
    285    284    286    287     1  0.0000000  0.6508444  3
    285    284    283    307     1  0.0000000  0.6508444  3
    284    286    287    288     1  0.0000000  0.6508444  3
    284    283    307    308     1  180.0000771  0.0000000  2
    284    283    307    290     1  0.0000000  0.2928800  2
    284    283    307    290     1  0.0000000  0.4184000  4
    284    283    281    287     1  180.0000771  0.8368000  1
    284    283    281    287     1  180.0000771  1.0460000  2
    284    283    281    287     1  0.0000000  0.7531200  3
    283    284    286    287     1  180.0000771  0.8368000  1
    283    284    286    287     1  180.0000771  1.0460000  2
    283    284    286    287     1  0.0000000  0.7531200  3
    283    307    290    291     1  180.0000771  6.2760000  1
    283    307    290    291     1  0.0000000  0.0000000  2
    283    281    287    286     1  180.0000771  0.8368000  1
    283    281    287    286     1  180.0000771  1.0460000  2
    283    281    287    286     1  0.0000000  0.7531200  3
    283    281    287    288     1  0.0000000  0.6508444  3
    283    281    280    290     1  0.0000000  0.2928800  2
    283    281    280    290     1  0.0000000  0.4184000  4
    281    287    286    284     1  180.0000771  0.8368000  1
    281    287    286    284     1  180.0000771  1.0460000  2
    281    287    286    284     1  0.0000000  0.7531200  3
    281    287    288    340     1  0.0000000  0.0000000  2
    281    283    284    285     1  0.0000000  0.6508444  3
    281    283    284    286     1  180.0000771  0.8368000  1
    281    283    284    286     1  180.0000771  1.0460000  2
    281    283    284    286     1  0.0000000  0.7531200  3
    281    283    307    308     1  180.0000771  0.0000000  2
    281    283    307    290     1  0.0000000  0.2928800  2
    281    283    307    290     1  0.0000000  0.4184000  4
    281    280    290    307     1  180.0000771  10.4600000  2
    281    280    290    291     1  180.0000771  6.2760000  1
    281    280    290    291     1  0.0000000  0.0000000  2
    280    281    287    286     1  0.0000000  0.6508444  3
    280    281    287    288     1  0.0000000  0.6508444  3
    280    281    283    284     1  0.0000000  0.6508444  3
    280    281    283    307     1  0.0000000  0.6508444  3
    280    290    307    283     1  180.0000771  10.4600000  2
    280    290    307    308     1  180.0000771  10.4600000  2
    280    290    291    292     1  0.0000000  9.4558400  1
    280    290    291    292     1  180.0000771  0.1255200  3
    280    290    291    292     1  180.0000771  2.7196000  4
    279    280    281    287     1  180.0000771  0.0000000  2
    279    280    281    283     1  180.0000771  0.0000000  2
    279    280    290    307     1  180.0000771  10.4600000  2
    279    280    290    291     1  180.0000771  10.4600000  2
    359    358    360    361     1  0.0000000  4.9162000  2
    359    358    360    361     1  0.0000000  0.6024960  3
    357    358    360    361     1  0.0000000  4.9162000  2
    357    358    360    361     1  0.0000000  0.6024960  3
    356    355    354    357     1  0.0000000  4.9162000  2
    356    355    354    357     1  0.0000000  0.6024960  3
    355    354    357    358     1  180.0000771  0.4184000  2
    355    354    357    358     1  0.0000000  1.6024720  3
    354    357    358    359     1  0.0000000  1.6038667  3
    354    357    358    360     1  180.0000771  0.4184000  2
    354    357    358    360     1  0.0000000  1.6024720  3
    354    352    351    360     1  180.0000771  0.8368000  1
    354    352    351    360     1  180.0000771  1.0460000  2
    354    352    351    360     1  0.0000000  0.7531200  3
    353    352    351    360     1  0.0000000  0.6508444  3
    353    352    354    357     1  0.0000000  4.9162000  2
    353    352    354    357     1  0.0000000  0.6024960  3
    353    352    354    355     1  0.0000000  0.6508444  3
    352    351    360    361     1  0.0000000  0.6508444  3
    352    351    360    358     1  180.0000771  0.8368000  1
    352    351    360    358     1  180.0000771  1.0460000  2
    352    351    360    358     1  0.0000000  0.7531200  3
    352    354    357    358     1  180.0000771  0.4184000  2
    352    354    357    358     1  0.0000000  1.6024720  3
    352    354    355    356     1  0.0000000  0.6508444  3
    351    360    358    359     1  0.0000000  0.6508444  3
    351    360    358    357     1  0.0000000  0.6508444  3
    351    352    354    357     1  0.0000000  0.6508444  3
    351    352    354    355     1  180.0000771  0.8368000  1
    351    352    354    355     1  180.0000771  1.0460000  2
    351    352    354    355     1  0.0000000  0.7531200  3
    350    351    360    361     1  0.0000000  4.9162000  2
    350    351    360    361     1  0.0000000  0.6024960  3
    350    351    360    358     1  0.0000000  0.6508444  3
    350    351    352    354     1  0.0000000  0.6508444  3
    350    351    352    353     1  0.0000000  4.9162000  2
    350    351    352    353     1  0.0000000  0.6024960  3
    349    350    351    360     1  180.0000771  0.4184000  2
    349    350    351    360     1  0.0000000  1.6024720  3
    349    350    351    352     1  180.0000771  0.4184000  2
    349    350    351    352     1  0.0000000  1.6024720  3
    348    349    350    351     1  180.0000771  0.4184000  2
    348    349    350    351     1  0.0000000  1.6024720  3
    347    348    349    350     1  0.0000000  0.6508444  3
    347    346    345    362     1  0.0000000  9.4558400  1
    347    346    345    362     1  180.0000771  0.1255200  3
    347    346    345    362     1  180.0000771  2.7196000  4
    346    347    348    349     1  0.0000000  2.1756800  3
    346    345    362    363     1  180.0000771  10.4600000  2
    345    346    347    348     1  0.0000000  0.4184000  3
    343    395    394    396     1  0.0000000  0.0000000  2
    343    395    394    393     1  0.0000000  0.0000000  2
    342    343    395    394     1  180.0000771  27.8236000  2
    342    336    338    362     1  0.0000000  0.6508444  3
    342    336    335    345     1  0.0000000  0.2928800  2
    342    336    335    345     1  0.0000000  0.4184000  4
    341    339    338    362     1  0.0000000  0.6508444  3
    341    342    343    395     1  0.0000000  0.0000000  2
    340    339    341    342     1  0.0000000  0.6508444  3
    340    339    338    362     1  0.0000000  0.6508444  3
    339    341    342    343     1  0.0000000  0.6508444  3
    339    338    362    363     1  180.0000771  0.0000000  2
    339    338    362    345     1  0.0000000  0.2928800  2
    339    338    362    345     1  0.0000000  0.4184000  4
    339    338    336    342     1  180.0000771  0.8368000  1
    339    338    336    342     1  180.0000771  1.0460000  2
    339    338    336    342     1  0.0000000  0.7531200  3
    338    339    341    342     1  180.0000771  0.8368000  1
    338    339    341    342     1  180.0000771  1.0460000  2
    338    339    341    342     1  0.0000000  0.7531200  3
    338    362    345    346     1  180.0000771  6.2760000  1
    338    362    345    346     1  0.0000000  0.0000000  2
    338    336    342    341     1  180.0000771  0.8368000  1
    338    336    342    341     1  180.0000771  1.0460000  2
    338    336    342    341     1  0.0000000  0.7531200  3
    338    336    342    343     1  0.0000000  0.6508444  3
    338    336    335    345     1  0.0000000  0.2928800  2
    338    336    335    345     1  0.0000000  0.4184000  4
    336    342    341    339     1  180.0000771  0.8368000  1
    336    342    341    339     1  180.0000771  1.0460000  2
    336    342    341    339     1  0.0000000  0.7531200  3
    336    342    343    395     1  0.0000000  0.0000000  2
    336    338    339    340     1  0.0000000  0.6508444  3
    336    338    339    341     1  180.0000771  0.8368000  1
    336    338    339    341     1  180.0000771  1.0460000  2
    336    338    339    341     1  0.0000000  0.7531200  3
    336    338    362    363     1  180.0000771  0.0000000  2
    336    338    362    345     1  0.0000000  0.2928800  2
    336    338    362    345     1  0.0000000  0.4184000  4
    336    335    345    362     1  180.0000771  10.4600000  2
    336    335    345    346     1  180.0000771  6.2760000  1
    336    335    345    346     1  0.0000000  0.0000000  2
    335    336    342    341     1  0.0000000  0.6508444  3
    335    336    342    343     1  0.0000000  0.6508444  3
    335    336    338    339     1  0.0000000  0.6508444  3
    335    336    338    362     1  0.0000000  0.6508444  3
    335    345    362    338     1  180.0000771  10.4600000  2
    335    345    362    363     1  180.0000771  10.4600000  2
    335    345    346    347     1  0.0000000  9.4558400  1
    335    345    346    347     1  180.0000771  0.1255200  3
    335    345    346    347     1  180.0000771  2.7196000  4
    334    335    336    342     1  180.0000771  0.0000000  2
    334    335    336    338     1  180.0000771  0.0000000  2
    334    335    345    362     1  180.0000771  10.4600000  2
    334    335    345    346     1  180.0000771  10.4600000  2
    414    413    415    416     1  0.0000000  4.9162000  2
    414    413    415    416     1  0.0000000  0.6024960  3
    412    413    415    416     1  0.0000000  4.9162000  2
    412    413    415    416     1  0.0000000  0.6024960  3
    411    410    409    412     1  0.0000000  4.9162000  2
    411    410    409    412     1  0.0000000  0.6024960  3
    410    409    412    413     1  180.0000771  0.4184000  2
    410    409    412    413     1  0.0000000  1.6024720  3
    409    412    413    414     1  0.0000000  1.6038667  3
    409    412    413    415     1  180.0000771  0.4184000  2
    409    412    413    415     1  0.0000000  1.6024720  3
    409    407    406    415     1  180.0000771  0.8368000  1
    409    407    406    415     1  180.0000771  1.0460000  2
    409    407    406    415     1  0.0000000  0.7531200  3
    408    407    406    415     1  0.0000000  0.6508444  3
    408    407    409    412     1  0.0000000  4.9162000  2
    408    407    409    412     1  0.0000000  0.6024960  3
    408    407    409    410     1  0.0000000  0.6508444  3
    407    406    415    416     1  0.0000000  0.6508444  3
    407    406    415    413     1  180.0000771  0.8368000  1
    407    406    415    413     1  180.0000771  1.0460000  2
    407    406    415    413     1  0.0000000  0.7531200  3
    407    409    412    413     1  180.0000771  0.4184000  2
    407    409    412    413     1  0.0000000  1.6024720  3
    407    409    410    411     1  0.0000000  0.6508444  3
    406    415    413    414     1  0.0000000  0.6508444  3
    406    415    413    412     1  0.0000000  0.6508444  3
    406    407    409    412     1  0.0000000  0.6508444  3
    406    407    409    410     1  180.0000771  0.8368000  1
    406    407    409    410     1  180.0000771  1.0460000  2
    406    407    409    410     1  0.0000000  0.7531200  3
    405    406    415    416     1  0.0000000  4.9162000  2
    405    406    415    416     1  0.0000000  0.6024960  3
    405    406    415    413     1  0.0000000  0.6508444  3
    405    406    407    409     1  0.0000000  0.6508444  3
    405    406    407    408     1  0.0000000  4.9162000  2
    405    406    407    408     1  0.0000000  0.6024960  3
    404    405    406    415     1  180.0000771  0.4184000  2
    404    405    406    415     1  0.0000000  1.6024720  3
    404    405    406    407     1  180.0000771  0.4184000  2
    404    405    406    407     1  0.0000000  1.6024720  3
    403    404    405    406     1  180.0000771  0.4184000  2
    403    404    405    406     1  0.0000000  1.6024720  3
    402    403    404    405     1  0.0000000  0.6508444  3
    402    401    400    417     1  0.0000000  9.4558400  1
    402    401    400    417     1  180.0000771  0.1255200  3
    402    401    400    417     1  180.0000771  2.7196000  4
    401    402    403    404     1  0.0000000  2.1756800  3
    401    400    417    418     1  180.0000771  10.4600000  2
    400    401    402    403     1  0.0000000  0.4184000  3
    398    450    449    451     1  0.0000000  0.0000000  2
    398    450    449    448     1  0.0000000  0.0000000  2
    397    398    450    449     1  180.0000771  27.8236000  2
    397    391    393    417     1  0.0000000  0.6508444  3
    397    391    390    400     1  0.0000000  0.2928800  2
    397    391    390    400     1  0.0000000  0.4184000  4
    396    394    393    417     1  0.0000000  0.6508444  3
    396    397    398    450     1  0.0000000  0.0000000  2
    395    394    396    397     1  0.0000000  0.6508444  3
    395    394    393    417     1  0.0000000  0.6508444  3
    394    396    397    398     1  0.0000000  0.6508444  3
    394    393    417    418     1  180.0000771  0.0000000  2
    394    393    417    400     1  0.0000000  0.2928800  2
    394    393    417    400     1  0.0000000  0.4184000  4
    394    393    391    397     1  180.0000771  0.8368000  1
    394    393    391    397     1  180.0000771  1.0460000  2
    394    393    391    397     1  0.0000000  0.7531200  3
    393    394    396    397     1  180.0000771  0.8368000  1
    393    394    396    397     1  180.0000771  1.0460000  2
    393    394    396    397     1  0.0000000  0.7531200  3
    393    417    400    401     1  180.0000771  6.2760000  1
    393    417    400    401     1  0.0000000  0.0000000  2
    393    391    397    396     1  180.0000771  0.8368000  1
    393    391    397    396     1  180.0000771  1.0460000  2
    393    391    397    396     1  0.0000000  0.7531200  3
    393    391    397    398     1  0.0000000  0.6508444  3
    393    391    390    400     1  0.0000000  0.2928800  2
    393    391    390    400     1  0.0000000  0.4184000  4
    391    397    396    394     1  180.0000771  0.8368000  1
    391    397    396    394     1  180.0000771  1.0460000  2
    391    397    396    394     1  0.0000000  0.7531200  3
    391    397    398    450     1  0.0000000  0.0000000  2
    391    393    394    395     1  0.0000000  0.6508444  3
    391    393    394    396     1  180.0000771  0.8368000  1
    391    393    394    396     1  180.0000771  1.0460000  2
    391    393    394    396     1  0.0000000  0.7531200  3
    391    393    417    418     1  180.0000771  0.0000000  2
    391    393    417    400     1  0.0000000  0.2928800  2
    391    393    417    400     1  0.0000000  0.4184000  4
    391    390    400    417     1  180.0000771  10.4600000  2
    391    390    400    401     1  180.0000771  6.2760000  1
    391    390    400    401     1  0.0000000  0.0000000  2
    390    391    397    396     1  0.0000000  0.6508444  3
    390    391    397    398     1  0.0000000  0.6508444  3
    390    391    393    394     1  0.0000000  0.6508444  3
    390    391    393    417     1  0.0000000  0.6508444  3
    390    400    417    393     1  180.0000771  10.4600000  2
    390    400    417    418     1  180.0000771  10.4600000  2
    390    400    401    402     1  0.0000000  9.4558400  1
    390    400    401    402     1  180.0000771  0.1255200  3
    390    400    401    402     1  180.0000771  2.7196000  4
    389    390    391    397     1  180.0000771  0.0000000  2
    389    390    391    393     1  180.0000771  0.0000000  2
    389    390    400    417     1  180.0000771  10.4600000  2
    389    390    400    401     1  180.0000771  10.4600000  2
    469    468    470    471     1  0.0000000  4.9162000  2
    469    468    470    471     1  0.0000000  0.6024960  3
    467    468    470    471     1  0.0000000  4.9162000  2
    467    468    470    471     1  0.0000000  0.6024960  3
    466    465    464    467     1  0.0000000  4.9162000  2
    466    465    464    467     1  0.0000000  0.6024960  3
    465    464    467    468     1  180.0000771  0.4184000  2
    465    464    467    468     1  0.0000000  1.6024720  3
    464    467    468    469     1  0.0000000  1.6038667  3
    464    467    468    470     1  180.0000771  0.4184000  2
    464    467    468    470     1  0.0000000  1.6024720  3
    464    462    461    470     1  180.0000771  0.8368000  1
    464    462    461    470     1  180.0000771  1.0460000  2
    464    462    461    470     1  0.0000000  0.7531200  3
    463    462    461    470     1  0.0000000  0.6508444  3
    463    462    464    467     1  0.0000000  4.9162000  2
    463    462    464    467     1  0.0000000  0.6024960  3
    463    462    464    465     1  0.0000000  0.6508444  3
    462    461    470    471     1  0.0000000  0.6508444  3
    462    461    470    468     1  180.0000771  0.8368000  1
    462    461    470    468     1  180.0000771  1.0460000  2
    462    461    470    468     1  0.0000000  0.7531200  3
    462    464    467    468     1  180.0000771  0.4184000  2
    462    464    467    468     1  0.0000000  1.6024720  3
    462    464    465    466     1  0.0000000  0.6508444  3
    461    470    468    469     1  0.0000000  0.6508444  3
    461    470    468    467     1  0.0000000  0.6508444  3
    461    462    464    467     1  0.0000000  0.6508444  3
    461    462    464    465     1  180.0000771  0.8368000  1
    461    462    464    465     1  180.0000771  1.0460000  2
    461    462    464    465     1  0.0000000  0.7531200  3
    460    461    470    471     1  0.0000000  4.9162000  2
    460    461    470    471     1  0.0000000  0.6024960  3
    460    461    470    468     1  0.0000000  0.6508444  3
    460    461    462    464     1  0.0000000  0.6508444  3
    460    461    462    463     1  0.0000000  4.9162000  2
    460    461    462    463     1  0.0000000  0.6024960  3
    459    460    461    470     1  180.0000771  0.4184000  2
    459    460    461    470     1  0.0000000  1.6024720  3
    459    460    461    462     1  180.0000771  0.4184000  2
    459    460    461    462     1  0.0000000  1.6024720  3
    458    459    460    461     1  180.0000771  0.4184000  2
    458    459    460    461     1  0.0000000  1.6024720  3
    457    458    459    460     1  0.0000000  0.6508444  3
    457    456    455    472     1  0.0000000  9.4558400  1
    457    456    455    472     1  180.0000771  0.1255200  3
    457    456    455    472     1  180.0000771  2.7196000  4
    456    457    458    459     1  0.0000000  2.1756800  3
    456    455    472    473     1  180.0000771  10.4600000  2
    455    456    457    458     1  0.0000000  0.4184000  3
    453    505    504    506     1  0.0000000  0.0000000  2
    453    505    504    503     1  0.0000000  0.0000000  2
    452    453    505    504     1  180.0000771  27.8236000  2
    452    446    448    472     1  0.0000000  0.6508444  3
    452    446    445    455     1  0.0000000  0.2928800  2
    452    446    445    455     1  0.0000000  0.4184000  4
    451    449    448    472     1  0.0000000  0.6508444  3
    451    452    453    505     1  0.0000000  0.0000000  2
    450    449    451    452     1  0.0000000  0.6508444  3
    450    449    448    472     1  0.0000000  0.6508444  3
    449    451    452    453     1  0.0000000  0.6508444  3
    449    448    472    473     1  180.0000771  0.0000000  2
    449    448    472    455     1  0.0000000  0.2928800  2
    449    448    472    455     1  0.0000000  0.4184000  4
    449    448    446    452     1  180.0000771  0.8368000  1
    449    448    446    452     1  180.0000771  1.0460000  2
    449    448    446    452     1  0.0000000  0.7531200  3
    448    449    451    452     1  180.0000771  0.8368000  1
    448    449    451    452     1  180.0000771  1.0460000  2
    448    449    451    452     1  0.0000000  0.7531200  3
    448    472    455    456     1  180.0000771  6.2760000  1
    448    472    455    456     1  0.0000000  0.0000000  2
    448    446    452    451     1  180.0000771  0.8368000  1
    448    446    452    451     1  180.0000771  1.0460000  2
    448    446    452    451     1  0.0000000  0.7531200  3
    448    446    452    453     1  0.0000000  0.6508444  3
    448    446    445    455     1  0.0000000  0.2928800  2
    448    446    445    455     1  0.0000000  0.4184000  4
    446    452    451    449     1  180.0000771  0.8368000  1
    446    452    451    449     1  180.0000771  1.0460000  2
    446    452    451    449     1  0.0000000  0.7531200  3
    446    452    453    505     1  0.0000000  0.0000000  2
    446    448    449    450     1  0.0000000  0.6508444  3
    446    448    449    451     1  180.0000771  0.8368000  1
    446    448    449    451     1  180.0000771  1.0460000  2
    446    448    449    451     1  0.0000000  0.7531200  3
    446    448    472    473     1  180.0000771  0.0000000  2
    446    448    472    455     1  0.0000000  0.2928800  2
    446    448    472    455     1  0.0000000  0.4184000  4
    446    445    455    472     1  180.0000771  10.4600000  2
    446    445    455    456     1  180.0000771  6.2760000  1
    446    445    455    456     1  0.0000000  0.0000000  2
    445    446    452    451     1  0.0000000  0.6508444  3
    445    446    452    453     1  0.0000000  0.6508444  3
    445    446    448    449     1  0.0000000  0.6508444  3
    445    446    448    472     1  0.0000000  0.6508444  3
    445    455    472    448     1  180.0000771  10.4600000  2
    445    455    472    473     1  180.0000771  10.4600000  2
    445    455    456    457     1  0.0000000  9.4558400  1
    445    455    456    457     1  180.0000771  0.1255200  3
    445    455    456    457     1  180.0000771  2.7196000  4
    444    445    446    452     1  180.0000771  0.0000000  2
    444    445    446    448     1  180.0000771  0.0000000  2
    444    445    455    472     1  180.0000771  10.4600000  2
    444    445    455    456     1  180.0000771  10.4600000  2
    524    523    525    526     1  0.0000000  4.9162000  2
    524    523    525    526     1  0.0000000  0.6024960  3
    522    523    525    526     1  0.0000000  4.9162000  2
    522    523    525    526     1  0.0000000  0.6024960  3
    521    520    519    522     1  0.0000000  4.9162000  2
    521    520    519    522     1  0.0000000  0.6024960  3
    520    519    522    523     1  180.0000771  0.4184000  2
    520    519    522    523     1  0.0000000  1.6024720  3
    519    522    523    524     1  0.0000000  1.6038667  3
    519    522    523    525     1  180.0000771  0.4184000  2
    519    522    523    525     1  0.0000000  1.6024720  3
    519    517    516    525     1  180.0000771  0.8368000  1
    519    517    516    525     1  180.0000771  1.0460000  2
    519    517    516    525     1  0.0000000  0.7531200  3
    518    517    516    525     1  0.0000000  0.6508444  3
    518    517    519    522     1  0.0000000  4.9162000  2
    518    517    519    522     1  0.0000000  0.6024960  3
    518    517    519    520     1  0.0000000  0.6508444  3
    517    516    525    526     1  0.0000000  0.6508444  3
    517    516    525    523     1  180.0000771  0.8368000  1
    517    516    525    523     1  180.0000771  1.0460000  2
    517    516    525    523     1  0.0000000  0.7531200  3
    517    519    522    523     1  180.0000771  0.4184000  2
    517    519    522    523     1  0.0000000  1.6024720  3
    517    519    520    521     1  0.0000000  0.6508444  3
    516    525    523    524     1  0.0000000  0.6508444  3
    516    525    523    522     1  0.0000000  0.6508444  3
    516    517    519    522     1  0.0000000  0.6508444  3
    516    517    519    520     1  180.0000771  0.8368000  1
    516    517    519    520     1  180.0000771  1.0460000  2
    516    517    519    520     1  0.0000000  0.7531200  3
    515    516    525    526     1  0.0000000  4.9162000  2
    515    516    525    526     1  0.0000000  0.6024960  3
    515    516    525    523     1  0.0000000  0.6508444  3
    515    516    517    519     1  0.0000000  0.6508444  3
    515    516    517    518     1  0.0000000  4.9162000  2
    515    516    517    518     1  0.0000000  0.6024960  3
    514    515    516    525     1  180.0000771  0.4184000  2
    514    515    516    525     1  0.0000000  1.6024720  3
    514    515    516    517     1  180.0000771  0.4184000  2
    514    515    516    517     1  0.0000000  1.6024720  3
    513    514    515    516     1  180.0000771  0.4184000  2
    513    514    515    516     1  0.0000000  1.6024720  3
    512    513    514    515     1  0.0000000  0.6508444  3
    512    511    510    527     1  0.0000000  9.4558400  1
    512    511    510    527     1  180.0000771  0.1255200  3
    512    511    510    527     1  180.0000771  2.7196000  4
    511    512    513    514     1  0.0000000  2.1756800  3
    511    510    527    528     1  180.0000771  10.4600000  2
    510    511    512    513     1  0.0000000  0.4184000  3
    507    501    503    527     1  0.0000000  0.6508444  3
    507    501    500    510     1  0.0000000  0.2928800  2
    507    501    500    510     1  0.0000000  0.4184000  4
    506    504    503    527     1  0.0000000  0.6508444  3
    506    507    508    554     1  0.0000000  0.0000000  2
    505    504    506    507     1  0.0000000  0.6508444  3
    505    504    503    527     1  0.0000000  0.6508444  3
    504    506    507    508     1  0.0000000  0.6508444  3
    504    503    527    528     1  180.0000771  0.0000000  2
    504    503    527    510     1  0.0000000  0.2928800  2
    504    503    527    510     1  0.0000000  0.4184000  4
    504    503    501    507     1  180.0000771  0.8368000  1
    504    503    501    507     1  180.0000771  1.0460000  2
    504    503    501    507     1  0.0000000  0.7531200  3
    503    504    506    507     1  180.0000771  0.8368000  1
    503    504    506    507     1  180.0000771  1.0460000  2
    503    504    506    507     1  0.0000000  0.7531200  3
    503    527    510    511     1  180.0000771  6.2760000  1
    503    527    510    511     1  0.0000000  0.0000000  2
    503    501    507    506     1  180.0000771  0.8368000  1
    503    501    507    506     1  180.0000771  1.0460000  2
    503    501    507    506     1  0.0000000  0.7531200  3
    503    501    507    508     1  0.0000000  0.6508444  3
    503    501    500    510     1  0.0000000  0.2928800  2
    503    501    500    510     1  0.0000000  0.4184000  4
    501    507    506    504     1  180.0000771  0.8368000  1
    501    507    506    504     1  180.0000771  1.0460000  2
    501    507    506    504     1  0.0000000  0.7531200  3
    501    507    508    554     1  0.0000000  0.0000000  2
    501    503    504    505     1  0.0000000  0.6508444  3
    501    503    504    506     1  180.0000771  0.8368000  1
    501    503    504    506     1  180.0000771  1.0460000  2
    501    503    504    506     1  0.0000000  0.7531200  3
    501    503    527    528     1  180.0000771  0.0000000  2
    501    503    527    510     1  0.0000000  0.2928800  2
    501    503    527    510     1  0.0000000  0.4184000  4
    501    500    510    527     1  180.0000771  10.4600000  2
    501    500    510    511     1  180.0000771  6.2760000  1
    501    500    510    511     1  0.0000000  0.0000000  2
    500    501    507    506     1  0.0000000  0.6508444  3
    500    501    507    508     1  0.0000000  0.6508444  3
    500    501    503    504     1  0.0000000  0.6508444  3
    500    501    503    527     1  0.0000000  0.6508444  3
    500    510    527    503     1  180.0000771  10.4600000  2
    500    510    527    528     1  180.0000771  10.4600000  2
    500    510    511    512     1  0.0000000  9.4558400  1
    500    510    511    512     1  180.0000771  0.1255200  3
    500    510    511    512     1  180.0000771  2.7196000  4
    499    500    501    507     1  180.0000771  0.0000000  2
    499    500    501    503     1  180.0000771  0.0000000  2
    499    500    510    527     1  180.0000771  10.4600000  2
    499    500    510    511     1  180.0000771  10.4600000  2
      8     15     32     33     4  180.0000771  43.9320000  2
      5     32     15     16     4  180.0000771  4.6024000  2
      6     15      5      4     4  180.0000771  43.9320000  2
     63     70     87     88     4  180.0000771  43.9320000  2
     60     87     70     71     4  180.0000771  4.6024000  2
     61     70     60     59     4  180.0000771  43.9320000  2
    118    125    142    143     4  180.0000771  43.9320000  2
    115    142    125    126     4  180.0000771  4.6024000  2
    116    125    115    114     4  180.0000771  43.9320000  2
    173    180    197    198     4  180.0000771  43.9320000  2
    170    197    180    181     4  180.0000771  4.6024000  2
    171    180    170    169     4  180.0000771  43.9320000  2
    228    235    252    253     4  180.0000771  43.9320000  2
    225    252    235    236     4  180.0000771  4.6024000  2
    226    235    225    224     4  180.0000771  43.9320000  2
    283    290    307    308     4  180.0000771  43.9320000  2
    280    307    290    291     4  180.0000771  4.6024000  2
    281    290    280    279     4  180.0000771  43.9320000  2
    338    345    362    363     4  180.0000771  43.9320000  2
    335    362    345    346     4  180.0000771  4.6024000  2
    336    345    335    334     4  180.0000771  43.9320000  2
    393    400    417    418     4  180.0000771  43.9320000  2
    390    417    400    401     4  180.0000771  4.6024000  2
    391    400    390    389     4  180.0000771  43.9320000  2
    448    455    472    473     4  180.0000771  43.9320000  2
    445    472    455    456     4  180.0000771  4.6024000  2
    446    455    445    444     4  180.0000771  43.9320000  2
    503    510    527    528     4  180.0000771  43.9320000  2
    500    527    510    511     4  180.0000771  4.6024000  2
    501    510    500    499     4  180.0000771  43.9320000  2
      3      1     10     35     1  180.0000771  27.8236000  2
      3      1     10      9     1  180.0000771  27.8236000  2
      2      1     10     35     1  180.0000771  27.8236000  2
      2      1     10      9     1  180.0000771  27.8236000  2
      1     10      9     34     1  0.0000000  4.8116000  1
      1     10      9     34     1  0.0000000  0.0000000  2
      1     10      9     34     1  180.0000771  1.5899200  3
     57     30     31     58     1  0.0000000  0.6973333  3
     55     28     29     56     1  0.0000000  0.6973333  3
     55     28     30     57     1  0.0000000  0.6508444  3
     53     25     26     54     1  0.0000000  0.5146320  3
     52     25     26     54     1  0.0000000  0.5146320  3
     51     24     25     52     1  0.0000000  0.6508444  3
     51     24     25     53     1  0.0000000  0.6508444  3
     49     22     24     51     1  0.0000000  0.6508444  3
     49     22     23     50     1  0.0000000  0.6973333  3
     48     21     30     57     1  0.0000000  0.6508444  3
     48     21     22     49     1  0.0000000  0.6508444  3
     45     18     19     46     1  0.0000000  0.6508444  3
     45     18     19     47     1  0.0000000  0.6508444  3
     44     18     19     46     1  0.0000000  0.6508444  3
     44     18     19     47     1  0.0000000  0.6508444  3
     43     17     18     45     1  0.0000000  0.5020800  3
     43     17     18     44     1  0.0000000  0.5020800  3
     42     17     18     45     1  0.0000000  0.5020800  3
     42     17     18     44     1  0.0000000  0.5020800  3
     41     16     17     43     1  0.0000000  0.6508444  3
     41     16     17     42     1  0.0000000  0.6508444  3
     40     16     17     43     1  0.0000000  0.6508444  3
     40     16     17     42     1  0.0000000  0.6508444  3
     39     13     65     90     1  180.0000771  27.8236000  2
     39     13     65     64     1  180.0000771  27.8236000  2
     38     12     13     39     1  0.0000000  0.0000000  2
     38     12     13     65     1  0.0000000  4.8116000  1
     38     12     13     65     1  0.0000000  0.0000000  2
     38     12     13     65     1  180.0000771  1.5899200  3
     37     11     12     38     1  0.0000000  0.6276000  3
     36     11     12     38     1  0.0000000  0.6276000  3
     34      9     10     35     1  0.0000000  0.0000000  2
     34      9     11     37     1  0.0000000  0.6276000  3
     34      9     11     36     1  0.0000000  0.6276000  3
     32      8      9     34     1  0.0000000  0.6508444  3
     32     15     16     40     1  180.0000771  0.0000000  2
     32     15     16     41     1  180.0000771  0.0000000  2
     31     30     28     55     1  0.0000000  0.6508444  3
     31     30     21     48     1  0.0000000  1.0460000  1
     31     30     21     48     1  0.0000000  0.0000000  3
     30     28     29     56     1  0.0000000  1.0460000  1
     30     28     29     56     1  0.0000000  0.6694400  3
     30     21     22     49     1  0.0000000  0.6508444  3
     29     28     30     57     1  0.0000000  1.0460000  1
     29     28     30     57     1  0.0000000  0.0000000  3
     28     30     31     58     1  0.0000000  1.0460000  1
     28     30     31     58     1  0.0000000  0.6694400  3
     28     30     21     48     1  0.0000000  0.6508444  3
     28     27     24     51     1  0.0000000  1.6038667  3
     27     28     29     56     1  0.0000000  0.6973333  3
     27     28     30     57     1  0.0000000  1.0460000  1
     27     28     30     57     1  0.0000000  0.0000000  3
     27     24     22     49     1  0.0000000  1.0460000  1
     27     24     22     49     1  0.0000000  0.0000000  3
     27     24     25     52     1  0.0000000  1.0460000  1
     27     24     25     52     1  0.0000000  0.0000000  3
     27     24     25     53     1  0.0000000  1.0460000  1
     27     24     25     53     1  0.0000000  0.0000000  3
     26     25     24     51     1  0.0000000  1.0460000  1
     26     25     24     51     1  0.0000000  0.0000000  3
     25     24     22     49     1  0.0000000  0.6508444  3
     24     27     28     55     1  0.0000000  1.6038667  3
     24     22     21     48     1  0.0000000  0.6508444  3
     24     22     23     50     1  0.0000000  1.0460000  1
     24     22     23     50     1  0.0000000  0.6694400  3
     24     25     26     54     1  0.0000000  1.0460000  1
     24     25     26     54     1  0.0000000  0.6694400  3
     23     22     21     48     1  0.0000000  1.0460000  1
     23     22     21     48     1  0.0000000  0.0000000  3
     23     22     24     51     1  0.0000000  1.0460000  1
     23     22     24     51     1  0.0000000  0.0000000  3
     22     21     30     57     1  0.0000000  0.6508444  3
     22     24     25     52     1  0.0000000  0.6508444  3
     22     24     25     53     1  0.0000000  0.6508444  3
     21     30     31     58     1  0.0000000  1.0460000  1
     21     30     31     58     1  0.0000000  0.6694400  3
     21     30     28     55     1  0.0000000  0.6508444  3
     21     20     19     46     1  0.0000000  1.6038667  3
     21     20     19     47     1  0.0000000  1.6038667  3
     21     22     24     51     1  0.0000000  0.6508444  3
     21     22     23     50     1  0.0000000  1.0460000  1
     21     22     23     50     1  0.0000000  0.6694400  3
     20     19     18     45     1  0.0000000  1.0460000  1
     20     19     18     45     1  0.0000000  0.0000000  3
     20     19     18     44     1  0.0000000  1.0460000  1
     20     19     18     44     1  0.0000000  0.0000000  3
     20     21     30     57     1  0.0000000  1.0460000  1
     20     21     30     57     1  0.0000000  0.0000000  3
     20     21     22     49     1  0.0000000  1.0460000  1
     20     21     22     49     1  0.0000000  0.0000000  3
     19     20     21     48     1  0.0000000  1.6038667  3
     19     18     17     43     1  0.0000000  0.5439200  3
     19     18     17     42     1  0.0000000  0.5439200  3
     18     17     16     40     1  0.0000000  0.6508444  3
     18     17     16     41     1  0.0000000  0.6508444  3
     17     18     19     46     1  0.0000000  0.6508444  3
     17     18     19     47     1  0.0000000  0.6508444  3
     16     17     18     45     1  0.0000000  0.5439200  3
     16     17     18     44     1  0.0000000  0.5439200  3
     15     16     17     43     1  0.0000000  0.6508444  3
     15     16     17     42     1  0.0000000  0.6508444  3
     14      8      9     34     1  0.0000000  0.6276000  3
     14      8     32     33     1  0.0000000  3.3472000  1
     14      8     32     33     1  0.0000000  0.0000000  2
     14      8     32     33     1  180.0000771  0.3347200  3
     14      8     32     15     1  180.0000771  0.0000000  2
     13     12     11     37     1  0.0000000  0.6508444  3
     13     12     11     36     1  0.0000000  0.6508444  3
     13     65     64     89     1  0.0000000  4.8116000  1
     13     65     64     89     1  0.0000000  0.0000000  2
     13     65     64     89     1  180.0000771  1.5899200  3
     12     11      9     34     1  0.0000000  0.6694400  3
     12     13     65     90     1  180.0000771  27.8236000  2
     12      6      8     14     1  0.0000000  0.6694400  3
     11      9     10     35     1  0.0000000  0.0000000  2
     11      9      8     14     1  0.0000000  0.6694400  3
     11     12     13     39     1  0.0000000  0.0000000  2
     10      9     11     37     1  0.0000000  0.6508444  3
     10      9     11     36     1  0.0000000  0.6508444  3
     10      9      8     14     1  0.0000000  0.6508444  3
      9     11     12     38     1  0.0000000  0.6694400  3
      8      9     10     35     1  0.0000000  0.0000000  2
      8      9     11     37     1  0.0000000  0.6694400  3
      8      9     11     36     1  0.0000000  0.6694400  3
      8      6     12     38     1  0.0000000  0.6694400  3
      7      6     12     38     1  0.0000000  0.6276000  3
      7      6     12     11     1  0.0000000  0.6694400  3
      7      6     12     13     1  0.0000000  0.6508444  3
      7      6      8      9     1  0.0000000  0.6694400  3
      7      6      8     32     1  0.0000000  0.6508444  3
      7      6      8     14     1  0.0000000  0.6276000  3
      7      6      5     15     1  180.0000771  0.0000000  2
      6     12     11     37     1  0.0000000  0.6694400  3
      6     12     11     36     1  0.0000000  0.6694400  3
      6     12     13     39     1  0.0000000  0.0000000  2
      6      8      9     34     1  0.0000000  0.6694400  3
      5      6     12     38     1  0.0000000  0.6508444  3
      5      6      8     14     1  0.0000000  0.6508444  3
      5     15     16     40     1  180.0000771  0.0000000  2
      5     15     16     41     1  180.0000771  0.0000000  2
      4      5      6      7     1  0.0000000  3.3472000  1
      4      5      6      7     1  0.0000000  0.0000000  2
      4      5      6      7     1  180.0000771  0.3347200  3
    112     85     86    113     1  0.0000000  0.6973333  3
    110     83     84    111     1  0.0000000  0.6973333  3
    110     83     85    112     1  0.0000000  0.6508444  3
    108     80     81    109     1  0.0000000  0.5146320  3
    107     80     81    109     1  0.0000000  0.5146320  3
    106     79     80    107     1  0.0000000  0.6508444  3
    106     79     80    108     1  0.0000000  0.6508444  3
    104     77     79    106     1  0.0000000  0.6508444  3
    104     77     78    105     1  0.0000000  0.6973333  3
    103     76     85    112     1  0.0000000  0.6508444  3
    103     76     77    104     1  0.0000000  0.6508444  3
    100     73     74    101     1  0.0000000  0.6508444  3
    100     73     74    102     1  0.0000000  0.6508444  3
     99     73     74    101     1  0.0000000  0.6508444  3
     99     73     74    102     1  0.0000000  0.6508444  3
     98     72     73    100     1  0.0000000  0.5020800  3
     98     72     73     99     1  0.0000000  0.5020800  3
     97     72     73    100     1  0.0000000  0.5020800  3
     97     72     73     99     1  0.0000000  0.5020800  3
     96     71     72     98     1  0.0000000  0.6508444  3
     96     71     72     97     1  0.0000000  0.6508444  3
     95     71     72     98     1  0.0000000  0.6508444  3
     95     71     72     97     1  0.0000000  0.6508444  3
     94     68    120    145     1  180.0000771  27.8236000  2
     94     68    120    119     1  180.0000771  27.8236000  2
     93     67     68     94     1  0.0000000  0.0000000  2
     93     67     68    120     1  0.0000000  4.8116000  1
     93     67     68    120     1  0.0000000  0.0000000  2
     93     67     68    120     1  180.0000771  1.5899200  3
     92     66     67     93     1  0.0000000  0.6276000  3
     91     66     67     93     1  0.0000000  0.6276000  3
     89     64     65     90     1  0.0000000  0.0000000  2
     89     64     66     92     1  0.0000000  0.6276000  3
     89     64     66     91     1  0.0000000  0.6276000  3
     87     63     64     89     1  0.0000000  0.6508444  3
     87     70     71     95     1  180.0000771  0.0000000  2
     87     70     71     96     1  180.0000771  0.0000000  2
     86     85     83    110     1  0.0000000  0.6508444  3
     86     85     76    103     1  0.0000000  1.0460000  1
     86     85     76    103     1  0.0000000  0.0000000  3
     85     83     84    111     1  0.0000000  1.0460000  1
     85     83     84    111     1  0.0000000  0.6694400  3
     85     76     77    104     1  0.0000000  0.6508444  3
     84     83     85    112     1  0.0000000  1.0460000  1
     84     83     85    112     1  0.0000000  0.0000000  3
     83     85     86    113     1  0.0000000  1.0460000  1
     83     85     86    113     1  0.0000000  0.6694400  3
     83     85     76    103     1  0.0000000  0.6508444  3
     83     82     79    106     1  0.0000000  1.6038667  3
     82     83     84    111     1  0.0000000  0.6973333  3
     82     83     85    112     1  0.0000000  1.0460000  1
     82     83     85    112     1  0.0000000  0.0000000  3
     82     79     77    104     1  0.0000000  1.0460000  1
     82     79     77    104     1  0.0000000  0.0000000  3
     82     79     80    107     1  0.0000000  1.0460000  1
     82     79     80    107     1  0.0000000  0.0000000  3
     82     79     80    108     1  0.0000000  1.0460000  1
     82     79     80    108     1  0.0000000  0.0000000  3
     81     80     79    106     1  0.0000000  1.0460000  1
     81     80     79    106     1  0.0000000  0.0000000  3
     80     79     77    104     1  0.0000000  0.6508444  3
     79     82     83    110     1  0.0000000  1.6038667  3
     79     77     76    103     1  0.0000000  0.6508444  3
     79     77     78    105     1  0.0000000  1.0460000  1
     79     77     78    105     1  0.0000000  0.6694400  3
     79     80     81    109     1  0.0000000  1.0460000  1
     79     80     81    109     1  0.0000000  0.6694400  3
     78     77     76    103     1  0.0000000  1.0460000  1
     78     77     76    103     1  0.0000000  0.0000000  3
     78     77     79    106     1  0.0000000  1.0460000  1
     78     77     79    106     1  0.0000000  0.0000000  3
     77     76     85    112     1  0.0000000  0.6508444  3
     77     79     80    107     1  0.0000000  0.6508444  3
     77     79     80    108     1  0.0000000  0.6508444  3
     76     85     86    113     1  0.0000000  1.0460000  1
     76     85     86    113     1  0.0000000  0.6694400  3
     76     85     83    110     1  0.0000000  0.6508444  3
     76     75     74    101     1  0.0000000  1.6038667  3
     76     75     74    102     1  0.0000000  1.6038667  3
     76     77     79    106     1  0.0000000  0.6508444  3
     76     77     78    105     1  0.0000000  1.0460000  1
     76     77     78    105     1  0.0000000  0.6694400  3
     75     74     73    100     1  0.0000000  1.0460000  1
     75     74     73    100     1  0.0000000  0.0000000  3
     75     74     73     99     1  0.0000000  1.0460000  1
     75     74     73     99     1  0.0000000  0.0000000  3
     75     76     85    112     1  0.0000000  1.0460000  1
     75     76     85    112     1  0.0000000  0.0000000  3
     75     76     77    104     1  0.0000000  1.0460000  1
     75     76     77    104     1  0.0000000  0.0000000  3
     74     75     76    103     1  0.0000000  1.6038667  3
     74     73     72     98     1  0.0000000  0.5439200  3
     74     73     72     97     1  0.0000000  0.5439200  3
     73     72     71     95     1  0.0000000  0.6508444  3
     73     72     71     96     1  0.0000000  0.6508444  3
     72     73     74    101     1  0.0000000  0.6508444  3
     72     73     74    102     1  0.0000000  0.6508444  3
     71     72     73    100     1  0.0000000  0.5439200  3
     71     72     73     99     1  0.0000000  0.5439200  3
     70     71     72     98     1  0.0000000  0.6508444  3
     70     71     72     97     1  0.0000000  0.6508444  3
     69     63     64     89     1  0.0000000  0.6276000  3
     69     63     87     88     1  0.0000000  3.3472000  1
     69     63     87     88     1  0.0000000  0.0000000  2
     69     63     87     88     1  180.0000771  0.3347200  3
     69     63     87     70     1  180.0000771  0.0000000  2
     68     67     66     92     1  0.0000000  0.6508444  3
     68     67     66     91     1  0.0000000  0.6508444  3
     68    120    119    144     1  0.0000000  4.8116000  1
     68    120    119    144     1  0.0000000  0.0000000  2
     68    120    119    144     1  180.0000771  1.5899200  3
     67     66     64     89     1  0.0000000  0.6694400  3
     67     68    120    145     1  180.0000771  27.8236000  2
     67     61     63     69     1  0.0000000  0.6694400  3
     66     64     65     90     1  0.0000000  0.0000000  2
     66     64     63     69     1  0.0000000  0.6694400  3
     66     67     68     94     1  0.0000000  0.0000000  2
     65     64     66     92     1  0.0000000  0.6508444  3
     65     64     66     91     1  0.0000000  0.6508444  3
     65     64     63     69     1  0.0000000  0.6508444  3
     64     66     67     93     1  0.0000000  0.6694400  3
     63     64     65     90     1  0.0000000  0.0000000  2
     63     64     66     92     1  0.0000000  0.6694400  3
     63     64     66     91     1  0.0000000  0.6694400  3
     63     61     67     93     1  0.0000000  0.6694400  3
     62     61     67     93     1  0.0000000  0.6276000  3
     62     61     67     66     1  0.0000000  0.6694400  3
     62     61     67     68     1  0.0000000  0.6508444  3
     62     61     63     64     1  0.0000000  0.6694400  3
     62     61     63     87     1  0.0000000  0.6508444  3
     62     61     63     69     1  0.0000000  0.6276000  3
     62     61     60     70     1  180.0000771  0.0000000  2
     61     67     66     92     1  0.0000000  0.6694400  3
     61     67     66     91     1  0.0000000  0.6694400  3
     61     67     68     94     1  0.0000000  0.0000000  2
     61     63     64     89     1  0.0000000  0.6694400  3
     60     61     67     93     1  0.0000000  0.6508444  3
     60     61     63     69     1  0.0000000  0.6508444  3
     60     70     71     95     1  180.0000771  0.0000000  2
     60     70     71     96     1  180.0000771  0.0000000  2
     59     60     61     62     1  0.0000000  3.3472000  1
     59     60     61     62     1  0.0000000  0.0000000  2
     59     60     61     62     1  180.0000771  0.3347200  3
    167    140    141    168     1  0.0000000  0.6973333  3
    165    138    139    166     1  0.0000000  0.6973333  3
    165    138    140    167     1  0.0000000  0.6508444  3
    163    135    136    164     1  0.0000000  0.5146320  3
    162    135    136    164     1  0.0000000  0.5146320  3
    161    134    135    162     1  0.0000000  0.6508444  3
    161    134    135    163     1  0.0000000  0.6508444  3
    159    132    134    161     1  0.0000000  0.6508444  3
    159    132    133    160     1  0.0000000  0.6973333  3
    158    131    140    167     1  0.0000000  0.6508444  3
    158    131    132    159     1  0.0000000  0.6508444  3
    155    128    129    156     1  0.0000000  0.6508444  3
    155    128    129    157     1  0.0000000  0.6508444  3
    154    128    129    156     1  0.0000000  0.6508444  3
    154    128    129    157     1  0.0000000  0.6508444  3
    153    127    128    155     1  0.0000000  0.5020800  3
    153    127    128    154     1  0.0000000  0.5020800  3
    152    127    128    155     1  0.0000000  0.5020800  3
    152    127    128    154     1  0.0000000  0.5020800  3
    151    126    127    153     1  0.0000000  0.6508444  3
    151    126    127    152     1  0.0000000  0.6508444  3
    150    126    127    153     1  0.0000000  0.6508444  3
    150    126    127    152     1  0.0000000  0.6508444  3
    149    123    175    200     1  180.0000771  27.8236000  2
    149    123    175    174     1  180.0000771  27.8236000  2
    148    122    123    149     1  0.0000000  0.0000000  2
    148    122    123    175     1  0.0000000  4.8116000  1
    148    122    123    175     1  0.0000000  0.0000000  2
    148    122    123    175     1  180.0000771  1.5899200  3
    147    121    122    148     1  0.0000000  0.6276000  3
    146    121    122    148     1  0.0000000  0.6276000  3
    144    119    120    145     1  0.0000000  0.0000000  2
    144    119    121    147     1  0.0000000  0.6276000  3
    144    119    121    146     1  0.0000000  0.6276000  3
    142    118    119    144     1  0.0000000  0.6508444  3
    142    125    126    150     1  180.0000771  0.0000000  2
    142    125    126    151     1  180.0000771  0.0000000  2
    141    140    138    165     1  0.0000000  0.6508444  3
    141    140    131    158     1  0.0000000  1.0460000  1
    141    140    131    158     1  0.0000000  0.0000000  3
    140    138    139    166     1  0.0000000  1.0460000  1
    140    138    139    166     1  0.0000000  0.6694400  3
    140    131    132    159     1  0.0000000  0.6508444  3
    139    138    140    167     1  0.0000000  1.0460000  1
    139    138    140    167     1  0.0000000  0.0000000  3
    138    140    141    168     1  0.0000000  1.0460000  1
    138    140    141    168     1  0.0000000  0.6694400  3
    138    140    131    158     1  0.0000000  0.6508444  3
    138    137    134    161     1  0.0000000  1.6038667  3
    137    138    139    166     1  0.0000000  0.6973333  3
    137    138    140    167     1  0.0000000  1.0460000  1
    137    138    140    167     1  0.0000000  0.0000000  3
    137    134    132    159     1  0.0000000  1.0460000  1
    137    134    132    159     1  0.0000000  0.0000000  3
    137    134    135    162     1  0.0000000  1.0460000  1
    137    134    135    162     1  0.0000000  0.0000000  3
    137    134    135    163     1  0.0000000  1.0460000  1
    137    134    135    163     1  0.0000000  0.0000000  3
    136    135    134    161     1  0.0000000  1.0460000  1
    136    135    134    161     1  0.0000000  0.0000000  3
    135    134    132    159     1  0.0000000  0.6508444  3
    134    137    138    165     1  0.0000000  1.6038667  3
    134    132    131    158     1  0.0000000  0.6508444  3
    134    132    133    160     1  0.0000000  1.0460000  1
    134    132    133    160     1  0.0000000  0.6694400  3
    134    135    136    164     1  0.0000000  1.0460000  1
    134    135    136    164     1  0.0000000  0.6694400  3
    133    132    131    158     1  0.0000000  1.0460000  1
    133    132    131    158     1  0.0000000  0.0000000  3
    133    132    134    161     1  0.0000000  1.0460000  1
    133    132    134    161     1  0.0000000  0.0000000  3
    132    131    140    167     1  0.0000000  0.6508444  3
    132    134    135    162     1  0.0000000  0.6508444  3
    132    134    135    163     1  0.0000000  0.6508444  3
    131    140    141    168     1  0.0000000  1.0460000  1
    131    140    141    168     1  0.0000000  0.6694400  3
    131    140    138    165     1  0.0000000  0.6508444  3
    131    130    129    156     1  0.0000000  1.6038667  3
    131    130    129    157     1  0.0000000  1.6038667  3
    131    132    134    161     1  0.0000000  0.6508444  3
    131    132    133    160     1  0.0000000  1.0460000  1
    131    132    133    160     1  0.0000000  0.6694400  3
    130    129    128    155     1  0.0000000  1.0460000  1
    130    129    128    155     1  0.0000000  0.0000000  3
    130    129    128    154     1  0.0000000  1.0460000  1
    130    129    128    154     1  0.0000000  0.0000000  3
    130    131    140    167     1  0.0000000  1.0460000  1
    130    131    140    167     1  0.0000000  0.0000000  3
    130    131    132    159     1  0.0000000  1.0460000  1
    130    131    132    159     1  0.0000000  0.0000000  3
    129    130    131    158     1  0.0000000  1.6038667  3
    129    128    127    153     1  0.0000000  0.5439200  3
    129    128    127    152     1  0.0000000  0.5439200  3
    128    127    126    150     1  0.0000000  0.6508444  3
    128    127    126    151     1  0.0000000  0.6508444  3
    127    128    129    156     1  0.0000000  0.6508444  3
    127    128    129    157     1  0.0000000  0.6508444  3
    126    127    128    155     1  0.0000000  0.5439200  3
    126    127    128    154     1  0.0000000  0.5439200  3
    125    126    127    153     1  0.0000000  0.6508444  3
    125    126    127    152     1  0.0000000  0.6508444  3
    124    118    119    144     1  0.0000000  0.6276000  3
    124    118    142    143     1  0.0000000  3.3472000  1
    124    118    142    143     1  0.0000000  0.0000000  2
    124    118    142    143     1  180.0000771  0.3347200  3
    124    118    142    125     1  180.0000771  0.0000000  2
    123    122    121    147     1  0.0000000  0.6508444  3
    123    122    121    146     1  0.0000000  0.6508444  3
    123    175    174    199     1  0.0000000  4.8116000  1
    123    175    174    199     1  0.0000000  0.0000000  2
    123    175    174    199     1  180.0000771  1.5899200  3
    122    121    119    144     1  0.0000000  0.6694400  3
    122    123    175    200     1  180.0000771  27.8236000  2
    122    116    118    124     1  0.0000000  0.6694400  3
    121    119    120    145     1  0.0000000  0.0000000  2
    121    119    118    124     1  0.0000000  0.6694400  3
    121    122    123    149     1  0.0000000  0.0000000  2
    120    119    121    147     1  0.0000000  0.6508444  3
    120    119    121    146     1  0.0000000  0.6508444  3
    120    119    118    124     1  0.0000000  0.6508444  3
    119    121    122    148     1  0.0000000  0.6694400  3
    118    119    120    145     1  0.0000000  0.0000000  2
    118    119    121    147     1  0.0000000  0.6694400  3
    118    119    121    146     1  0.0000000  0.6694400  3
    118    116    122    148     1  0.0000000  0.6694400  3
    117    116    122    148     1  0.0000000  0.6276000  3
    117    116    122    121     1  0.0000000  0.6694400  3
    117    116    122    123     1  0.0000000  0.6508444  3
    117    116    118    119     1  0.0000000  0.6694400  3
    117    116    118    142     1  0.0000000  0.6508444  3
    117    116    118    124     1  0.0000000  0.6276000  3
    117    116    115    125     1  180.0000771  0.0000000  2
    116    122    121    147     1  0.0000000  0.6694400  3
    116    122    121    146     1  0.0000000  0.6694400  3
    116    122    123    149     1  0.0000000  0.0000000  2
    116    118    119    144     1  0.0000000  0.6694400  3
    115    116    122    148     1  0.0000000  0.6508444  3
    115    116    118    124     1  0.0000000  0.6508444  3
    115    125    126    150     1  180.0000771  0.0000000  2
    115    125    126    151     1  180.0000771  0.0000000  2
    114    115    116    117     1  0.0000000  3.3472000  1
    114    115    116    117     1  0.0000000  0.0000000  2
    114    115    116    117     1  180.0000771  0.3347200  3
    222    195    196    223     1  0.0000000  0.6973333  3
    220    193    194    221     1  0.0000000  0.6973333  3
    220    193    195    222     1  0.0000000  0.6508444  3
    218    190    191    219     1  0.0000000  0.5146320  3
    217    190    191    219     1  0.0000000  0.5146320  3
    216    189    190    217     1  0.0000000  0.6508444  3
    216    189    190    218     1  0.0000000  0.6508444  3
    214    187    189    216     1  0.0000000  0.6508444  3
    214    187    188    215     1  0.0000000  0.6973333  3
    213    186    195    222     1  0.0000000  0.6508444  3
    213    186    187    214     1  0.0000000  0.6508444  3
    210    183    184    211     1  0.0000000  0.6508444  3
    210    183    184    212     1  0.0000000  0.6508444  3
    209    183    184    211     1  0.0000000  0.6508444  3
    209    183    184    212     1  0.0000000  0.6508444  3
    208    182    183    210     1  0.0000000  0.5020800  3
    208    182    183    209     1  0.0000000  0.5020800  3
    207    182    183    210     1  0.0000000  0.5020800  3
    207    182    183    209     1  0.0000000  0.5020800  3
    206    181    182    208     1  0.0000000  0.6508444  3
    206    181    182    207     1  0.0000000  0.6508444  3
    205    181    182    208     1  0.0000000  0.6508444  3
    205    181    182    207     1  0.0000000  0.6508444  3
    204    178    230    255     1  180.0000771  27.8236000  2
    204    178    230    229     1  180.0000771  27.8236000  2
    203    177    178    204     1  0.0000000  0.0000000  2
    203    177    178    230     1  0.0000000  4.8116000  1
    203    177    178    230     1  0.0000000  0.0000000  2
    203    177    178    230     1  180.0000771  1.5899200  3
    202    176    177    203     1  0.0000000  0.6276000  3
    201    176    177    203     1  0.0000000  0.6276000  3
    199    174    175    200     1  0.0000000  0.0000000  2
    199    174    176    202     1  0.0000000  0.6276000  3
    199    174    176    201     1  0.0000000  0.6276000  3
    197    173    174    199     1  0.0000000  0.6508444  3
    197    180    181    205     1  180.0000771  0.0000000  2
    197    180    181    206     1  180.0000771  0.0000000  2
    196    195    193    220     1  0.0000000  0.6508444  3
    196    195    186    213     1  0.0000000  1.0460000  1
    196    195    186    213     1  0.0000000  0.0000000  3
    195    193    194    221     1  0.0000000  1.0460000  1
    195    193    194    221     1  0.0000000  0.6694400  3
    195    186    187    214     1  0.0000000  0.6508444  3
    194    193    195    222     1  0.0000000  1.0460000  1
    194    193    195    222     1  0.0000000  0.0000000  3
    193    195    196    223     1  0.0000000  1.0460000  1
    193    195    196    223     1  0.0000000  0.6694400  3
    193    195    186    213     1  0.0000000  0.6508444  3
    193    192    189    216     1  0.0000000  1.6038667  3
    192    193    194    221     1  0.0000000  0.6973333  3
    192    193    195    222     1  0.0000000  1.0460000  1
    192    193    195    222     1  0.0000000  0.0000000  3
    192    189    187    214     1  0.0000000  1.0460000  1
    192    189    187    214     1  0.0000000  0.0000000  3
    192    189    190    217     1  0.0000000  1.0460000  1
    192    189    190    217     1  0.0000000  0.0000000  3
    192    189    190    218     1  0.0000000  1.0460000  1
    192    189    190    218     1  0.0000000  0.0000000  3
    191    190    189    216     1  0.0000000  1.0460000  1
    191    190    189    216     1  0.0000000  0.0000000  3
    190    189    187    214     1  0.0000000  0.6508444  3
    189    192    193    220     1  0.0000000  1.6038667  3
    189    187    186    213     1  0.0000000  0.6508444  3
    189    187    188    215     1  0.0000000  1.0460000  1
    189    187    188    215     1  0.0000000  0.6694400  3
    189    190    191    219     1  0.0000000  1.0460000  1
    189    190    191    219     1  0.0000000  0.6694400  3
    188    187    186    213     1  0.0000000  1.0460000  1
    188    187    186    213     1  0.0000000  0.0000000  3
    188    187    189    216     1  0.0000000  1.0460000  1
    188    187    189    216     1  0.0000000  0.0000000  3
    187    186    195    222     1  0.0000000  0.6508444  3
    187    189    190    217     1  0.0000000  0.6508444  3
    187    189    190    218     1  0.0000000  0.6508444  3
    186    195    196    223     1  0.0000000  1.0460000  1
    186    195    196    223     1  0.0000000  0.6694400  3
    186    195    193    220     1  0.0000000  0.6508444  3
    186    185    184    211     1  0.0000000  1.6038667  3
    186    185    184    212     1  0.0000000  1.6038667  3
    186    187    189    216     1  0.0000000  0.6508444  3
    186    187    188    215     1  0.0000000  1.0460000  1
    186    187    188    215     1  0.0000000  0.6694400  3
    185    184    183    210     1  0.0000000  1.0460000  1
    185    184    183    210     1  0.0000000  0.0000000  3
    185    184    183    209     1  0.0000000  1.0460000  1
    185    184    183    209     1  0.0000000  0.0000000  3
    185    186    195    222     1  0.0000000  1.0460000  1
    185    186    195    222     1  0.0000000  0.0000000  3
    185    186    187    214     1  0.0000000  1.0460000  1
    185    186    187    214     1  0.0000000  0.0000000  3
    184    185    186    213     1  0.0000000  1.6038667  3
    184    183    182    208     1  0.0000000  0.5439200  3
    184    183    182    207     1  0.0000000  0.5439200  3
    183    182    181    205     1  0.0000000  0.6508444  3
    183    182    181    206     1  0.0000000  0.6508444  3
    182    183    184    211     1  0.0000000  0.6508444  3
    182    183    184    212     1  0.0000000  0.6508444  3
    181    182    183    210     1  0.0000000  0.5439200  3
    181    182    183    209     1  0.0000000  0.5439200  3
    180    181    182    208     1  0.0000000  0.6508444  3
    180    181    182    207     1  0.0000000  0.6508444  3
    179    173    174    199     1  0.0000000  0.6276000  3
    179    173    197    198     1  0.0000000  3.3472000  1
    179    173    197    198     1  0.0000000  0.0000000  2
    179    173    197    198     1  180.0000771  0.3347200  3
    179    173    197    180     1  180.0000771  0.0000000  2
    178    177    176    202     1  0.0000000  0.6508444  3
    178    177    176    201     1  0.0000000  0.6508444  3
    178    230    229    254     1  0.0000000  4.8116000  1
    178    230    229    254     1  0.0000000  0.0000000  2
    178    230    229    254     1  180.0000771  1.5899200  3
    177    176    174    199     1  0.0000000  0.6694400  3
    177    178    230    255     1  180.0000771  27.8236000  2
    177    171    173    179     1  0.0000000  0.6694400  3
    176    174    175    200     1  0.0000000  0.0000000  2
    176    174    173    179     1  0.0000000  0.6694400  3
    176    177    178    204     1  0.0000000  0.0000000  2
    175    174    176    202     1  0.0000000  0.6508444  3
    175    174    176    201     1  0.0000000  0.6508444  3
    175    174    173    179     1  0.0000000  0.6508444  3
    174    176    177    203     1  0.0000000  0.6694400  3
    173    174    175    200     1  0.0000000  0.0000000  2
    173    174    176    202     1  0.0000000  0.6694400  3
    173    174    176    201     1  0.0000000  0.6694400  3
    173    171    177    203     1  0.0000000  0.6694400  3
    172    171    177    203     1  0.0000000  0.6276000  3
    172    171    177    176     1  0.0000000  0.6694400  3
    172    171    177    178     1  0.0000000  0.6508444  3
    172    171    173    174     1  0.0000000  0.6694400  3
    172    171    173    197     1  0.0000000  0.6508444  3
    172    171    173    179     1  0.0000000  0.6276000  3
    172    171    170    180     1  180.0000771  0.0000000  2
    171    177    176    202     1  0.0000000  0.6694400  3
    171    177    176    201     1  0.0000000  0.6694400  3
    171    177    178    204     1  0.0000000  0.0000000  2
    171    173    174    199     1  0.0000000  0.6694400  3
    170    171    177    203     1  0.0000000  0.6508444  3
    170    171    173    179     1  0.0000000  0.6508444  3
    170    180    181    205     1  180.0000771  0.0000000  2
    170    180    181    206     1  180.0000771  0.0000000  2
    169    170    171    172     1  0.0000000  3.3472000  1
    169    170    171    172     1  0.0000000  0.0000000  2
    169    170    171    172     1  180.0000771  0.3347200  3
    277    250    251    278     1  0.0000000  0.6973333  3
    275    248    249    276     1  0.0000000  0.6973333  3
    275    248    250    277     1  0.0000000  0.6508444  3
    273    245    246    274     1  0.0000000  0.5146320  3
    272    245    246    274     1  0.0000000  0.5146320  3
    271    244    245    272     1  0.0000000  0.6508444  3
    271    244    245    273     1  0.0000000  0.6508444  3
    269    242    244    271     1  0.0000000  0.6508444  3
    269    242    243    270     1  0.0000000  0.6973333  3
    268    241    250    277     1  0.0000000  0.6508444  3
    268    241    242    269     1  0.0000000  0.6508444  3
    265    238    239    266     1  0.0000000  0.6508444  3
    265    238    239    267     1  0.0000000  0.6508444  3
    264    238    239    266     1  0.0000000  0.6508444  3
    264    238    239    267     1  0.0000000  0.6508444  3
    263    237    238    265     1  0.0000000  0.5020800  3
    263    237    238    264     1  0.0000000  0.5020800  3
    262    237    238    265     1  0.0000000  0.5020800  3
    262    237    238    264     1  0.0000000  0.5020800  3
    261    236    237    263     1  0.0000000  0.6508444  3
    261    236    237    262     1  0.0000000  0.6508444  3
    260    236    237    263     1  0.0000000  0.6508444  3
    260    236    237    262     1  0.0000000  0.6508444  3
    259    233    285    310     1  180.0000771  27.8236000  2
    259    233    285    284     1  180.0000771  27.8236000  2
    258    232    233    259     1  0.0000000  0.0000000  2
    258    232    233    285     1  0.0000000  4.8116000  1
    258    232    233    285     1  0.0000000  0.0000000  2
    258    232    233    285     1  180.0000771  1.5899200  3
    257    231    232    258     1  0.0000000  0.6276000  3
    256    231    232    258     1  0.0000000  0.6276000  3
    254    229    230    255     1  0.0000000  0.0000000  2
    254    229    231    257     1  0.0000000  0.6276000  3
    254    229    231    256     1  0.0000000  0.6276000  3
    252    228    229    254     1  0.0000000  0.6508444  3
    252    235    236    260     1  180.0000771  0.0000000  2
    252    235    236    261     1  180.0000771  0.0000000  2
    251    250    248    275     1  0.0000000  0.6508444  3
    251    250    241    268     1  0.0000000  1.0460000  1
    251    250    241    268     1  0.0000000  0.0000000  3
    250    248    249    276     1  0.0000000  1.0460000  1
    250    248    249    276     1  0.0000000  0.6694400  3
    250    241    242    269     1  0.0000000  0.6508444  3
    249    248    250    277     1  0.0000000  1.0460000  1
    249    248    250    277     1  0.0000000  0.0000000  3
    248    250    251    278     1  0.0000000  1.0460000  1
    248    250    251    278     1  0.0000000  0.6694400  3
    248    250    241    268     1  0.0000000  0.6508444  3
    248    247    244    271     1  0.0000000  1.6038667  3
    247    248    249    276     1  0.0000000  0.6973333  3
    247    248    250    277     1  0.0000000  1.0460000  1
    247    248    250    277     1  0.0000000  0.0000000  3
    247    244    242    269     1  0.0000000  1.0460000  1
    247    244    242    269     1  0.0000000  0.0000000  3
    247    244    245    272     1  0.0000000  1.0460000  1
    247    244    245    272     1  0.0000000  0.0000000  3
    247    244    245    273     1  0.0000000  1.0460000  1
    247    244    245    273     1  0.0000000  0.0000000  3
    246    245    244    271     1  0.0000000  1.0460000  1
    246    245    244    271     1  0.0000000  0.0000000  3
    245    244    242    269     1  0.0000000  0.6508444  3
    244    247    248    275     1  0.0000000  1.6038667  3
    244    242    241    268     1  0.0000000  0.6508444  3
    244    242    243    270     1  0.0000000  1.0460000  1
    244    242    243    270     1  0.0000000  0.6694400  3
    244    245    246    274     1  0.0000000  1.0460000  1
    244    245    246    274     1  0.0000000  0.6694400  3
    243    242    241    268     1  0.0000000  1.0460000  1
    243    242    241    268     1  0.0000000  0.0000000  3
    243    242    244    271     1  0.0000000  1.0460000  1
    243    242    244    271     1  0.0000000  0.0000000  3
    242    241    250    277     1  0.0000000  0.6508444  3
    242    244    245    272     1  0.0000000  0.6508444  3
    242    244    245    273     1  0.0000000  0.6508444  3
    241    250    251    278     1  0.0000000  1.0460000  1
    241    250    251    278     1  0.0000000  0.6694400  3
    241    250    248    275     1  0.0000000  0.6508444  3
    241    240    239    266     1  0.0000000  1.6038667  3
    241    240    239    267     1  0.0000000  1.6038667  3
    241    242    244    271     1  0.0000000  0.6508444  3
    241    242    243    270     1  0.0000000  1.0460000  1
    241    242    243    270     1  0.0000000  0.6694400  3
    240    239    238    265     1  0.0000000  1.0460000  1
    240    239    238    265     1  0.0000000  0.0000000  3
    240    239    238    264     1  0.0000000  1.0460000  1
    240    239    238    264     1  0.0000000  0.0000000  3
    240    241    250    277     1  0.0000000  1.0460000  1
    240    241    250    277     1  0.0000000  0.0000000  3
    240    241    242    269     1  0.0000000  1.0460000  1
    240    241    242    269     1  0.0000000  0.0000000  3
    239    240    241    268     1  0.0000000  1.6038667  3
    239    238    237    263     1  0.0000000  0.5439200  3
    239    238    237    262     1  0.0000000  0.5439200  3
    238    237    236    260     1  0.0000000  0.6508444  3
    238    237    236    261     1  0.0000000  0.6508444  3
    237    238    239    266     1  0.0000000  0.6508444  3
    237    238    239    267     1  0.0000000  0.6508444  3
    236    237    238    265     1  0.0000000  0.5439200  3
    236    237    238    264     1  0.0000000  0.5439200  3
    235    236    237    263     1  0.0000000  0.6508444  3
    235    236    237    262     1  0.0000000  0.6508444  3
    234    228    229    254     1  0.0000000  0.6276000  3
    234    228    252    253     1  0.0000000  3.3472000  1
    234    228    252    253     1  0.0000000  0.0000000  2
    234    228    252    253     1  180.0000771  0.3347200  3
    234    228    252    235     1  180.0000771  0.0000000  2
    233    232    231    257     1  0.0000000  0.6508444  3
    233    232    231    256     1  0.0000000  0.6508444  3
    233    285    284    309     1  0.0000000  4.8116000  1
    233    285    284    309     1  0.0000000  0.0000000  2
    233    285    284    309     1  180.0000771  1.5899200  3
    232    231    229    254     1  0.0000000  0.6694400  3
    232    233    285    310     1  180.0000771  27.8236000  2
    232    226    228    234     1  0.0000000  0.6694400  3
    231    229    230    255     1  0.0000000  0.0000000  2
    231    229    228    234     1  0.0000000  0.6694400  3
    231    232    233    259     1  0.0000000  0.0000000  2
    230    229    231    257     1  0.0000000  0.6508444  3
    230    229    231    256     1  0.0000000  0.6508444  3
    230    229    228    234     1  0.0000000  0.6508444  3
    229    231    232    258     1  0.0000000  0.6694400  3
    228    229    230    255     1  0.0000000  0.0000000  2
    228    229    231    257     1  0.0000000  0.6694400  3
    228    229    231    256     1  0.0000000  0.6694400  3
    228    226    232    258     1  0.0000000  0.6694400  3
    227    226    232    258     1  0.0000000  0.6276000  3
    227    226    232    231     1  0.0000000  0.6694400  3
    227    226    232    233     1  0.0000000  0.6508444  3
    227    226    228    229     1  0.0000000  0.6694400  3
    227    226    228    252     1  0.0000000  0.6508444  3
    227    226    228    234     1  0.0000000  0.6276000  3
    227    226    225    235     1  180.0000771  0.0000000  2
    226    232    231    257     1  0.0000000  0.6694400  3
    226    232    231    256     1  0.0000000  0.6694400  3
    226    232    233    259     1  0.0000000  0.0000000  2
    226    228    229    254     1  0.0000000  0.6694400  3
    225    226    232    258     1  0.0000000  0.6508444  3
    225    226    228    234     1  0.0000000  0.6508444  3
    225    235    236    260     1  180.0000771  0.0000000  2
    225    235    236    261     1  180.0000771  0.0000000  2
    224    225    226    227     1  0.0000000  3.3472000  1
    224    225    226    227     1  0.0000000  0.0000000  2
    224    225    226    227     1  180.0000771  0.3347200  3
    332    305    306    333     1  0.0000000  0.6973333  3
    330    303    304    331     1  0.0000000  0.6973333  3
    330    303    305    332     1  0.0000000  0.6508444  3
    328    300    301    329     1  0.0000000  0.5146320  3
    327    300    301    329     1  0.0000000  0.5146320  3
    326    299    300    327     1  0.0000000  0.6508444  3
    326    299    300    328     1  0.0000000  0.6508444  3
    324    297    299    326     1  0.0000000  0.6508444  3
    324    297    298    325     1  0.0000000  0.6973333  3
    323    296    305    332     1  0.0000000  0.6508444  3
    323    296    297    324     1  0.0000000  0.6508444  3
    320    293    294    321     1  0.0000000  0.6508444  3
    320    293    294    322     1  0.0000000  0.6508444  3
    319    293    294    321     1  0.0000000  0.6508444  3
    319    293    294    322     1  0.0000000  0.6508444  3
    318    292    293    320     1  0.0000000  0.5020800  3
    318    292    293    319     1  0.0000000  0.5020800  3
    317    292    293    320     1  0.0000000  0.5020800  3
    317    292    293    319     1  0.0000000  0.5020800  3
    316    291    292    318     1  0.0000000  0.6508444  3
    316    291    292    317     1  0.0000000  0.6508444  3
    315    291    292    318     1  0.0000000  0.6508444  3
    315    291    292    317     1  0.0000000  0.6508444  3
    314    288    340    365     1  180.0000771  27.8236000  2
    314    288    340    339     1  180.0000771  27.8236000  2
    313    287    288    314     1  0.0000000  0.0000000  2
    313    287    288    340     1  0.0000000  4.8116000  1
    313    287    288    340     1  0.0000000  0.0000000  2
    313    287    288    340     1  180.0000771  1.5899200  3
    312    286    287    313     1  0.0000000  0.6276000  3
    311    286    287    313     1  0.0000000  0.6276000  3
    309    284    285    310     1  0.0000000  0.0000000  2
    309    284    286    312     1  0.0000000  0.6276000  3
    309    284    286    311     1  0.0000000  0.6276000  3
    307    283    284    309     1  0.0000000  0.6508444  3
    307    290    291    315     1  180.0000771  0.0000000  2
    307    290    291    316     1  180.0000771  0.0000000  2
    306    305    303    330     1  0.0000000  0.6508444  3
    306    305    296    323     1  0.0000000  1.0460000  1
    306    305    296    323     1  0.0000000  0.0000000  3
    305    303    304    331     1  0.0000000  1.0460000  1
    305    303    304    331     1  0.0000000  0.6694400  3
    305    296    297    324     1  0.0000000  0.6508444  3
    304    303    305    332     1  0.0000000  1.0460000  1
    304    303    305    332     1  0.0000000  0.0000000  3
    303    305    306    333     1  0.0000000  1.0460000  1
    303    305    306    333     1  0.0000000  0.6694400  3
    303    305    296    323     1  0.0000000  0.6508444  3
    303    302    299    326     1  0.0000000  1.6038667  3
    302    303    304    331     1  0.0000000  0.6973333  3
    302    303    305    332     1  0.0000000  1.0460000  1
    302    303    305    332     1  0.0000000  0.0000000  3
    302    299    297    324     1  0.0000000  1.0460000  1
    302    299    297    324     1  0.0000000  0.0000000  3
    302    299    300    327     1  0.0000000  1.0460000  1
    302    299    300    327     1  0.0000000  0.0000000  3
    302    299    300    328     1  0.0000000  1.0460000  1
    302    299    300    328     1  0.0000000  0.0000000  3
    301    300    299    326     1  0.0000000  1.0460000  1
    301    300    299    326     1  0.0000000  0.0000000  3
    300    299    297    324     1  0.0000000  0.6508444  3
    299    302    303    330     1  0.0000000  1.6038667  3
    299    297    296    323     1  0.0000000  0.6508444  3
    299    297    298    325     1  0.0000000  1.0460000  1
    299    297    298    325     1  0.0000000  0.6694400  3
    299    300    301    329     1  0.0000000  1.0460000  1
    299    300    301    329     1  0.0000000  0.6694400  3
    298    297    296    323     1  0.0000000  1.0460000  1
    298    297    296    323     1  0.0000000  0.0000000  3
    298    297    299    326     1  0.0000000  1.0460000  1
    298    297    299    326     1  0.0000000  0.0000000  3
    297    296    305    332     1  0.0000000  0.6508444  3
    297    299    300    327     1  0.0000000  0.6508444  3
    297    299    300    328     1  0.0000000  0.6508444  3
    296    305    306    333     1  0.0000000  1.0460000  1
    296    305    306    333     1  0.0000000  0.6694400  3
    296    305    303    330     1  0.0000000  0.6508444  3
    296    295    294    321     1  0.0000000  1.6038667  3
    296    295    294    322     1  0.0000000  1.6038667  3
    296    297    299    326     1  0.0000000  0.6508444  3
    296    297    298    325     1  0.0000000  1.0460000  1
    296    297    298    325     1  0.0000000  0.6694400  3
    295    294    293    320     1  0.0000000  1.0460000  1
    295    294    293    320     1  0.0000000  0.0000000  3
    295    294    293    319     1  0.0000000  1.0460000  1
    295    294    293    319     1  0.0000000  0.0000000  3
    295    296    305    332     1  0.0000000  1.0460000  1
    295    296    305    332     1  0.0000000  0.0000000  3
    295    296    297    324     1  0.0000000  1.0460000  1
    295    296    297    324     1  0.0000000  0.0000000  3
    294    295    296    323     1  0.0000000  1.6038667  3
    294    293    292    318     1  0.0000000  0.5439200  3
    294    293    292    317     1  0.0000000  0.5439200  3
    293    292    291    315     1  0.0000000  0.6508444  3
    293    292    291    316     1  0.0000000  0.6508444  3
    292    293    294    321     1  0.0000000  0.6508444  3
    292    293    294    322     1  0.0000000  0.6508444  3
    291    292    293    320     1  0.0000000  0.5439200  3
    291    292    293    319     1  0.0000000  0.5439200  3
    290    291    292    318     1  0.0000000  0.6508444  3
    290    291    292    317     1  0.0000000  0.6508444  3
    289    283    284    309     1  0.0000000  0.6276000  3
    289    283    307    308     1  0.0000000  3.3472000  1
    289    283    307    308     1  0.0000000  0.0000000  2
    289    283    307    308     1  180.0000771  0.3347200  3
    289    283    307    290     1  180.0000771  0.0000000  2
    288    287    286    312     1  0.0000000  0.6508444  3
    288    287    286    311     1  0.0000000  0.6508444  3
    288    340    339    364     1  0.0000000  4.8116000  1
    288    340    339    364     1  0.0000000  0.0000000  2
    288    340    339    364     1  180.0000771  1.5899200  3
    287    286    284    309     1  0.0000000  0.6694400  3
    287    288    340    365     1  180.0000771  27.8236000  2
    287    281    283    289     1  0.0000000  0.6694400  3
    286    284    285    310     1  0.0000000  0.0000000  2
    286    284    283    289     1  0.0000000  0.6694400  3
    286    287    288    314     1  0.0000000  0.0000000  2
    285    284    286    312     1  0.0000000  0.6508444  3
    285    284    286    311     1  0.0000000  0.6508444  3
    285    284    283    289     1  0.0000000  0.6508444  3
    284    286    287    313     1  0.0000000  0.6694400  3
    283    284    285    310     1  0.0000000  0.0000000  2
    283    284    286    312     1  0.0000000  0.6694400  3
    283    284    286    311     1  0.0000000  0.6694400  3
    283    281    287    313     1  0.0000000  0.6694400  3
    282    281    287    313     1  0.0000000  0.6276000  3
    282    281    287    286     1  0.0000000  0.6694400  3
    282    281    287    288     1  0.0000000  0.6508444  3
    282    281    283    284     1  0.0000000  0.6694400  3
    282    281    283    307     1  0.0000000  0.6508444  3
    282    281    283    289     1  0.0000000  0.6276000  3
    282    281    280    290     1  180.0000771  0.0000000  2
    281    287    286    312     1  0.0000000  0.6694400  3
    281    287    286    311     1  0.0000000  0.6694400  3
    281    287    288    314     1  0.0000000  0.0000000  2
    281    283    284    309     1  0.0000000  0.6694400  3
    280    281    287    313     1  0.0000000  0.6508444  3
    280    281    283    289     1  0.0000000  0.6508444  3
    280    290    291    315     1  180.0000771  0.0000000  2
    280    290    291    316     1  180.0000771  0.0000000  2
    279    280    281    282     1  0.0000000  3.3472000  1
    279    280    281    282     1  0.0000000  0.0000000  2
    279    280    281    282     1  180.0000771  0.3347200  3
    387    360    361    388     1  0.0000000  0.6973333  3
    385    358    359    386     1  0.0000000  0.6973333  3
    385    358    360    387     1  0.0000000  0.6508444  3
    383    355    356    384     1  0.0000000  0.5146320  3
    382    355    356    384     1  0.0000000  0.5146320  3
    381    354    355    382     1  0.0000000  0.6508444  3
    381    354    355    383     1  0.0000000  0.6508444  3
    379    352    354    381     1  0.0000000  0.6508444  3
    379    352    353    380     1  0.0000000  0.6973333  3
    378    351    360    387     1  0.0000000  0.6508444  3
    378    351    352    379     1  0.0000000  0.6508444  3
    375    348    349    376     1  0.0000000  0.6508444  3
    375    348    349    377     1  0.0000000  0.6508444  3
    374    348    349    376     1  0.0000000  0.6508444  3
    374    348    349    377     1  0.0000000  0.6508444  3
    373    347    348    375     1  0.0000000  0.5020800  3
    373    347    348    374     1  0.0000000  0.5020800  3
    372    347    348    375     1  0.0000000  0.5020800  3
    372    347    348    374     1  0.0000000  0.5020800  3
    371    346    347    373     1  0.0000000  0.6508444  3
    371    346    347    372     1  0.0000000  0.6508444  3
    370    346    347    373     1  0.0000000  0.6508444  3
    370    346    347    372     1  0.0000000  0.6508444  3
    369    343    395    420     1  180.0000771  27.8236000  2
    369    343    395    394     1  180.0000771  27.8236000  2
    368    342    343    369     1  0.0000000  0.0000000  2
    368    342    343    395     1  0.0000000  4.8116000  1
    368    342    343    395     1  0.0000000  0.0000000  2
    368    342    343    395     1  180.0000771  1.5899200  3
    367    341    342    368     1  0.0000000  0.6276000  3
    366    341    342    368     1  0.0000000  0.6276000  3
    364    339    340    365     1  0.0000000  0.0000000  2
    364    339    341    367     1  0.0000000  0.6276000  3
    364    339    341    366     1  0.0000000  0.6276000  3
    362    338    339    364     1  0.0000000  0.6508444  3
    362    345    346    370     1  180.0000771  0.0000000  2
    362    345    346    371     1  180.0000771  0.0000000  2
    361    360    358    385     1  0.0000000  0.6508444  3
    361    360    351    378     1  0.0000000  1.0460000  1
    361    360    351    378     1  0.0000000  0.0000000  3
    360    358    359    386     1  0.0000000  1.0460000  1
    360    358    359    386     1  0.0000000  0.6694400  3
    360    351    352    379     1  0.0000000  0.6508444  3
    359    358    360    387     1  0.0000000  1.0460000  1
    359    358    360    387     1  0.0000000  0.0000000  3
    358    360    361    388     1  0.0000000  1.0460000  1
    358    360    361    388     1  0.0000000  0.6694400  3
    358    360    351    378     1  0.0000000  0.6508444  3
    358    357    354    381     1  0.0000000  1.6038667  3
    357    358    359    386     1  0.0000000  0.6973333  3
    357    358    360    387     1  0.0000000  1.0460000  1
    357    358    360    387     1  0.0000000  0.0000000  3
    357    354    352    379     1  0.0000000  1.0460000  1
    357    354    352    379     1  0.0000000  0.0000000  3
    357    354    355    382     1  0.0000000  1.0460000  1
    357    354    355    382     1  0.0000000  0.0000000  3
    357    354    355    383     1  0.0000000  1.0460000  1
    357    354    355    383     1  0.0000000  0.0000000  3
    356    355    354    381     1  0.0000000  1.0460000  1
    356    355    354    381     1  0.0000000  0.0000000  3
    355    354    352    379     1  0.0000000  0.6508444  3
    354    357    358    385     1  0.0000000  1.6038667  3
    354    352    351    378     1  0.0000000  0.6508444  3
    354    352    353    380     1  0.0000000  1.0460000  1
    354    352    353    380     1  0.0000000  0.6694400  3
    354    355    356    384     1  0.0000000  1.0460000  1
    354    355    356    384     1  0.0000000  0.6694400  3
    353    352    351    378     1  0.0000000  1.0460000  1
    353    352    351    378     1  0.0000000  0.0000000  3
    353    352    354    381     1  0.0000000  1.0460000  1
    353    352    354    381     1  0.0000000  0.0000000  3
    352    351    360    387     1  0.0000000  0.6508444  3
    352    354    355    382     1  0.0000000  0.6508444  3
    352    354    355    383     1  0.0000000  0.6508444  3
    351    360    361    388     1  0.0000000  1.0460000  1
    351    360    361    388     1  0.0000000  0.6694400  3
    351    360    358    385     1  0.0000000  0.6508444  3
    351    350    349    376     1  0.0000000  1.6038667  3
    351    350    349    377     1  0.0000000  1.6038667  3
    351    352    354    381     1  0.0000000  0.6508444  3
    351    352    353    380     1  0.0000000  1.0460000  1
    351    352    353    380     1  0.0000000  0.6694400  3
    350    349    348    375     1  0.0000000  1.0460000  1
    350    349    348    375     1  0.0000000  0.0000000  3
    350    349    348    374     1  0.0000000  1.0460000  1
    350    349    348    374     1  0.0000000  0.0000000  3
    350    351    360    387     1  0.0000000  1.0460000  1
    350    351    360    387     1  0.0000000  0.0000000  3
    350    351    352    379     1  0.0000000  1.0460000  1
    350    351    352    379     1  0.0000000  0.0000000  3
    349    350    351    378     1  0.0000000  1.6038667  3
    349    348    347    373     1  0.0000000  0.5439200  3
    349    348    347    372     1  0.0000000  0.5439200  3
    348    347    346    370     1  0.0000000  0.6508444  3
    348    347    346    371     1  0.0000000  0.6508444  3
    347    348    349    376     1  0.0000000  0.6508444  3
    347    348    349    377     1  0.0000000  0.6508444  3
    346    347    348    375     1  0.0000000  0.5439200  3
    346    347    348    374     1  0.0000000  0.5439200  3
    345    346    347    373     1  0.0000000  0.6508444  3
    345    346    347    372     1  0.0000000  0.6508444  3
    344    338    339    364     1  0.0000000  0.6276000  3
    344    338    362    363     1  0.0000000  3.3472000  1
    344    338    362    363     1  0.0000000  0.0000000  2
    344    338    362    363     1  180.0000771  0.3347200  3
    344    338    362    345     1  180.0000771  0.0000000  2
    343    342    341    367     1  0.0000000  0.6508444  3
    343    342    341    366     1  0.0000000  0.6508444  3
    343    395    394    419     1  0.0000000  4.8116000  1
    343    395    394    419     1  0.0000000  0.0000000  2
    343    395    394    419     1  180.0000771  1.5899200  3
    342    341    339    364     1  0.0000000  0.6694400  3
    342    343    395    420     1  180.0000771  27.8236000  2
    342    336    338    344     1  0.0000000  0.6694400  3
    341    339    340    365     1  0.0000000  0.0000000  2
    341    339    338    344     1  0.0000000  0.6694400  3
    341    342    343    369     1  0.0000000  0.0000000  2
    340    339    341    367     1  0.0000000  0.6508444  3
    340    339    341    366     1  0.0000000  0.6508444  3
    340    339    338    344     1  0.0000000  0.6508444  3
    339    341    342    368     1  0.0000000  0.6694400  3
    338    339    340    365     1  0.0000000  0.0000000  2
    338    339    341    367     1  0.0000000  0.6694400  3
    338    339    341    366     1  0.0000000  0.6694400  3
    338    336    342    368     1  0.0000000  0.6694400  3
    337    336    342    368     1  0.0000000  0.6276000  3
    337    336    342    341     1  0.0000000  0.6694400  3
    337    336    342    343     1  0.0000000  0.6508444  3
    337    336    338    339     1  0.0000000  0.6694400  3
    337    336    338    362     1  0.0000000  0.6508444  3
    337    336    338    344     1  0.0000000  0.6276000  3
    337    336    335    345     1  180.0000771  0.0000000  2
    336    342    341    367     1  0.0000000  0.6694400  3
    336    342    341    366     1  0.0000000  0.6694400  3
    336    342    343    369     1  0.0000000  0.0000000  2
    336    338    339    364     1  0.0000000  0.6694400  3
    335    336    342    368     1  0.0000000  0.6508444  3
    335    336    338    344     1  0.0000000  0.6508444  3
    335    345    346    370     1  180.0000771  0.0000000  2
    335    345    346    371     1  180.0000771  0.0000000  2
    334    335    336    337     1  0.0000000  3.3472000  1
    334    335    336    337     1  0.0000000  0.0000000  2
    334    335    336    337     1  180.0000771  0.3347200  3
    442    415    416    443     1  0.0000000  0.6973333  3
    440    413    414    441     1  0.0000000  0.6973333  3
    440    413    415    442     1  0.0000000  0.6508444  3
    438    410    411    439     1  0.0000000  0.5146320  3
    437    410    411    439     1  0.0000000  0.5146320  3
    436    409    410    437     1  0.0000000  0.6508444  3
    436    409    410    438     1  0.0000000  0.6508444  3
    434    407    409    436     1  0.0000000  0.6508444  3
    434    407    408    435     1  0.0000000  0.6973333  3
    433    406    415    442     1  0.0000000  0.6508444  3
    433    406    407    434     1  0.0000000  0.6508444  3
    430    403    404    431     1  0.0000000  0.6508444  3
    430    403    404    432     1  0.0000000  0.6508444  3
    429    403    404    431     1  0.0000000  0.6508444  3
    429    403    404    432     1  0.0000000  0.6508444  3
    428    402    403    430     1  0.0000000  0.5020800  3
    428    402    403    429     1  0.0000000  0.5020800  3
    427    402    403    430     1  0.0000000  0.5020800  3
    427    402    403    429     1  0.0000000  0.5020800  3
    426    401    402    428     1  0.0000000  0.6508444  3
    426    401    402    427     1  0.0000000  0.6508444  3
    425    401    402    428     1  0.0000000  0.6508444  3
    425    401    402    427     1  0.0000000  0.6508444  3
    424    398    450    475     1  180.0000771  27.8236000  2
    424    398    450    449     1  180.0000771  27.8236000  2
    423    397    398    424     1  0.0000000  0.0000000  2
    423    397    398    450     1  0.0000000  4.8116000  1
    423    397    398    450     1  0.0000000  0.0000000  2
    423    397    398    450     1  180.0000771  1.5899200  3
    422    396    397    423     1  0.0000000  0.6276000  3
    421    396    397    423     1  0.0000000  0.6276000  3
    419    394    395    420     1  0.0000000  0.0000000  2
    419    394    396    422     1  0.0000000  0.6276000  3
    419    394    396    421     1  0.0000000  0.6276000  3
    417    393    394    419     1  0.0000000  0.6508444  3
    417    400    401    425     1  180.0000771  0.0000000  2
    417    400    401    426     1  180.0000771  0.0000000  2
    416    415    413    440     1  0.0000000  0.6508444  3
    416    415    406    433     1  0.0000000  1.0460000  1
    416    415    406    433     1  0.0000000  0.0000000  3
    415    413    414    441     1  0.0000000  1.0460000  1
    415    413    414    441     1  0.0000000  0.6694400  3
    415    406    407    434     1  0.0000000  0.6508444  3
    414    413    415    442     1  0.0000000  1.0460000  1
    414    413    415    442     1  0.0000000  0.0000000  3
    413    415    416    443     1  0.0000000  1.0460000  1
    413    415    416    443     1  0.0000000  0.6694400  3
    413    415    406    433     1  0.0000000  0.6508444  3
    413    412    409    436     1  0.0000000  1.6038667  3
    412    413    414    441     1  0.0000000  0.6973333  3
    412    413    415    442     1  0.0000000  1.0460000  1
    412    413    415    442     1  0.0000000  0.0000000  3
    412    409    407    434     1  0.0000000  1.0460000  1
    412    409    407    434     1  0.0000000  0.0000000  3
    412    409    410    437     1  0.0000000  1.0460000  1
    412    409    410    437     1  0.0000000  0.0000000  3
    412    409    410    438     1  0.0000000  1.0460000  1
    412    409    410    438     1  0.0000000  0.0000000  3
    411    410    409    436     1  0.0000000  1.0460000  1
    411    410    409    436     1  0.0000000  0.0000000  3
    410    409    407    434     1  0.0000000  0.6508444  3
    409    412    413    440     1  0.0000000  1.6038667  3
    409    407    406    433     1  0.0000000  0.6508444  3
    409    407    408    435     1  0.0000000  1.0460000  1
    409    407    408    435     1  0.0000000  0.6694400  3
    409    410    411    439     1  0.0000000  1.0460000  1
    409    410    411    439     1  0.0000000  0.6694400  3
    408    407    406    433     1  0.0000000  1.0460000  1
    408    407    406    433     1  0.0000000  0.0000000  3
    408    407    409    436     1  0.0000000  1.0460000  1
    408    407    409    436     1  0.0000000  0.0000000  3
    407    406    415    442     1  0.0000000  0.6508444  3
    407    409    410    437     1  0.0000000  0.6508444  3
    407    409    410    438     1  0.0000000  0.6508444  3
    406    415    416    443     1  0.0000000  1.0460000  1
    406    415    416    443     1  0.0000000  0.6694400  3
    406    415    413    440     1  0.0000000  0.6508444  3
    406    405    404    431     1  0.0000000  1.6038667  3
    406    405    404    432     1  0.0000000  1.6038667  3
    406    407    409    436     1  0.0000000  0.6508444  3
    406    407    408    435     1  0.0000000  1.0460000  1
    406    407    408    435     1  0.0000000  0.6694400  3
    405    404    403    430     1  0.0000000  1.0460000  1
    405    404    403    430     1  0.0000000  0.0000000  3
    405    404    403    429     1  0.0000000  1.0460000  1
    405    404    403    429     1  0.0000000  0.0000000  3
    405    406    415    442     1  0.0000000  1.0460000  1
    405    406    415    442     1  0.0000000  0.0000000  3
    405    406    407    434     1  0.0000000  1.0460000  1
    405    406    407    434     1  0.0000000  0.0000000  3
    404    405    406    433     1  0.0000000  1.6038667  3
    404    403    402    428     1  0.0000000  0.5439200  3
    404    403    402    427     1  0.0000000  0.5439200  3
    403    402    401    425     1  0.0000000  0.6508444  3
    403    402    401    426     1  0.0000000  0.6508444  3
    402    403    404    431     1  0.0000000  0.6508444  3
    402    403    404    432     1  0.0000000  0.6508444  3
    401    402    403    430     1  0.0000000  0.5439200  3
    401    402    403    429     1  0.0000000  0.5439200  3
    400    401    402    428     1  0.0000000  0.6508444  3
    400    401    402    427     1  0.0000000  0.6508444  3
    399    393    394    419     1  0.0000000  0.6276000  3
    399    393    417    418     1  0.0000000  3.3472000  1
    399    393    417    418     1  0.0000000  0.0000000  2
    399    393    417    418     1  180.0000771  0.3347200  3
    399    393    417    400     1  180.0000771  0.0000000  2
    398    397    396    422     1  0.0000000  0.6508444  3
    398    397    396    421     1  0.0000000  0.6508444  3
    398    450    449    474     1  0.0000000  4.8116000  1
    398    450    449    474     1  0.0000000  0.0000000  2
    398    450    449    474     1  180.0000771  1.5899200  3
    397    396    394    419     1  0.0000000  0.6694400  3
    397    398    450    475     1  180.0000771  27.8236000  2
    397    391    393    399     1  0.0000000  0.6694400  3
    396    394    395    420     1  0.0000000  0.0000000  2
    396    394    393    399     1  0.0000000  0.6694400  3
    396    397    398    424     1  0.0000000  0.0000000  2
    395    394    396    422     1  0.0000000  0.6508444  3
    395    394    396    421     1  0.0000000  0.6508444  3
    395    394    393    399     1  0.0000000  0.6508444  3
    394    396    397    423     1  0.0000000  0.6694400  3
    393    394    395    420     1  0.0000000  0.0000000  2
    393    394    396    422     1  0.0000000  0.6694400  3
    393    394    396    421     1  0.0000000  0.6694400  3
    393    391    397    423     1  0.0000000  0.6694400  3
    392    391    397    423     1  0.0000000  0.6276000  3
    392    391    397    396     1  0.0000000  0.6694400  3
    392    391    397    398     1  0.0000000  0.6508444  3
    392    391    393    394     1  0.0000000  0.6694400  3
    392    391    393    417     1  0.0000000  0.6508444  3
    392    391    393    399     1  0.0000000  0.6276000  3
    392    391    390    400     1  180.0000771  0.0000000  2
    391    397    396    422     1  0.0000000  0.6694400  3
    391    397    396    421     1  0.0000000  0.6694400  3
    391    397    398    424     1  0.0000000  0.0000000  2
    391    393    394    419     1  0.0000000  0.6694400  3
    390    391    397    423     1  0.0000000  0.6508444  3
    390    391    393    399     1  0.0000000  0.6508444  3
    390    400    401    425     1  180.0000771  0.0000000  2
    390    400    401    426     1  180.0000771  0.0000000  2
    389    390    391    392     1  0.0000000  3.3472000  1
    389    390    391    392     1  0.0000000  0.0000000  2
    389    390    391    392     1  180.0000771  0.3347200  3
    497    470    471    498     1  0.0000000  0.6973333  3
    495    468    469    496     1  0.0000000  0.6973333  3
    495    468    470    497     1  0.0000000  0.6508444  3
    493    465    466    494     1  0.0000000  0.5146320  3
    492    465    466    494     1  0.0000000  0.5146320  3
    491    464    465    492     1  0.0000000  0.6508444  3
    491    464    465    493     1  0.0000000  0.6508444  3
    489    462    464    491     1  0.0000000  0.6508444  3
    489    462    463    490     1  0.0000000  0.6973333  3
    488    461    470    497     1  0.0000000  0.6508444  3
    488    461    462    489     1  0.0000000  0.6508444  3
    485    458    459    486     1  0.0000000  0.6508444  3
    485    458    459    487     1  0.0000000  0.6508444  3
    484    458    459    486     1  0.0000000  0.6508444  3
    484    458    459    487     1  0.0000000  0.6508444  3
    483    457    458    485     1  0.0000000  0.5020800  3
    483    457    458    484     1  0.0000000  0.5020800  3
    482    457    458    485     1  0.0000000  0.5020800  3
    482    457    458    484     1  0.0000000  0.5020800  3
    481    456    457    483     1  0.0000000  0.6508444  3
    481    456    457    482     1  0.0000000  0.6508444  3
    480    456    457    483     1  0.0000000  0.6508444  3
    480    456    457    482     1  0.0000000  0.6508444  3
    479    453    505    530     1  180.0000771  27.8236000  2
    479    453    505    504     1  180.0000771  27.8236000  2
    478    452    453    479     1  0.0000000  0.0000000  2
    478    452    453    505     1  0.0000000  4.8116000  1
    478    452    453    505     1  0.0000000  0.0000000  2
    478    452    453    505     1  180.0000771  1.5899200  3
    477    451    452    478     1  0.0000000  0.6276000  3
    476    451    452    478     1  0.0000000  0.6276000  3
    474    449    450    475     1  0.0000000  0.0000000  2
    474    449    451    477     1  0.0000000  0.6276000  3
    474    449    451    476     1  0.0000000  0.6276000  3
    472    448    449    474     1  0.0000000  0.6508444  3
    472    455    456    480     1  180.0000771  0.0000000  2
    472    455    456    481     1  180.0000771  0.0000000  2
    471    470    468    495     1  0.0000000  0.6508444  3
    471    470    461    488     1  0.0000000  1.0460000  1
    471    470    461    488     1  0.0000000  0.0000000  3
    470    468    469    496     1  0.0000000  1.0460000  1
    470    468    469    496     1  0.0000000  0.6694400  3
    470    461    462    489     1  0.0000000  0.6508444  3
    469    468    470    497     1  0.0000000  1.0460000  1
    469    468    470    497     1  0.0000000  0.0000000  3
    468    470    471    498     1  0.0000000  1.0460000  1
    468    470    471    498     1  0.0000000  0.6694400  3
    468    470    461    488     1  0.0000000  0.6508444  3
    468    467    464    491     1  0.0000000  1.6038667  3
    467    468    469    496     1  0.0000000  0.6973333  3
    467    468    470    497     1  0.0000000  1.0460000  1
    467    468    470    497     1  0.0000000  0.0000000  3
    467    464    462    489     1  0.0000000  1.0460000  1
    467    464    462    489     1  0.0000000  0.0000000  3
    467    464    465    492     1  0.0000000  1.0460000  1
    467    464    465    492     1  0.0000000  0.0000000  3
    467    464    465    493     1  0.0000000  1.0460000  1
    467    464    465    493     1  0.0000000  0.0000000  3
    466    465    464    491     1  0.0000000  1.0460000  1
    466    465    464    491     1  0.0000000  0.0000000  3
    465    464    462    489     1  0.0000000  0.6508444  3
    464    467    468    495     1  0.0000000  1.6038667  3
    464    462    461    488     1  0.0000000  0.6508444  3
    464    462    463    490     1  0.0000000  1.0460000  1
    464    462    463    490     1  0.0000000  0.6694400  3
    464    465    466    494     1  0.0000000  1.0460000  1
    464    465    466    494     1  0.0000000  0.6694400  3
    463    462    461    488     1  0.0000000  1.0460000  1
    463    462    461    488     1  0.0000000  0.0000000  3
    463    462    464    491     1  0.0000000  1.0460000  1
    463    462    464    491     1  0.0000000  0.0000000  3
    462    461    470    497     1  0.0000000  0.6508444  3
    462    464    465    492     1  0.0000000  0.6508444  3
    462    464    465    493     1  0.0000000  0.6508444  3
    461    470    471    498     1  0.0000000  1.0460000  1
    461    470    471    498     1  0.0000000  0.6694400  3
    461    470    468    495     1  0.0000000  0.6508444  3
    461    460    459    486     1  0.0000000  1.6038667  3
    461    460    459    487     1  0.0000000  1.6038667  3
    461    462    464    491     1  0.0000000  0.6508444  3
    461    462    463    490     1  0.0000000  1.0460000  1
    461    462    463    490     1  0.0000000  0.6694400  3
    460    459    458    485     1  0.0000000  1.0460000  1
    460    459    458    485     1  0.0000000  0.0000000  3
    460    459    458    484     1  0.0000000  1.0460000  1
    460    459    458    484     1  0.0000000  0.0000000  3
    460    461    470    497     1  0.0000000  1.0460000  1
    460    461    470    497     1  0.0000000  0.0000000  3
    460    461    462    489     1  0.0000000  1.0460000  1
    460    461    462    489     1  0.0000000  0.0000000  3
    459    460    461    488     1  0.0000000  1.6038667  3
    459    458    457    483     1  0.0000000  0.5439200  3
    459    458    457    482     1  0.0000000  0.5439200  3
    458    457    456    480     1  0.0000000  0.6508444  3
    458    457    456    481     1  0.0000000  0.6508444  3
    457    458    459    486     1  0.0000000  0.6508444  3
    457    458    459    487     1  0.0000000  0.6508444  3
    456    457    458    485     1  0.0000000  0.5439200  3
    456    457    458    484     1  0.0000000  0.5439200  3
    455    456    457    483     1  0.0000000  0.6508444  3
    455    456    457    482     1  0.0000000  0.6508444  3
    454    448    449    474     1  0.0000000  0.6276000  3
    454    448    472    473     1  0.0000000  3.3472000  1
    454    448    472    473     1  0.0000000  0.0000000  2
    454    448    472    473     1  180.0000771  0.3347200  3
    454    448    472    455     1  180.0000771  0.0000000  2
    453    452    451    477     1  0.0000000  0.6508444  3
    453    452    451    476     1  0.0000000  0.6508444  3
    453    505    504    529     1  0.0000000  4.8116000  1
    453    505    504    529     1  0.0000000  0.0000000  2
    453    505    504    529     1  180.0000771  1.5899200  3
    452    451    449    474     1  0.0000000  0.6694400  3
    452    453    505    530     1  180.0000771  27.8236000  2
    452    446    448    454     1  0.0000000  0.6694400  3
    451    449    450    475     1  0.0000000  0.0000000  2
    451    449    448    454     1  0.0000000  0.6694400  3
    451    452    453    479     1  0.0000000  0.0000000  2
    450    449    451    477     1  0.0000000  0.6508444  3
    450    449    451    476     1  0.0000000  0.6508444  3
    450    449    448    454     1  0.0000000  0.6508444  3
    449    451    452    478     1  0.0000000  0.6694400  3
    448    449    450    475     1  0.0000000  0.0000000  2
    448    449    451    477     1  0.0000000  0.6694400  3
    448    449    451    476     1  0.0000000  0.6694400  3
    448    446    452    478     1  0.0000000  0.6694400  3
    447    446    452    478     1  0.0000000  0.6276000  3
    447    446    452    451     1  0.0000000  0.6694400  3
    447    446    452    453     1  0.0000000  0.6508444  3
    447    446    448    449     1  0.0000000  0.6694400  3
    447    446    448    472     1  0.0000000  0.6508444  3
    447    446    448    454     1  0.0000000  0.6276000  3
    447    446    445    455     1  180.0000771  0.0000000  2
    446    452    451    477     1  0.0000000  0.6694400  3
    446    452    451    476     1  0.0000000  0.6694400  3
    446    452    453    479     1  0.0000000  0.0000000  2
    446    448    449    474     1  0.0000000  0.6694400  3
    445    446    452    478     1  0.0000000  0.6508444  3
    445    446    448    454     1  0.0000000  0.6508444  3
    445    455    456    480     1  180.0000771  0.0000000  2
    445    455    456    481     1  180.0000771  0.0000000  2
    444    445    446    447     1  0.0000000  3.3472000  1
    444    445    446    447     1  0.0000000  0.0000000  2
    444    445    446    447     1  180.0000771  0.3347200  3
    552    525    526    553     1  0.0000000  0.6973333  3
    550    523    524    551     1  0.0000000  0.6973333  3
    550    523    525    552     1  0.0000000  0.6508444  3
    548    520    521    549     1  0.0000000  0.5146320  3
    547    520    521    549     1  0.0000000  0.5146320  3
    546    519    520    547     1  0.0000000  0.6508444  3
    546    519    520    548     1  0.0000000  0.6508444  3
    544    517    519    546     1  0.0000000  0.6508444  3
    544    517    518    545     1  0.0000000  0.6973333  3
    543    516    525    552     1  0.0000000  0.6508444  3
    543    516    517    544     1  0.0000000  0.6508444  3
    540    513    514    541     1  0.0000000  0.6508444  3
    540    513    514    542     1  0.0000000  0.6508444  3
    539    513    514    541     1  0.0000000  0.6508444  3
    539    513    514    542     1  0.0000000  0.6508444  3
    538    512    513    540     1  0.0000000  0.5020800  3
    538    512    513    539     1  0.0000000  0.5020800  3
    537    512    513    540     1  0.0000000  0.5020800  3
    537    512    513    539     1  0.0000000  0.5020800  3
    536    511    512    538     1  0.0000000  0.6508444  3
    536    511    512    537     1  0.0000000  0.6508444  3
    535    511    512    538     1  0.0000000  0.6508444  3
    535    511    512    537     1  0.0000000  0.6508444  3
    534    508    554    555     1  180.0000771  27.8236000  2
    534    508    554    556     1  180.0000771  27.8236000  2
    533    507    508    534     1  0.0000000  0.0000000  2
    533    507    508    554     1  0.0000000  4.8116000  1
    533    507    508    554     1  0.0000000  0.0000000  2
    533    507    508    554     1  180.0000771  1.5899200  3
    532    506    507    533     1  0.0000000  0.6276000  3
    531    506    507    533     1  0.0000000  0.6276000  3
    529    504    505    530     1  0.0000000  0.0000000  2
    529    504    506    532     1  0.0000000  0.6276000  3
    529    504    506    531     1  0.0000000  0.6276000  3
    527    503    504    529     1  0.0000000  0.6508444  3
    527    510    511    535     1  180.0000771  0.0000000  2
    527    510    511    536     1  180.0000771  0.0000000  2
    526    525    523    550     1  0.0000000  0.6508444  3
    526    525    516    543     1  0.0000000  1.0460000  1
    526    525    516    543     1  0.0000000  0.0000000  3
    525    523    524    551     1  0.0000000  1.0460000  1
    525    523    524    551     1  0.0000000  0.6694400  3
    525    516    517    544     1  0.0000000  0.6508444  3
    524    523    525    552     1  0.0000000  1.0460000  1
    524    523    525    552     1  0.0000000  0.0000000  3
    523    525    526    553     1  0.0000000  1.0460000  1
    523    525    526    553     1  0.0000000  0.6694400  3
    523    525    516    543     1  0.0000000  0.6508444  3
    523    522    519    546     1  0.0000000  1.6038667  3
    522    523    524    551     1  0.0000000  0.6973333  3
    522    523    525    552     1  0.0000000  1.0460000  1
    522    523    525    552     1  0.0000000  0.0000000  3
    522    519    517    544     1  0.0000000  1.0460000  1
    522    519    517    544     1  0.0000000  0.0000000  3
    522    519    520    547     1  0.0000000  1.0460000  1
    522    519    520    547     1  0.0000000  0.0000000  3
    522    519    520    548     1  0.0000000  1.0460000  1
    522    519    520    548     1  0.0000000  0.0000000  3
    521    520    519    546     1  0.0000000  1.0460000  1
    521    520    519    546     1  0.0000000  0.0000000  3
    520    519    517    544     1  0.0000000  0.6508444  3
    519    522    523    550     1  0.0000000  1.6038667  3
    519    517    516    543     1  0.0000000  0.6508444  3
    519    517    518    545     1  0.0000000  1.0460000  1
    519    517    518    545     1  0.0000000  0.6694400  3
    519    520    521    549     1  0.0000000  1.0460000  1
    519    520    521    549     1  0.0000000  0.6694400  3
    518    517    516    543     1  0.0000000  1.0460000  1
    518    517    516    543     1  0.0000000  0.0000000  3
    518    517    519    546     1  0.0000000  1.0460000  1
    518    517    519    546     1  0.0000000  0.0000000  3
    517    516    525    552     1  0.0000000  0.6508444  3
    517    519    520    547     1  0.0000000  0.6508444  3
    517    519    520    548     1  0.0000000  0.6508444  3
    516    525    526    553     1  0.0000000  1.0460000  1
    516    525    526    553     1  0.0000000  0.6694400  3
    516    525    523    550     1  0.0000000  0.6508444  3
    516    515    514    541     1  0.0000000  1.6038667  3
    516    515    514    542     1  0.0000000  1.6038667  3
    516    517    519    546     1  0.0000000  0.6508444  3
    516    517    518    545     1  0.0000000  1.0460000  1
    516    517    518    545     1  0.0000000  0.6694400  3
    515    514    513    540     1  0.0000000  1.0460000  1
    515    514    513    540     1  0.0000000  0.0000000  3
    515    514    513    539     1  0.0000000  1.0460000  1
    515    514    513    539     1  0.0000000  0.0000000  3
    515    516    525    552     1  0.0000000  1.0460000  1
    515    516    525    552     1  0.0000000  0.0000000  3
    515    516    517    544     1  0.0000000  1.0460000  1
    515    516    517    544     1  0.0000000  0.0000000  3
    514    515    516    543     1  0.0000000  1.6038667  3
    514    513    512    538     1  0.0000000  0.5439200  3
    514    513    512    537     1  0.0000000  0.5439200  3
    513    512    511    535     1  0.0000000  0.6508444  3
    513    512    511    536     1  0.0000000  0.6508444  3
    512    513    514    541     1  0.0000000  0.6508444  3
    512    513    514    542     1  0.0000000  0.6508444  3
    511    512    513    540     1  0.0000000  0.5439200  3
    511    512    513    539     1  0.0000000  0.5439200  3
    510    511    512    538     1  0.0000000  0.6508444  3
    510    511    512    537     1  0.0000000  0.6508444  3
    509    503    504    529     1  0.0000000  0.6276000  3
    509    503    527    528     1  0.0000000  3.3472000  1
    509    503    527    528     1  0.0000000  0.0000000  2
    509    503    527    528     1  180.0000771  0.3347200  3
    509    503    527    510     1  180.0000771  0.0000000  2
    508    507    506    532     1  0.0000000  0.6508444  3
    508    507    506    531     1  0.0000000  0.6508444  3
    507    506    504    529     1  0.0000000  0.6694400  3
    507    508    554    555     1  180.0000771  27.8236000  2
    507    508    554    556     1  180.0000771  27.8236000  2
    507    501    503    509     1  0.0000000  0.6694400  3
    506    504    505    530     1  0.0000000  0.0000000  2
    506    504    503    509     1  0.0000000  0.6694400  3
    506    507    508    534     1  0.0000000  0.0000000  2
    505    504    506    532     1  0.0000000  0.6508444  3
    505    504    506    531     1  0.0000000  0.6508444  3
    505    504    503    509     1  0.0000000  0.6508444  3
    504    506    507    533     1  0.0000000  0.6694400  3
    503    504    505    530     1  0.0000000  0.0000000  2
    503    504    506    532     1  0.0000000  0.6694400  3
    503    504    506    531     1  0.0000000  0.6694400  3
    503    501    507    533     1  0.0000000  0.6694400  3
    502    501    507    533     1  0.0000000  0.6276000  3
    502    501    507    506     1  0.0000000  0.6694400  3
    502    501    507    508     1  0.0000000  0.6508444  3
    502    501    503    504     1  0.0000000  0.6694400  3
    502    501    503    527     1  0.0000000  0.6508444  3
    502    501    503    509     1  0.0000000  0.6276000  3
    502    501    500    510     1  180.0000771  0.0000000  2
    501    507    506    532     1  0.0000000  0.6694400  3
    501    507    506    531     1  0.0000000  0.6694400  3
    501    507    508    534     1  0.0000000  0.0000000  2
    501    503    504    529     1  0.0000000  0.6694400  3
    500    501    507    533     1  0.0000000  0.6508444  3
    500    501    503    509     1  0.0000000  0.6508444  3
    500    510    511    535     1  180.0000771  0.0000000  2
    500    510    511    536     1  180.0000771  0.0000000  2
    499    500    501    502     1  0.0000000  3.3472000  1
    499    500    501    502     1  0.0000000  0.0000000  2
    499    500    501    502     1  180.0000771  0.3347200  3
     10      2      1      3     4  180.0000771  4.6024000  2
     65     12     13     39     4  180.0000771  4.6024000  2
      1      9     10     35     4  180.0000771  4.6024000  2
    120     67     68     94     4  180.0000771  4.6024000  2
     13     64     65     90     4  180.0000771  4.6024000  2
    175    122    123    149     4  180.0000771  4.6024000  2
     68    119    120    145     4  180.0000771  4.6024000  2
    230    177    178    204     4  180.0000771  4.6024000  2
    123    174    175    200     4  180.0000771  4.6024000  2
    285    232    233    259     4  180.0000771  4.6024000  2
    178    229    230    255     4  180.0000771  4.6024000  2
    340    287    288    314     4  180.0000771  4.6024000  2
    233    284    285    310     4  180.0000771  4.6024000  2
    395    342    343    369     4  180.0000771  4.6024000  2
    288    339    340    365     4  180.0000771  4.6024000  2
    450    397    398    424     4  180.0000771  4.6024000  2
    343    394    395    420     4  180.0000771  4.6024000  2
    505    452    453    479     4  180.0000771  4.6024000  2
    398    449    450    475     4  180.0000771  4.6024000  2
    554    507    508    534     4  180.0000771  4.6024000  2
    453    504    505    530     4  180.0000771  4.6024000  2
    508    555    554    556     4  180.0000771  4.6024000  2


[ moleculetype ]
; Name            nrexcl
WAT          3

[ atoms ]
;   nr       type  resnr residue  atom   cgnr    charge       mass  typeB    chargeB      massB
; residue    1 WAT rtp WAT q 0.0
    1         OW      1    WAT      O      1 -0.83400000  16.000000   ; qtot -0.834000
    2         HW      1    WAT     H1      2 0.41700000   1.008000   ; qtot -0.417000
    3         HW      1    WAT     H2      3 0.41700000   1.008000   ; qtot 0.000000

#ifdef FLEXIBLE

[ bonds ]
;    ai     aj funct         c0         c1         c2         c3
      2      1     1   0.09572 462750.400000
      3      1     1   0.09572 462750.400000
      3      2     1   0.15136 462750.400000


#else

[ settles ]
; i     funct   doh     dhh
1     1   0.09572000   0.15136000

#endif

[ exclusions ]
1  2  3
2  1  3
3  1  2

[ system ]
; Name
Generic title

[ molecules ]
; Compound       #mols
PYR                  1
system1              3
WAT              13361
