GROningen MAchine for Chemical Simulation
41777
    1PYR      C    1   4.898   4.267   1.915
    1PYR     C1    2   4.966   4.388   1.915
    1PYR     C2    3   5.106   4.391   1.914
    1PYR     C3    4   5.177   4.513   1.914
    1PYR     C4    5   5.316   4.514   1.914
    1PYR     C5    6   5.389   4.394   1.914
    1PYR     C6    7   5.530   4.394   1.914
    1PYR     C7    8   5.600   4.274   1.914
    1PYR     C8    9   5.532   4.152   1.914
    1PYR     C9   10   5.392   4.149   1.914
    1PYR    C10   11   5.321   4.028   1.914
    1PYR    C11   12   5.182   4.027   1.914
    1PYR    C12   13   5.109   4.146   1.914
    1PYR    C13   14   4.968   4.147   1.914
    1PYR    C14   15   5.178   4.270   1.914
    1PYR    C15   16   5.320   4.271   1.914
    1PYR      H   17   4.789   4.266   1.915
    1PYR     H1   18   4.909   4.481   1.916
    1PYR     H2   19   5.123   4.607   1.914
    1PYR     H3   20   5.368   4.610   1.913
    1PYR     H4   21   5.585   4.488   1.914
    1PYR     H5   22   5.709   4.275   1.915
    1PYR     H6   23   5.589   4.060   1.914
    1PYR     H7   24   5.375   3.934   1.914
    1PYR     H8   25   5.130   3.931   1.914
    1PYR     H9   26   4.913   4.053   1.914
    2CPH     CC   27   5.390   2.829   3.539
    2CPH    HC1   28   5.422   2.737   3.589
    2CPH    HC2   29   5.348   2.818   3.440
    3MNF      O   30   5.122   3.384   3.806
    3MNF      C   31   5.149   3.283   3.742
    3MNF     C1   32   5.247   3.273   3.626
    3MNF      H   33   5.224   3.351   3.552
    3MNF     C2   34   5.224   3.133   3.564
    3MNF     C3   35   5.365   3.079   3.529
    3MNF     C4   36   5.403   2.949   3.597
    3MNF     C6   37   5.465   3.192   3.564
    3MNF     C7   38   5.395   3.279   3.670
    3MNF     C8   39   5.439   3.423   3.688
    3MNF     H1   40   5.163   3.143   3.473
    3MNF      N   41   5.093   3.157   3.760
    3MNF    C10   42   4.969   3.140   3.839
    3MNF    C11   43   4.986   3.086   3.983
    3MNF    C12   44   5.102   3.147   4.067
    3MNF    C13   45   5.242   3.090   4.035
    3MNF     O1   46   5.236   2.948   4.051
    3MNF    C14   47   5.301   2.868   3.950
    3MNF    C15   48   5.225   2.733   3.944
    3MNF     O2   49   5.097   2.753   3.881
    3MNF    C16   50   5.304   2.623   3.867
    3MNF    C17   51   5.243   2.482   3.884
    3MNF     O3   52   5.115   2.475   3.821
    3MNF     O4   53   5.438   2.617   3.918
    3MNF    C18   54   5.514   2.737   3.902
    3MNF     O5   55   5.646   2.715   3.950
    3MNF    C19   56   5.450   2.848   3.987
    3MNF     O6   57   5.524   2.970   3.968
    3MNF    C20   58   5.138   3.061   3.670
    3MNF     O7   59   5.107   2.943   3.671
    3MNF     H2   60   5.369   3.062   3.420
    3MNF     H3   61   5.447   2.958   3.696
    3MNF     H6   62   5.486   3.251   3.474
    3MNF     H7   63   5.560   3.150   3.601
    3MNF     H8   64   5.403   3.228   3.767
    3MNF     H9   65   5.359   3.486   3.728
    3MNF    H12   66   4.902   3.072   3.784
    3MNF    H13   67   4.918   3.237   3.844
    3MNF    H14   68   4.892   3.105   4.037
    3MNF    H15   69   4.996   2.977   3.980
    3MNF    H16   70   5.103   3.256   4.056
    3MNF    H17   71   5.082   3.127   4.173
    3MNF    H18   72   5.316   3.134   4.103
    3MNF    H19   73   5.272   3.117   3.933
    3MNF    H20   74   5.295   2.915   3.851
    3MNF    H21   75   5.210   2.698   4.047
    3MNF    H22   76   5.109   2.812   3.803
    3MNF    H23   77   5.306   2.647   3.760
    3MNF    H24   78   5.311   2.408   3.840
    3MNF    H25   79   5.234   2.459   3.991
    3MNF    H26   80   5.069   2.558   3.842
    3MNF    H27   81   5.517   2.766   3.796
    3MNF    H28   82   5.681   2.805   3.959
    3MNF    H29   83   5.455   2.815   4.092
    3MNF    H30   84   5.530   3.014   4.057
    4MON      O   85   5.720   3.860   3.505
    4MON      C   86   5.709   3.742   3.477
    4MON     C1   87   5.805   3.629   3.517
    4MON      H   88   5.897   3.638   3.457
    4MON     C2   89   5.729   3.499   3.478
    4MON     C3   90   5.689   3.432   3.611
    4MON     C4   91   5.556   3.485   3.663
    4MON     C6   92   5.802   3.475   3.706
    4MON     C7   93   5.835   3.621   3.669
    4MON     C8   94   5.975   3.668   3.706
    4MON     H1   95   5.794   3.433   3.419
    4MON      N   96   5.606   3.685   3.403
    4MON    C10   97   5.516   3.766   3.319
    4MON    C11   98   5.403   3.839   3.395
    4MON    C12   99   5.323   3.756   3.499
    4MON    C13  100   5.260   3.623   3.450
    4MON     O1  101   5.203   3.643   3.320
    4MON    C14  102   5.126   3.532   3.268
    4MON    C15  103   5.219   3.428   3.197
    4MON     O2  104   5.295   3.355   3.294
    4MON    C16  105   5.134   3.327   3.113
    4MON    C17  106   5.220   3.232   3.027
    4MON     O3  107   5.289   3.139   3.111
    4MON     O4  108   5.049   3.401   3.023
    4MON    C18  109   4.952   3.484   3.088
    4MON     O5  110   4.873   3.548   2.990
    4MON    C19  111   5.028   3.594   3.166
    4MON     O6  112   4.934   3.676   3.236
    4MON    C20  113   5.612   3.546   3.392
    4MON     O7  114   5.538   3.475   3.325
    4MON     H2  115   5.689   3.323   3.601
    4MON     H3  116   5.559   3.592   3.685
    4MON     H6  117   5.890   3.411   3.687
    4MON     H7  118   5.773   3.462   3.811
    4MON     H8  119   5.763   3.687   3.721
    4MON     H9  120   6.034   3.707   3.623
    4MON    H12  121   5.470   3.701   3.243
    4MON    H13  122   5.576   3.840   3.264
    4MON    H14  123   5.447   3.924   3.448
    4MON    H15  124   5.333   3.881   3.321
    4MON    H16  125   5.389   3.732   3.583
    4MON    H17  126   5.243   3.819   3.539
    4MON    H18  127   5.184   3.592   3.522
    4MON    H19  128   5.338   3.547   3.448
    4MON    H20  129   5.068   3.482   3.347
    4MON    H21  130   5.285   3.482   3.128
    4MON    H22  131   5.380   3.404   3.307
    4MON    H23  132   5.073   3.266   3.180
    4MON    H24  133   5.155   3.178   2.957
    4MON    H25  134   5.292   3.290   2.968
    4MON    H26  135   5.323   3.190   3.187
    4MON    H27  136   4.889   3.425   3.155
    4MON    H28  137   4.836   3.624   3.039
    4MON    H29  138   5.085   3.653   3.093
    4MON    H30  139   4.988   3.735   3.293
    5MON      O  140   6.279   3.400   4.231
    5MON      C  141   6.202   3.414   4.137
    5MON     C1  142   6.063   3.478   4.143
    5MON      H  143   5.999   3.418   4.208
    5MON     C2  144   6.010   3.474   3.998
    5MON     C3  145   5.969   3.618   3.958
    5MON     C4  146   6.032   3.667   3.828
    5MON     C6  147   6.002   3.711   4.078
    5MON     C7  148   6.068   3.625   4.188
    5MON     C8  149   6.013   3.641   4.329
    5MON     H1  150   5.924   3.406   3.992
    5MON      N  151   6.228   3.381   4.005
    5MON    C10  152   6.345   3.300   3.965
    5MON    C11  153   6.481   3.374   3.970
    5MON    C12  154   6.483   3.521   3.920
    5MON    C13  155   6.427   3.547   3.778
    5MON     O1  156   6.478   3.447   3.689
    5MON    C14  157   6.449   3.467   3.548
    5MON    C15  158   6.309   3.413   3.510
    5MON     O2  159   6.207   3.498   3.564
    5MON    C16  160   6.292   3.406   3.356
    5MON    C17  161   6.161   3.336   3.312
    5MON     O3  162   6.049   3.417   3.351
    5MON     O4  163   6.401   3.331   3.299
    5MON    C18  164   6.530   3.389   3.320
    5MON     O5  165   6.629   3.309   3.258
    5MON    C19  166   6.559   3.390   3.472
    5MON     O6  167   6.686   3.451   3.497
    5MON    C20  168   6.124   3.410   3.917
    5MON     O7  169   6.123   3.384   3.798
    5MON     H2  170   5.860   3.620   3.947
    5MON     H3  171   6.134   3.703   3.838
    5MON     H6  172   5.912   3.760   4.114
    5MON     H7  173   6.071   3.791   4.048
    5MON     H8  174   6.174   3.655   4.191
    5MON     H9  175   6.090   3.662   4.402
    5MON    H12  176   6.329   3.264   3.863
    5MON    H13  177   6.350   3.212   4.030
    5MON    H14  178   6.516   3.374   4.074
    5MON    H15  179   6.554   3.316   3.913
    5MON    H16  180   6.428   3.584   3.991
    5MON    H17  181   6.586   3.557   3.923
    5MON    H18  182   6.456   3.647   3.746
    5MON    H19  183   6.317   3.544   3.782
    5MON    H20  184   6.456   3.574   3.521
    5MON    H21  185   6.299   3.311   3.550
    5MON    H22  186   6.183   3.461   3.653
    5MON    H23  187   6.292   3.508   3.314
    5MON    H24  188   6.162   3.323   3.203
    5MON    H25  189   6.155   3.237   3.358
    5MON    H26  190   6.075   3.458   3.436
    5MON    H27  191   6.534   3.491   3.280
    5MON    H28  192   6.710   3.334   3.307
    5MON    H29  193   6.558   3.285   3.506
    5MON    H30  194   6.691   3.461   3.594
    6MON      O  195   5.597   3.476   4.695
    6MON      C  196   5.637   3.459   4.581
    6MON     C1  197   5.586   3.530   4.456
    6MON      H  198   5.483   3.498   4.437
    6MON     C2  199   5.678   3.479   4.342
    6MON     C3  200   5.759   3.601   4.293
    6MON     C4  201   5.886   3.628   4.373
    6MON     C6  202   5.657   3.715   4.318
    6MON     C7  203   5.595   3.684   4.456
    6MON     C8  204   5.463   3.749   4.499
    6MON     H1  205   5.617   3.439   4.260
    6MON      N  206   5.734   3.367   4.540
    6MON    C10  207   5.784   3.261   4.630
    6MON    C11  208   5.896   3.305   4.727
    6MON    C12  209   6.008   3.397   4.670
    6MON    C13  210   6.085   3.346   4.546
    6MON     O1  211   6.116   3.207   4.562
    6MON    C14  212   6.212   3.156   4.467
    6MON    C15  213   6.143   3.078   4.352
    6MON     O2  214   6.064   3.166   4.271
    6MON    C16  215   6.251   3.011   4.263
    6MON    C17  216   6.194   2.926   4.148
    6MON     O3  217   6.137   3.011   4.049
    6MON     O4  218   6.331   2.924   4.347
    6MON    C18  219   6.405   2.992   4.450
    6MON     O5  220   6.479   2.897   4.525
    6MON    C19  221   6.304   3.060   4.545
    6MON     O6  222   6.375   3.133   4.646
    6MON    C20  223   5.759   3.366   4.404
    6MON     O7  224   5.827   3.285   4.344
    6MON     H2  225   5.780   3.591   4.186
    6MON     H3  226   5.870   3.641   4.480
    6MON     H6  227   5.581   3.706   4.240
    6MON     H7  228   5.704   3.814   4.313
    6MON     H8  229   5.669   3.713   4.533
    6MON     H9  230   5.437   3.721   4.601
    6MON    H12  231   5.823   3.178   4.568
    6MON    H13  232   5.700   3.221   4.688
    6MON    H14  233   5.849   3.358   4.810
    6MON    H15  234   5.942   3.215   4.771
    6MON    H16  235   5.965   3.495   4.646
    6MON    H17  236   6.080   3.415   4.750
    6MON    H18  237   6.177   3.405   4.536
    6MON    H19  238   6.027   3.363   4.455
    6MON    H20  239   6.274   3.236   4.425
    6MON    H21  240   6.080   2.999   4.395
    6MON    H22  241   5.986   3.197   4.324
    6MON    H23  242   6.315   3.088   4.220
    6MON    H24  243   6.275   2.866   4.104
    6MON    H25  244   6.119   2.856   4.187
    6MON    H26  245   6.083   3.077   4.098
    6MON    H27  246   6.472   3.066   4.405
    6MON    H28  247   6.495   2.946   4.608
    6MON    H29  248   6.243   2.981   4.591
    6MON    H30  249   6.308   3.189   4.689
    7MON      O  250   4.937   3.813   4.241
    7MON      C  251   5.056   3.788   4.229
    7MON     C1  252   5.163   3.883   4.176
    7MON      H  253   5.145   3.900   4.069
    7MON     C2  254   5.296   3.806   4.194
    7MON     C3  255   5.382   3.887   4.294
    7MON     C4  256   5.376   3.830   4.435
    7MON     C6  257   5.325   4.029   4.286
    7MON     C7  258   5.174   4.016   4.254
    7MON     C8  259   5.117   4.131   4.173
    7MON     H1  260   5.347   3.799   4.098
    7MON      N  261   5.117   3.667   4.260
    7MON    C10  262   5.039   3.544   4.282
    7MON    C11  263   4.975   3.532   4.423
    7MON    C12  264   5.065   3.568   4.544
    7MON    C13  265   5.201   3.495   4.553
    7MON     O1  266   5.184   3.356   4.520
    7MON    C14  267   5.300   3.274   4.544
    7MON    C15  268   5.339   3.201   4.413
    7MON     O2  269   5.388   3.296   4.318
    7MON    C16  270   5.448   3.093   4.441
    7MON    C17  271   5.478   3.005   4.318
    7MON     O3  272   5.541   3.084   4.216
    7MON     O4  273   5.401   3.006   4.546
    7MON    C18  274   5.376   3.070   4.672
    7MON     O5  275   5.333   2.973   4.765
    7MON    C19  276   5.262   3.172   4.653
    7MON     O6  277   5.237   3.239   4.777
    7MON    C20  278   5.255   3.665   4.237
    7MON     O7  279   5.327   3.567   4.243
    7MON     H2  280   5.486   3.894   4.260
    7MON     H3  281   5.287   3.861   4.490
    7MON     H6  282   5.376   4.081   4.204
    7MON     H7  283   5.343   4.087   4.378
    7MON     H8  284   5.118   4.006   4.348
    7MON     H9  285   5.023   4.107   4.122
    7MON    H12  286   5.105   3.457   4.266
    7MON    H13  287   4.960   3.538   4.206
    7MON    H14  288   4.887   3.597   4.426
    7MON    H15  289   4.937   3.429   4.435
    7MON    H16  290   5.083   3.676   4.544
    7MON    H17  291   5.008   3.547   4.635
    7MON    H18  292   5.241   3.507   4.655
    7MON    H19  293   5.272   3.542   4.485
    7MON    H20  294   5.385   3.333   4.580
    7MON    H21  295   5.249   3.150   4.374
    7MON    H22  296   5.325   3.371   4.312
    7MON    H23  297   5.541   3.142   4.473
    7MON    H24  298   5.545   2.923   4.348
    7MON    H25  299   5.385   2.961   4.281
    7MON    H26  300   5.505   3.175   4.228
    7MON    H27  301   5.467   3.120   4.708
    7MON    H28  302   5.287   3.028   4.832
    7MON    H29  303   5.173   3.116   4.620
    7MON    H30  304   5.172   3.309   4.758
    8MON      O  305   5.248   4.773   4.234
    8MON      C  306   5.185   4.670   4.217
    8MON     C1  307   5.158   4.601   4.084
    8MON      H  308   5.111   4.670   4.014
    8MON     C2  309   5.062   4.483   4.119
    8MON     C3  310   5.121   4.354   4.056
    8MON     C4  311   5.174   4.251   4.154
    8MON     C6  312   5.236   4.401   3.966
    8MON     C7  313   5.284   4.535   4.023
    8MON     C8  314   5.360   4.617   3.920
    8MON     H1  315   4.962   4.504   4.079
    8MON      N  316   5.127   4.593   4.318
    8MON    C10  317   5.119   4.639   4.458
    8MON    C11  318   5.250   4.628   4.541
    8MON    C12  319   5.345   4.510   4.510
    8MON    C13  320   5.284   4.368   4.507
    8MON     O1  321   5.198   4.350   4.621
    8MON    C14  322   5.115   4.232   4.614
    8MON    C15  323   4.977   4.264   4.677
    8MON     O2  324   4.909   4.363   4.600
    8MON    C16  325   4.890   4.135   4.690
    8MON    C17  326   4.762   4.156   4.773
    8MON     O3  327   4.673   4.245   4.706
    8MON     O4  328   4.966   4.030   4.755
    8MON    C18  329   5.088   3.994   4.690
    8MON     O5  330   5.151   3.890   4.761
    8MON    C19  331   5.181   4.117   4.693
    8MON     O6  332   5.310   4.083   4.641
    8MON    C20  333   5.053   4.484   4.272
    8MON     O7  334   4.990   4.405   4.341
    8MON     H2  335   5.044   4.307   3.993
    8MON     H3  336   5.267   4.278   4.203
    8MON     H6  337   5.198   4.414   3.864
    8MON     H7  338   5.319   4.330   3.963
    8MON     H8  339   5.353   4.512   4.106
    8MON     H9  340   5.460   4.646   3.950
    8MON    H12  341   5.041   4.581   4.509
    8MON    H13  342   5.086   4.744   4.459
    8MON    H14  343   5.307   4.720   4.527
    8MON    H15  344   5.223   4.625   4.647
    8MON    H16  345   5.393   4.528   4.413
    8MON    H17  346   5.426   4.511   4.584
    8MON    H18  347   5.365   4.294   4.506
    8MON    H19  348   5.227   4.356   4.415
    8MON    H20  349   5.099   4.200   4.510
    8MON    H21  350   4.994   4.302   4.779
    8MON    H22  351   4.945   4.364   4.509
    8MON    H23  352   4.860   4.101   4.589
    8MON    H24  353   4.713   4.059   4.790
    8MON    H25  354   4.789   4.196   4.872
    8MON    H26  355   4.728   4.317   4.668
    8MON    H27  356   5.069   3.962   4.586
    8MON    H28  357   5.246   3.911   4.748
    8MON    H29  358   5.189   4.148   4.799
    8MON    H30  359   5.364   4.164   4.651
    9MON      O  360   5.170   4.461   3.394
    9MON      C  361   5.269   4.486   3.462
    9MON     C1  362   5.343   4.619   3.466
    9MON      H  363   5.397   4.631   3.371
    9MON     C2  364   5.446   4.603   3.581
    9MON     C3  365   5.405   4.707   3.689
    9MON     C4  366   5.317   4.644   3.796
    9MON     C6  367   5.329   4.816   3.611
    9MON     C7  368   5.255   4.742   3.498
    9MON     C8  369   5.229   4.823   3.372
    9MON     H1  370   5.546   4.626   3.544
    9MON      N  371   5.337   4.396   3.543
    9MON    C10  372   5.351   4.255   3.498
    9MON    C11  373   5.231   4.162   3.525
    9MON    C12  374   5.185   4.153   3.672
    9MON    C13  375   5.295   4.131   3.777
    9MON     O1  376   5.374   4.016   3.745
    9MON    C14  377   5.468   3.979   3.849
    9MON    C15  378   5.604   4.053   3.832
    9MON     O2  379   5.591   4.190   3.873
    9MON    C16  380   5.716   3.988   3.921
    9MON    C17  381   5.858   4.033   3.880
    9MON     O3  382   5.882   4.165   3.929
    9MON     O4  383   5.713   3.844   3.914
    9MON    C18  384   5.588   3.784   3.948
    9MON     O5  385   5.599   3.644   3.947
    9MON    C19  386   5.488   3.828   3.839
    9MON     O6  387   5.363   3.760   3.854
    9MON    C20  388   5.438   4.455   3.619
    9MON     O7  389   5.514   4.395   3.695
    9MON     H2  390   5.495   4.749   3.736
    9MON     H3  391   5.217   4.613   3.763
    9MON     H6  392   5.403   4.885   3.567
    9MON     H7  393   5.261   4.874   3.674
    9MON     H8  394   5.159   4.705   3.537
    9MON     H9  395   5.222   4.763   3.281
    9MON    H12  396   5.440   4.211   3.544
    9MON    H13  397   5.370   4.256   3.390
    9MON    H14  398   5.146   4.195   3.465
    9MON    H15  399   5.256   4.062   3.490
    9MON    H16  400   5.134   4.246   3.698
    9MON    H17  401   5.110   4.073   3.681
    9MON    H18  402   5.248   4.119   3.875
    9MON    H19  403   5.358   4.220   3.780
    9MON    H20  404   5.427   4.002   3.949
    9MON    H21  405   5.635   4.045   3.727
    9MON    H22  406   5.559   4.244   3.797
    9MON    H23  407   5.699   4.018   4.026
    9MON    H24  408   5.931   3.964   3.923
    9MON    H25  409   5.868   4.028   3.771
    9MON    H26  410   5.803   4.219   3.908
    9MON    H27  411   5.555   3.819   4.047
    9MON    H28  412   5.507   3.615   3.927
    9MON    H29  413   5.534   3.806   3.741
    9MON    H30  414   5.301   3.805   3.793
   10MON      O  415   4.815   5.274   3.302
   10MON      C  416   4.884   5.179   3.270
   10MON     C1  417   5.011   5.184   3.187
   10MON      H  418   4.988   5.225   3.088
   10MON     C2  419   5.057   5.036   3.174
   10MON     C3  420   5.202   5.027   3.228
   10MON     C4  421   5.217   4.957   3.362
   10MON     C6  422   5.251   5.173   3.235
   10MON     C7  423   5.126   5.261   3.255
   10MON     C8  424   5.144   5.402   3.202
   10MON     H1  425   5.054   5.006   3.068
   10MON      N  426   4.859   5.046   3.302
   10MON    C10  427   4.731   5.003   3.363
   10MON    C11  428   4.719   5.030   3.515
   10MON    C12  429   4.844   5.001   3.602
   10MON    C13  430   4.910   4.863   3.584
   10MON     O1  431   4.809   4.762   3.569
   10MON    C14  432   4.858   4.630   3.540
   10MON    C15  433   4.762   4.562   3.439
   10MON     O2  434   4.767   4.628   3.312
   10MON    C16  435   4.797   4.411   3.422
   10MON    C17  436   4.692   4.333   3.339
   10MON     O3  437   4.696   4.375   3.203
   10MON     O4  438   4.803   4.348   3.552
   10MON    C18  439   4.900   4.404   3.641
   10MON     O5  440   4.897   4.335   3.765
   10MON    C19  441   4.859   4.549   3.671
   10MON     O6  442   4.947   4.607   3.768
   10MON    C20  443   4.951   4.955   3.249
   10MON     O7  444   4.944   4.834   3.255
   10MON     H2  445   5.264   4.973   3.155
   10MON     H3  446   5.222   5.020   3.450
   10MON     H6  447   5.298   5.199   3.139
   10MON     H7  448   5.326   5.190   3.313
   10MON     H8  449   5.106   5.265   3.363
   10MON     H9  450   5.131   5.480   3.277
   10MON    H12  451   4.719   4.896   3.346
   10MON    H13  452   4.649   5.053   3.311
   10MON    H14  453   4.692   5.135   3.529
   10MON    H15  454   4.634   4.972   3.553
   10MON    H16  455   4.919   5.078   3.583
   10MON    H17  456   4.815   5.012   3.708
   10MON    H18  457   4.975   4.843   3.671
   10MON    H19  458   4.975   4.866   3.496
   10MON    H20  459   4.958   4.632   3.495
   10MON    H21  460   4.660   4.568   3.480
   10MON    H22  461   4.838   4.696   3.313
   10MON    H23  462   4.895   4.401   3.373
   10MON    H24  463   4.715   4.225   3.346
   10MON    H25  464   4.593   4.349   3.382
   10MON    H26  465   4.707   4.473   3.205
   10MON    H27  466   5.000   4.399   3.597
   10MON    H28  467   4.914   4.409   3.826
   10MON    H29  468   4.756   4.546   3.710
   10MON    H30  469   4.918   4.700   3.776
   11MON      O  470   5.492   5.564   2.654
   11MON      C  471   5.451   5.556   2.768
   11MON     C1  472   5.332   5.630   2.827
   11MON      H  473   5.341   5.737   2.805
   11MON     C2  474   5.340   5.607   2.980
   11MON     C3  475   5.195   5.575   3.027
   11MON     C4  476   5.175   5.433   3.075
   11MON     C6  477   5.106   5.605   2.904
   11MON     C7  478   5.195   5.578   2.781
   11MON     C8  479   5.156   5.634   2.644
   11MON     H1  480   5.378   5.697   3.029
   11MON      N  481   5.508   5.481   2.870
   11MON    C10  482   5.646   5.428   2.859
   11MON    C11  483   5.662   5.302   2.770
   11MON    C12  484   5.551   5.194   2.779
   11MON    C13  485   5.511   5.150   2.921
   11MON     O1  486   5.629   5.128   3.000
   11MON    C14  487   5.604   5.094   3.138
   11MON    C15  488   5.709   5.165   3.227
   11MON     O2  489   5.690   5.307   3.226
   11MON    C16  490   5.702   5.113   3.374
   11MON    C17  491   5.818   5.164   3.462
   11MON     O3  492   5.801   5.303   3.491
   11MON     O4  493   5.706   4.969   3.376
   11MON    C18  494   5.600   4.904   3.304
   11MON     O5  495   5.614   4.764   3.313
   11MON    C19  496   5.615   4.941   3.155
   11MON     O6  497   5.515   4.873   3.078
   11MON    C20  498   5.446   5.496   2.994
   11MON     O7  499   5.476   5.437   3.097
   11MON     H2  500   5.168   5.645   3.107
   11MON     H3  501   5.189   5.355   3.000
   11MON     H6  502   5.078   5.711   2.908
   11MON     H7  503   5.014   5.544   2.904
   11MON     H8  504   5.203   5.468   2.770
   11MON     H9  505   5.230   5.610   2.568
   11MON    H12  506   5.682   5.403   2.960
   11MON    H13  507   5.711   5.507   2.821
   11MON    H14  508   5.668   5.335   2.665
   11MON    H15  509   5.759   5.257   2.792
   11MON    H16  510   5.462   5.231   2.728
   11MON    H17  511   5.585   5.106   2.723
   11MON    H18  512   5.450   5.059   2.914
   11MON    H19  513   5.449   5.228   2.966
   11MON    H20  514   5.505   5.128   3.170
   11MON    H21  515   5.809   5.141   3.188
   11MON    H22  516   5.614   5.330   3.167
   11MON    H23  517   5.608   5.147   3.419
   11MON    H24  518   5.820   5.107   3.556
   11MON    H25  519   5.914   5.146   3.411
   11MON    H26  520   5.778   5.346   3.406
   11MON    H27  521   5.502   4.935   3.342
   11MON    H28  522   5.579   4.736   3.226
   11MON    H29  523   5.716   4.911   3.124
   11MON    H30  524   5.533   4.895   2.985
   12MNL      O  525   4.948   6.166   2.469
   12MNL      C  526   4.967   6.085   2.557
   12MNL     C1  527   4.864   5.991   2.618
   12MNL      H  528   4.786   6.050   2.668
   12MNL     C2  529   4.942   5.907   2.723
   12MNL     C3  530   4.929   5.758   2.679
   12MNL     C4  531   5.050   5.708   2.602
   12MNL     C6  532   4.803   5.757   2.590
   12MNL     C7  533   4.803   5.892   2.516
   12MNL     C8  534   4.669   5.940   2.463
   12MNL     H1  535   4.899   5.922   2.823
   12MNL      N  536   5.089   6.060   2.620
   12MNL    C10  537   5.208   6.144   2.596
   12MNL    C11  538   5.282   6.113   2.463
   12MNL    C12  539   5.314   5.964   2.435
   12MNL    C13  540   5.398   5.891   2.541
   12MNL     O1  541   5.513   5.971   2.574
   12MNL    C14  542   5.605   5.910   2.667
   12MNL    C15  543   5.592   5.978   2.805
   12MNL     O2  544   5.466   5.945   2.865
   12MNL    C16  545   5.708   5.933   2.899
   12MNL    C17  546   5.710   6.008   3.034
   12MNL     O3  547   5.598   5.969   3.114
   12MNL     O4  548   5.834   5.959   2.834
   12MNL    C18  549   5.853   5.887   2.711
   12MNL     O5  550   5.980   5.919   2.658
   12MNL    C19  551   5.746   5.932   2.610
   12MNL     O6  552   5.761   5.859   2.488
   12MNL    C20  553   5.084   5.965   2.721
   12MNL     O7  554   5.175   5.937   2.798
   12MNL     H2  555   4.908   5.694   2.766
   12MNL     H3  556   5.049   5.735   2.497
   12MNL     H6  557   4.715   5.750   2.655
   12MNL     H7  558   4.801   5.672   2.521
   12MNL     H8  559   4.872   5.885   2.431
   12MNL     H9  560   4.670   6.041   2.422
   12MNL    H12  561   5.279   6.132   2.679
   12MNL    H13  562   5.177   6.250   2.595
   12MNL    H14  563   5.221   6.151   2.380
   12MNL    H15  564   5.375   6.172   2.461
   12MNL    H16  565   5.220   5.909   2.420
   12MNL    H17  566   5.368   5.959   2.339
   12MNL    H18  567   5.429   5.793   2.502
   12MNL    H19  568   5.337   5.874   2.630
   12MNL    H20  569   5.588   5.802   2.676
   12MNL    H21  570   5.600   6.087   2.791
   12MNL    H22  571   5.394   5.972   2.804
   12MNL    H23  572   5.698   5.825   2.919
   12MNL    H24  573   5.803   5.983   3.087
   12MNL    H25  574   5.710   6.116   3.016
   12MNL    H26  575   5.521   5.968   3.053
   12MNL    H27  576   5.846   5.778   2.728
   12MNL    H28  577   5.970   5.895   2.563
   12MNL    H29  578   5.761   6.040   2.592
   12MNL    H30  579   5.681   5.878   2.435
   13CPT     CC  580   4.554   5.870   2.463
   13CPT    HC1  581   4.545   5.769   2.502
   13CPT    HC2  582   4.462   5.914   2.423
   14CPH     CC  583   2.653   4.885   4.166
   14CPH    HC1  584   2.627   4.925   4.068
   14CPH    HC2  585   2.579   4.899   4.246
   15MNF      O  586   2.970   4.346   4.177
   15MNF      C  587   2.891   4.431   4.214
   15MNF     C1  588   2.914   4.536   4.322
   15MNF      H  589   2.939   4.486   4.416
   15MNF     C2  590   2.778   4.611   4.337
   15MNF     C3  591   2.809   4.762   4.322
   15MNF     C4  592   2.768   4.819   4.188
   15MNF     C6  593   2.962   4.773   4.340
   15MNF     C7  594   3.020   4.642   4.283
   15MNF     C8  595   3.158   4.597   4.330
   15MNF     H1  596   2.735   4.589   4.436
   15MNF      N  597   2.762   4.451   4.164
   15MNF    C10  598   2.703   4.360   4.063
   15MNF    C11  599   2.754   4.378   3.918
   15MNF    C12  600   2.785   4.523   3.870
   15MNF    C13  601   2.674   4.628   3.892
   15MNF     O1  602   2.546   4.573   3.858
   15MNF    C14  603   2.433   4.649   3.904
   15MNF    C15  604   2.321   4.549   3.942
   15MNF     O2  605   2.358   4.476   4.059
   15MNF    C16  606   2.185   4.621   3.967
   15MNF    C17  607   2.066   4.523   3.983
   15MNF     O3  608   2.080   4.447   4.103
   15MNF     O4  609   2.155   4.704   3.853
   15MNF    C18  610   2.250   4.808   3.828
   15MNF     O5  611   2.207   4.885   3.718
   15MNF    C19  612   2.385   4.743   3.791
   15MNF     O6  613   2.481   4.845   3.765
   15MNF    C20  614   2.688   4.548   4.230
   15MNF     O7  615   2.570   4.575   4.210
   15MNF     H2  616   2.758   4.818   4.402
   15MNF     H3  617   2.839   4.807   4.106
   15MNF     H6  618   2.986   4.782   4.447
   15MNF     H7  619   2.999   4.862   4.289
   15MNF     H8  620   3.022   4.650   4.174
   15MNF     H9  621   3.166   4.489   4.338
   15MNF    H12  622   2.595   4.376   4.063
   15MNF    H13  623   2.719   4.257   4.095
   15MNF    H14  624   2.847   4.321   3.908
   15MNF    H15  625   2.682   4.332   3.850
   15MNF    H16  626   2.876   4.559   3.919
   15MNF    H17  627   2.808   4.519   3.763
   15MNF    H18  628   2.697   4.717   3.832
   15MNF    H19  629   2.675   4.659   3.997
   15MNF    H20  630   2.457   4.710   3.993
   15MNF    H21  631   2.307   4.480   3.858
   15MNF    H22  632   2.429   4.525   4.107
   15MNF    H23  633   2.191   4.683   4.057
   15MNF    H24  634   1.972   4.580   3.985
   15MNF    H25  635   2.062   4.456   3.895
   15MNF    H26  636   2.175   4.424   4.111
   15MNF    H27  637   2.261   4.872   3.917
   15MNF    H28  638   2.290   4.929   3.690
   15MNF    H29  639   2.367   4.682   3.701
   15MNF    H30  640   2.563   4.800   3.736
   16MON      O  641   3.691   4.739   4.565
   16MON      C  642   3.575   4.772   4.554
   16MON     C1  643   3.517   4.868   4.450
   16MON      H  644   3.559   4.968   4.466
   16MON     C2  645   3.365   4.871   4.479
   16MON     C3  646   3.294   4.818   4.352
   16MON     C4  647   3.269   4.668   4.358
   16MON     C6  648   3.395   4.849   4.240
   16MON     C7  649   3.534   4.821   4.302
   16MON     C8  650   3.653   4.888   4.233
   16MON     H1  651   3.333   4.973   4.502
   16MON      N  652   3.470   4.730   4.635
   16MON    C10  653   3.491   4.655   4.761
   16MON    C11  654   3.526   4.505   4.745
   16MON    C12  655   3.453   4.425   4.633
   16MON    C13  656   3.299   4.432   4.632
   16MON     O1  657   3.248   4.415   4.766
   16MON    C14  658   3.105   4.396   4.777
   16MON    C15  659   3.028   4.531   4.774
   16MON     O2  660   3.035   4.590   4.644
   16MON    C16  661   2.879   4.510   4.812
   16MON    C17  662   2.798   4.642   4.823
   16MON     O3  663   2.782   4.701   4.693
   16MON     O4  664   2.872   4.444   4.940
   16MON    C18  665   2.931   4.313   4.942
   16MON     O5  666   2.917   4.259   5.072
   16MON    C19  667   3.081   4.326   4.912
   16MON     O6  668   3.142   4.196   4.909
   16MON    C20  669   3.346   4.785   4.603
   16MON     O7  670   3.241   4.767   4.663
   16MON     H2  671   3.203   4.875   4.335
   16MON     H3  672   3.357   4.611   4.387
   16MON     H6  673   3.387   4.955   4.214
   16MON     H7  674   3.373   4.790   4.151
   16MON     H8  675   3.552   4.713   4.303
   16MON     H9  676   3.719   4.944   4.300
   16MON    H12  677   3.400   4.662   4.822
   16MON    H13  678   3.572   4.704   4.818
   16MON    H14  679   3.634   4.497   4.724
   16MON    H15  680   3.511   4.455   4.841
   16MON    H16  681   3.489   4.459   4.536
   16MON    H17  682   3.483   4.320   4.642
   16MON    H18  683   3.260   4.353   4.566
   16MON    H19  684   3.268   4.528   4.591
   16MON    H20  685   3.067   4.331   4.697
   16MON    H21  686   3.073   4.599   4.848
   16MON    H22  687   3.114   4.650   4.644
   16MON    H23  688   2.830   4.447   4.736
   16MON    H24  689   2.700   4.620   4.867
   16MON    H25  690   2.850   4.711   4.891
   16MON    H26  691   2.870   4.694   4.651
   16MON    H27  692   2.882   4.248   4.869
   16MON    H28  693   2.987   4.190   5.073
   16MON    H29  694   3.126   4.388   4.991
   16MON    H30  695   3.232   4.210   4.875
   17MON      O  696   3.700   5.085   3.629
   17MON      C  697   3.638   5.046   3.727
   17MON     C1  698   3.600   4.902   3.759
   17MON      H  699   3.529   4.866   3.684
   17MON     C2  700   3.532   4.907   3.899
   17MON     C3  701   3.612   4.810   3.992
   17MON     C4  702   3.686   4.882   4.102
   17MON     C6  703   3.709   4.730   3.901
   17MON     C7  704   3.724   4.812   3.772
   17MON     C8  705   3.750   4.733   3.645
   17MON     H1  706   3.427   4.875   3.891
   17MON      N  707   3.598   5.125   3.834
   17MON    C10  708   3.610   5.272   3.832
   17MON    C11  709   3.756   5.325   3.841
   17MON    C12  710   3.851   5.252   3.939
   17MON    C13  711   3.804   5.242   4.086
   17MON     O1  712   3.759   5.371   4.128
   17MON    C14  713   3.724   5.383   4.268
   17MON    C15  714   3.577   5.341   4.293
   17MON     O2  715   3.565   5.198   4.285
   17MON    C16  716   3.528   5.388   4.433
   17MON    C17  717   3.376   5.369   4.454
   17MON     O3  718   3.343   5.230   4.450
   17MON     O4  719   3.555   5.528   4.450
   17MON    C18  720   3.694   5.563   4.444
   17MON     O5  721   3.708   5.702   4.466
   17MON    C19  722   3.745   5.532   4.303
   17MON     O6  723   3.884   5.564   4.293
   17MON    C20  724   3.535   5.056   3.937
   17MON     O7  725   3.488   5.107   4.037
   17MON     H2  726   3.543   4.736   4.035
   17MON     H3  727   3.776   4.934   4.070
   17MON     H6  728   3.667   4.631   3.881
   17MON     H7  729   3.806   4.714   3.950
   17MON     H8  730   3.811   4.878   3.788
   17MON     H9  731   3.840   4.766   3.592
   17MON    H12  732   3.553   5.313   3.916
   17MON    H13  733   3.564   5.310   3.740
   17MON    H14  734   3.800   5.320   3.741
   17MON    H15  735   3.752   5.432   3.866
   17MON    H16  736   3.870   5.150   3.902
   17MON    H17  737   3.948   5.303   3.937
   17MON    H18  738   3.888   5.207   4.148
   17MON    H19  739   3.724   5.168   4.093
   17MON    H20  740   3.791   5.323   4.331
   17MON    H21  741   3.514   5.390   4.217
   17MON    H22  742   3.549   5.173   4.191
   17MON    H23  743   3.581   5.331   4.511
   17MON    H24  744   3.347   5.412   4.551
   17MON    H25  745   3.321   5.423   4.376
   17MON    H26  746   3.403   5.191   4.384
   17MON    H27  747   3.751   5.507   4.520
   17MON    H28  748   3.795   5.721   4.425
   17MON    H29  749   3.686   5.593   4.232
   17MON    H30  750   3.913   5.530   4.206
   18MON      O  751   3.546   4.433   3.219
   18MON      C  752   3.502   4.498   3.312
   18MON     C1  753   3.458   4.443   3.448
   18MON      H  754   3.365   4.386   3.436
   18MON     C2  755   3.433   4.570   3.533
   18MON     C3  756   3.545   4.574   3.640
   18MON     C4  757   3.675   4.637   3.588
   18MON     C6  758   3.570   4.425   3.665
   18MON     C7  759   3.567   4.362   3.523
   18MON     C8  760   3.543   4.212   3.518
   18MON     H1  761   3.334   4.564   3.581
   18MON      N  762   3.483   4.636   3.314
   18MON    C10  763   3.487   4.718   3.191
   18MON    C11  764   3.628   4.759   3.144
   18MON    C12  765   3.726   4.816   3.251
   18MON    C13  766   3.676   4.935   3.337
   18MON     O1  767   3.602   5.026   3.254
   18MON    C14  768   3.571   5.153   3.316
   18MON    C15  769   3.427   5.152   3.375
   18MON     O2  770   3.420   5.068   3.490
   18MON    C16  771   3.384   5.296   3.415
   18MON    C17  772   3.237   5.307   3.460
   18MON     O3  773   3.219   5.240   3.585
   18MON     O4  774   3.400   5.384   3.301
   18MON    C18  775   3.535   5.396   3.254
   18MON     O5  776   3.539   5.485   3.145
   18MON    C19  777   3.582   5.258   3.205
   18MON     O6  778   3.718   5.266   3.160
   18MON    C20  779   3.435   4.686   3.434
   18MON     O7  780   3.397   4.800   3.457
   18MON     H2  781   3.509   4.626   3.729
   18MON     H3  782   3.710   4.597   3.494
   18MON     H6  783   3.488   4.384   3.725
   18MON     H7  784   3.664   4.406   3.718
   18MON     H8  785   3.663   4.381   3.474
   18MON     H9  786   3.523   4.174   3.418
   18MON    H12  787   3.428   4.810   3.208
   18MON    H13  788   3.437   4.663   3.110
   18MON    H14  789   3.676   4.672   3.099
   18MON    H15  790   3.618   4.832   3.063
   18MON    H16  791   3.757   4.735   3.317
   18MON    H17  792   3.817   4.848   3.198
   18MON    H18  793   3.764   4.984   3.381
   18MON    H19  794   3.615   4.898   3.420
   18MON    H20  795   3.643   5.178   3.396
   18MON    H21  796   3.358   5.117   3.297
   18MON    H22  797   3.425   4.974   3.461
   18MON    H23  798   3.448   5.332   3.497
   18MON    H24  799   3.209   5.413   3.470
   18MON    H25  800   3.172   5.263   3.383
   18MON    H26  801   3.275   5.160   3.581
   18MON    H27  802   3.600   5.433   3.335
   18MON    H28  803   3.622   5.460   3.100
   18MON    H29  804   3.516   5.229   3.122
   18MON    H30  805   3.747   5.174   3.149
   19MON      O  806   3.851   3.905   3.931
   19MON      C  807   3.806   3.917   3.818
   19MON     C1  808   3.680   3.851   3.764
   19MON      H  809   3.694   3.742   3.765
   19MON     C2  810   3.669   3.901   3.617
   19MON     C3  811   3.535   3.977   3.606
   19MON     C4  812   3.552   4.127   3.621
   19MON     C6  813   3.450   3.920   3.721
   19MON     C7  814   3.549   3.892   3.836
   19MON     C8  815   3.503   3.788   3.936
   19MON     H1  816   3.672   3.816   3.548
   19MON      N  817   3.865   3.989   3.715
   19MON    C10  818   4.008   4.029   3.720
   19MON    C11  819   4.040   4.158   3.799
   19MON    C12  820   3.946   4.280   3.776
   19MON    C13  821   3.916   4.319   3.630
   19MON     O1  822   4.034   4.308   3.550
   19MON    C14  823   4.012   4.326   3.408
   19MON    C15  824   4.104   4.228   3.331
   19MON     O2  825   4.065   4.092   3.355
   19MON    C16  826   4.101   4.257   3.177
   19MON    C17  827   4.207   4.178   3.098
   19MON     O3  828   4.178   4.038   3.101
   19MON     O4  829   4.127   4.397   3.154
   19MON    C18  830   4.035   4.488   3.216
   19MON     O5  831   4.072   4.620   3.185
   19MON    C19  832   4.048   4.471   3.369
   19MON     O6  833   3.964   4.565   3.436
   19MON    C20  834   3.795   3.985   3.595
   19MON     O7  835   3.830   4.033   3.488
   19MON     H2  836   3.488   3.955   3.509
   19MON     H3  837   3.575   4.162   3.722
   19MON     H6  838   3.404   3.827   3.686
   19MON     H7  839   3.371   3.989   3.751
   19MON     H8  840   3.569   3.986   3.890
   19MON     H9  841   3.581   3.753   4.003
   19MON    H12  842   4.044   4.041   3.617
   19MON    H13  843   4.065   3.946   3.764
   19MON    H14  844   4.038   4.134   3.906
   19MON    H15  845   4.143   4.188   3.776
   19MON    H16  846   3.851   4.261   3.827
   19MON    H17  847   3.991   4.367   3.827
   19MON    H18  848   3.876   4.421   3.628
   19MON    H19  849   3.837   4.253   3.592
   19MON    H20  850   3.907   4.305   3.380
   19MON    H21  851   4.207   4.243   3.365
   19MON    H22  852   3.978   4.091   3.402
   19MON    H23  853   4.002   4.231   3.137
   19MON    H24  854   4.209   4.213   2.994
   19MON    H25  855   4.306   4.197   3.141
   19MON    H26  856   4.146   4.018   3.192
   19MON    H27  857   3.932   4.467   3.183
   19MON    H28  858   4.034   4.670   3.260
   19MON    H29  859   4.154   4.488   3.394
   19MON    H30  860   3.979   4.549   3.531
   20MON      O  861   2.877   3.693   4.129
   20MON      C  862   2.997   3.711   4.133
   20MON     C1  863   3.106   3.603   4.134
   20MON      H  864   3.088   3.532   4.215
   20MON     C2  865   3.239   3.680   4.156
   20MON     C3  866   3.339   3.631   4.047
   20MON     C4  867   3.378   3.738   3.947
   20MON     C6  868   3.270   3.513   3.976
   20MON     C7  869   3.119   3.532   3.997
   20MON     C8  870   3.039   3.404   3.984
   20MON     H1  871   3.278   3.660   4.256
   20MON      N  872   3.061   3.835   4.135
   20MON    C10  873   2.986   3.962   4.145
   20MON    C11  874   2.914   4.006   4.015
   20MON    C12  875   2.994   3.993   3.882
   20MON    C13  876   3.129   4.067   3.875
   20MON     O1  877   3.110   4.203   3.917
   20MON    C14  878   3.228   4.287   3.917
   20MON    C15  879   3.308   4.268   4.050
   20MON     O2  880   3.386   4.149   4.042
   20MON    C16  881   3.406   4.387   4.076
   20MON    C17  882   3.463   4.386   4.220
   20MON     O3  883   3.562   4.284   4.232
   20MON     O4  884   3.340   4.514   4.058
   20MON    C18  885   3.288   4.533   3.926
   20MON     O5  886   3.234   4.663   3.915
   20MON    C19  887   3.175   4.431   3.904
   20MON     O6  888   3.119   4.449   3.773
   20MON    C20  889   3.200   3.828   4.149
   20MON     O7  890   3.274   3.924   4.160
   20MON     H2  891   3.430   3.595   4.097
   20MON     H3  892   3.298   3.772   3.882
   20MON     H6  893   3.304   3.419   4.020
   20MON     H7  894   3.294   3.511   3.869
   20MON     H8  895   3.085   3.602   3.920
   20MON     H9  896   2.954   3.411   3.916
   20MON    H12  897   3.056   4.042   4.174
   20MON    H13  898   2.912   3.953   4.225
   20MON    H14  899   2.823   3.946   4.005
   20MON    H15  900   2.882   4.110   4.027
   20MON    H16  901   3.011   3.887   3.861
   20MON    H17  902   2.930   4.030   3.801
   20MON    H18  903   3.165   4.064   3.772
   20MON    H19  904   3.201   4.015   3.939
   20MON    H20  905   3.293   4.264   3.832
   20MON    H21  906   3.236   4.264   4.133
   20MON    H22  907   3.334   4.074   4.081
   20MON    H23  908   3.490   4.380   4.006
   20MON    H24  909   3.508   4.484   4.240
   20MON    H25  910   3.382   4.370   4.292
   20MON    H26  911   3.528   4.205   4.186
   20MON    H27  912   3.366   4.519   3.852
   20MON    H28  913   3.165   4.651   3.846
   20MON    H29  914   3.099   4.447   3.982
   20MON    H30  915   3.058   4.373   3.761
   21MON      O  916   3.366   2.904   4.002
   21MON      C  917   3.275   2.969   3.953
   21MON     C1  918   3.127   2.956   3.986
   21MON      H  919   3.092   2.859   3.949
   21MON     C2  920   3.057   3.069   3.908
   21MON     C3  921   2.987   3.159   4.013
   21MON     C4  922   3.067   3.285   4.041
   21MON     C6  923   2.972   3.068   4.137
   21MON     C7  924   3.094   2.974   4.136
   21MON     C8  925   3.078   2.836   4.199
   21MON     H1  926   2.982   3.026   3.839
   21MON      N  927   3.288   3.062   3.851
   21MON    C10  928   3.383   3.034   3.741
   21MON    C11  929   3.532   3.071   3.766
   21MON    C12  930   3.559   3.214   3.818
   21MON    C13  931   3.476   3.326   3.754
   21MON     O1  932   3.477   3.313   3.611
   21MON    C14  933   3.390   3.404   3.541
   21MON    C15  934   3.322   3.329   3.423
   21MON     O2  935   3.231   3.229   3.472
   21MON    C16  936   3.246   3.428   3.330
   21MON    C17  937   3.196   3.362   3.199
   21MON     O3  938   3.090   3.270   3.228
   21MON     O4  939   3.334   3.536   3.291
   21MON    C18  940   3.387   3.613   3.400
   21MON     O5  941   3.470   3.714   3.349
   21MON    C19  942   3.475   3.519   3.485
   21MON     O6  943   3.538   3.591   3.591
   21MON    C20  944   3.169   3.131   3.823
   21MON     O7  945   3.155   3.218   3.738
   21MON     H2  946   2.888   3.187   3.976
   21MON     H3  947   3.152   3.274   4.108
   21MON     H6  948   2.880   3.008   4.126
   21MON     H7  949   2.964   3.125   4.230
   21MON     H8  950   3.178   3.027   4.182
   21MON     H9  951   3.153   2.764   4.165
   21MON    H12  952   3.350   3.086   3.650
   21MON    H13  953   3.378   2.927   3.718
   21MON    H14  954   3.575   2.999   3.837
   21MON    H15  955   3.586   3.057   3.672
   21MON    H16  956   3.540   3.215   3.926
   21MON    H17  957   3.666   3.236   3.806
   21MON    H18  958   3.515   3.423   3.786
   21MON    H19  959   3.373   3.319   3.792
   21MON    H20  960   3.312   3.444   3.607
   21MON    H21  961   3.400   3.280   3.364
   21MON    H22  962   3.214   3.244   3.568
   21MON    H23  963   3.159   3.469   3.383
   21MON    H24  964   3.159   3.440   3.131
   21MON    H25  965   3.279   3.311   3.150
   21MON    H26  966   3.118   3.220   3.308
   21MON    H27  967   3.307   3.656   3.460
   21MON    H28  968   3.543   3.716   3.414
   21MON    H29  969   3.551   3.475   3.418
   21MON    H30  970   3.582   3.523   3.645
   22MON      O  971   3.007   2.666   4.784
   22MON      C  972   3.045   2.658   4.669
   22MON     C1  973   2.985   2.569   4.560
   22MON      H  974   2.996   2.464   4.590
   22MON     C2  975   3.070   2.598   4.433
   22MON     C3  976   2.972   2.646   4.322
   22MON     C4  977   2.983   2.793   4.283
   22MON     C6  978   2.831   2.608   4.372
   22MON     C7  979   2.838   2.604   4.526
   22MON     C8  980   2.739   2.506   4.587
   22MON     H1  981   3.120   2.506   4.402
   22MON      N  982   3.152   2.727   4.613
   22MON    C10  983   3.250   2.799   4.697
   22MON    C11  984   3.205   2.938   4.747
   22MON    C12  985   3.126   3.028   4.648
   22MON    C13  986   3.186   3.044   4.507
   22MON     O1  987   3.328   3.062   4.517
   22MON    C14  988   3.399   3.057   4.391
   22MON    C15  989   3.537   2.990   4.411
   22MON     O2  990   3.520   2.852   4.448
   22MON    C16  991   3.623   3.001   4.282
   22MON    C17  992   3.770   2.955   4.303
   22MON     O3  993   3.774   2.814   4.329
   22MON     O4  994   3.629   3.139   4.239
   22MON    C18  995   3.501   3.198   4.210
   22MON     O5  996   3.518   3.332   4.169
   22MON    C19  997   3.421   3.202   4.341
   22MON     O6  998   3.298   3.272   4.321
   22MON    C20  999   3.177   2.697   4.479
   22MON     O7 1000   3.272   2.736   4.413
   22MON     H2 1001   2.993   2.587   4.231
   22MON     H3 1002   2.905   2.860   4.320
   22MON     H6 1003   2.807   2.508   4.334
   22MON     H7 1004   2.753   2.676   4.336
   22MON     H8 1005   2.817   2.705   4.563
   22MON     H9 1006   2.668   2.550   4.657
   22MON    H12 1007   3.342   2.812   4.640
   22MON    H13 1008   3.274   2.736   4.784
   22MON    H14 1009   3.142   2.924   4.836
   22MON    H15 1010   3.293   2.993   4.782
   22MON    H16 1011   3.024   2.988   4.637
   22MON    H17 1012   3.114   3.127   4.693
   22MON    H18 1013   3.138   3.130   4.458
   22MON    H19 1014   3.162   2.956   4.448
   22MON    H20 1015   3.344   2.999   4.316
   22MON    H21 1016   3.590   3.043   4.492
   22MON    H22 1017   3.429   2.824   4.424
   22MON    H23 1018   3.579   2.939   4.203
   22MON    H24 1019   3.828   2.978   4.213
   22MON    H25 1020   3.814   3.011   4.386
   22MON    H26 1021   3.698   2.794   4.387
   22MON    H27 1022   3.448   3.140   4.133
   22MON    H28 1023   3.437   3.371   4.208
   22MON    H29 1024   3.483   3.254   4.416
   22MON    H30 1025   3.251   3.264   4.407
   23MON      O 1026   2.577   1.912   4.327
   23MON      C 1027   2.570   2.025   4.372
   23MON     C1 1028   2.572   2.063   4.520
   23MON      H 1029   2.497   2.005   4.573
   23MON     C2 1030   2.536   2.213   4.524
   23MON     C3 1031   2.635   2.279   4.625
   23MON     C4 1032   2.735   2.374   4.561
   23MON     C6 1033   2.707   2.160   4.693
   23MON     C7 1034   2.710   2.048   4.588
   23MON     C8 1035   2.736   1.903   4.630
   23MON     H1 1036   2.433   2.225   4.558
   23MON      N 1037   2.555   2.142   4.299
   23MON    C10 1038   2.507   2.138   4.159
   23MON    C11 1039   2.612   2.096   4.054
   23MON    C12 1040   2.756   2.150   4.072
   23MON    C13 1041   2.768   2.301   4.101
   23MON     O1 1042   2.681   2.374   4.012
   23MON    C14 1043   2.670   2.515   4.042
   23MON    C15 1044   2.524   2.561   4.015
   23MON     O2 1045   2.434   2.499   4.108
   23MON    C16 1046   2.512   2.716   4.025
   23MON    C17 1047   2.375   2.769   3.979
   23MON     O3 1048   2.274   2.735   4.075
   23MON     O4 1049   2.612   2.778   3.941
   23MON    C18 1050   2.748   2.744   3.973
   23MON     O5 1051   2.836   2.809   3.884
   23MON    C19 1052   2.766   2.593   3.950
   23MON     O6 1053   2.903   2.557   3.972
   23MON    C20 1054   2.543   2.257   4.378
   23MON     O7 1055   2.533   2.372   4.335
   23MON     H2 1056   2.577   2.334   4.701
   23MON     H3 1057   2.805   2.328   4.492
   23MON     H6 1058   2.645   2.129   4.779
   23MON     H7 1059   2.807   2.187   4.729
   23MON     H8 1060   2.787   2.075   4.514
   23MON     H9 1061   2.733   1.836   4.544
   23MON    H12 1062   2.470   2.238   4.132
   23MON    H13 1063   2.421   2.070   4.153
   23MON    H14 1064   2.617   1.987   4.053
   23MON    H15 1065   2.575   2.125   3.955
   23MON    H16 1066   2.804   2.096   4.154
   23MON    H17 1067   2.813   2.127   3.982
   23MON    H18 1068   2.873   2.332   4.088
   23MON    H19 1069   2.741   2.320   4.205
   23MON    H20 1070   2.694   2.536   4.147
   23MON    H21 1071   2.497   2.531   3.912
   23MON    H22 1072   2.485   2.461   4.183
   23MON    H23 1073   2.528   2.747   4.129
   23MON    H24 1074   2.380   2.878   3.967
   23MON    H25 1075   2.350   2.727   3.880
   23MON    H26 1076   2.287   2.641   4.097
   23MON    H27 1077   2.772   2.771   4.077
   23MON    H28 1078   2.906   2.742   3.877
   23MON    H29 1079   2.737   2.573   3.845
   23MON    H30 1080   2.909   2.462   3.951
   24MNL      O 1081   2.528   1.564   5.075
   24MNL      C 1082   2.547   1.674   5.027
   24MNL     C1 1083   2.659   1.771   5.065
   24MNL      H 1084   2.647   1.801   5.170
   24MNL     C2 1085   2.640   1.894   4.972
   24MNL     C3 1086   2.770   1.907   4.888
   24MNL     C4 1087   2.759   1.845   4.749
   24MNL     C6 1088   2.876   1.832   4.972
   24MNL     C7 1089   2.800   1.715   5.038
   24MNL     C8 1090   2.864   1.656   5.164
   24MNL     H1 1091   2.623   1.984   5.032
   24MNL      N 1092   2.472   1.734   4.927
   24MNL    C10 1093   2.345   1.675   4.878
   24MNL    C11 1094   2.364   1.557   4.779
   24MNL    C12 1095   2.462   1.580   4.661
   24MNL    C13 1096   2.431   1.700   4.570
   24MNL     O1 1097   2.293   1.694   4.530
   24MNL    C14 1098   2.253   1.796   4.436
   24MNL    C15 1099   2.168   1.904   4.508
   24MNL     O2 1100   2.250   1.979   4.599
   24MNL    C16 1101   2.103   2.000   4.405
   24MNL    C17 1102   2.006   2.102   4.467
   24MNL     O3 1103   2.078   2.196   4.548
   24MNL     O4 1104   2.028   1.923   4.309
   24MNL    C18 1105   2.107   1.830   4.232
   24MNL     O5 1106   2.022   1.761   4.142
   24MNL    C19 1107   2.168   1.726   4.328
   24MNL     O6 1108   2.251   1.636   4.254
   24MNL    C20 1109   2.512   1.863   4.892
   24MNL     O7 1110   2.453   1.939   4.818
   24MNL     H2 1111   2.802   2.012   4.882
   24MNL     H3 1112   2.773   1.737   4.749
   24MNL     H6 1113   2.913   1.900   5.050
   24MNL     H7 1114   2.961   1.798   4.913
   24MNL     H8 1115   2.791   1.634   4.965
   24MNL     H9 1116   2.802   1.582   5.214
   24MNL    H12 1117   2.286   1.753   4.829
   24MNL    H13 1118   2.287   1.640   4.965
   24MNL    H14 1119   2.399   1.470   4.836
   24MNL    H15 1120   2.265   1.529   4.740
   24MNL    H16 1121   2.564   1.592   4.701
   24MNL    H17 1122   2.464   1.489   4.600
   24MNL    H18 1123   2.497   1.696   4.482
   24MNL    H19 1124   2.452   1.793   4.623
   24MNL    H20 1125   2.339   1.843   4.387
   24MNL    H21 1126   2.087   1.854   4.563
   24MNL    H22 1127   2.292   1.917   4.662
   24MNL    H23 1128   2.182   2.056   4.352
   24MNL    H24 1129   1.952   2.155   4.387
   24MNL    H25 1130   1.931   2.049   4.528
   24MNL    H26 1131   2.144   2.144   4.598
   24MNL    H27 1132   2.185   1.883   4.177
   24MNL    H28 1133   2.075   1.681   4.121
   24MNL    H29 1134   2.086   1.673   4.377
   24MNL    H30 1135   2.302   1.585   4.321
   25CPT     CC 1136   2.984   1.688   5.215
   25CPT    HC1 1137   3.051   1.760   5.168
   25CPT    HC2 1138   3.020   1.640   5.305
   26CPH     CC 1139   4.234   6.448   2.521
   26CPH    HC1 1140   4.306   6.404   2.452
   26CPH    HC2 1141   4.275   6.505   2.605
   27MNF      O 1142   3.711   6.663   2.270
   27MNF      C 1143   3.804   6.659   2.349
   27MNF     C1 1144   3.801   6.600   2.490
   27MNF      H 1145   3.724   6.651   2.549
   27MNF     C2 1146   3.941   6.628   2.550
   27MNF     C3 1147   3.997   6.491   2.597
   27MNF     C4 1148   4.102   6.433   2.504
   27MNF     C6 1149   3.873   6.399   2.605
   27MNF     C7 1150   3.780   6.447   2.491
   27MNF     C8 1151   3.634   6.410   2.505
   27MNF     H1 1152   3.932   6.697   2.634
   27MNF      N 1153   3.932   6.710   2.328
   27MNF    C10 1154   3.963   6.797   2.213
   27MNF    C11 1155   3.975   6.726   2.075
   27MNF    C12 1156   4.028   6.580   2.074
   27MNF    C13 1157   4.160   6.552   2.150
   27MNF     O1 1158   4.250   6.662   2.133
   27MNF    C14 1159   4.363   6.665   2.223
   27MNF    C15 1160   4.410   6.813   2.223
   27MNF     O2 1161   4.316   6.893   2.296
   27MNF    C16 1162   4.552   6.831   2.283
   27MNF    C17 1163   4.610   6.972   2.261
   27MNF     O3 1164   4.535   7.069   2.335
   27MNF     O4 1165   4.642   6.738   2.217
   27MNF    C18 1166   4.609   6.601   2.240
   27MNF     O5 1167   4.708   6.519   2.179
   27MNF    C19 1168   4.474   6.568   2.173
   27MNF     O6 1169   4.443   6.432   2.206
   27MNF    C20 1170   4.018   6.698   2.437
   27MNF     O7 1171   4.131   6.744   2.445
   27MNF     H2 1172   4.042   6.502   2.697
   27MNF     H3 1173   4.064   6.375   2.420
   27MNF     H6 1174   3.823   6.415   2.701
   27MNF     H7 1175   3.899   6.293   2.596
   27MNF     H8 1176   3.818   6.407   2.396
   27MNF     H9 1177   3.568   6.468   2.440
   27MNF    H12 1178   4.058   6.848   2.232
   27MNF    H13 1179   3.886   6.875   2.206
   27MNF    H14 1180   3.875   6.724   2.029
   27MNF    H15 1181   4.037   6.788   2.009
   27MNF    H16 1182   3.951   6.514   2.113
   27MNF    H17 1183   4.043   6.551   1.969
   27MNF    H18 1184   4.203   6.460   2.111
   27MNF    H19 1185   4.138   6.538   2.256
   27MNF    H20 1186   4.334   6.637   2.325
   27MNF    H21 1187   4.414   6.847   2.118
   27MNF    H22 1188   4.257   6.832   2.346
   27MNF    H23 1189   4.550   6.810   2.391
   27MNF    H24 1190   4.715   6.973   2.293
   27MNF    H25 1191   4.609   6.996   2.154
   27MNF    H26 1192   4.441   7.041   2.328
   27MNF    H27 1193   4.605   6.580   2.348
   27MNF    H28 1194   4.663   6.433   2.174
   27MNF    H29 1195   4.486   6.582   2.065
   27MNF    H30 1196   4.364   6.402   2.155
   28MON      O 1197   3.341   5.825   2.566
   28MON      C 1198   3.377   5.938   2.535
   28MON     C1 1199   3.323   6.068   2.593
   28MON      H 1200   3.213   6.068   2.591
   28MON     C2 1201   3.378   6.180   2.501
   28MON     C3 1202   3.431   6.293   2.594
   28MON     C4 1203   3.581   6.317   2.586
   28MON     C6 1204   3.387   6.252   2.737
   28MON     C7 1205   3.376   6.098   2.734
   28MON     C8 1206   3.289   6.036   2.842
   28MON     H1 1207   3.299   6.217   2.436
   28MON      N 1208   3.471   5.971   2.439
   28MON    C10 1209   3.530   5.868   2.350
   28MON    C11 1210   3.642   5.782   2.414
   28MON    C12 1211   3.739   5.853   2.512
   28MON    C13 1212   3.805   5.984   2.462
   28MON     O1 1213   3.841   5.968   2.324
   28MON    C14 1214   3.885   6.089   2.257
   28MON    C15 1215   3.838   6.082   2.109
   28MON     O2 1216   3.695   6.091   2.102
   28MON    C16 1217   3.903   6.194   2.023
   28MON    C17 1218   3.877   6.177   1.872
   28MON     O3 1219   3.739   6.200   1.842
   28MON     O4 1220   4.046   6.194   2.042
   28MON    C18 1221   4.088   6.215   2.178
   28MON     O5 1222   4.229   6.219   2.184
   28MON    C19 1223   4.039   6.096   2.263
   28MON     O6 1224   4.086   6.112   2.397
   28MON    C20 1225   3.481   6.108   2.413
   28MON     O7 1226   3.552   6.159   2.327
   28MON     H2 1227   3.379   6.386   2.568
   28MON     H3 1228   3.643   6.256   2.651
   28MON     H6 1229   3.289   6.296   2.757
   28MON     H7 1230   3.457   6.288   2.814
   28MON     H8 1231   3.478   6.056   2.742
   28MON     H9 1232   3.265   5.931   2.824
   28MON    H12 1233   3.572   5.918   2.262
   28MON    H13 1234   3.451   5.802   2.315
   28MON    H14 1235   3.594   5.700   2.469
   28MON    H15 1236   3.699   5.735   2.334
   28MON    H16 1237   3.685   5.875   2.605
   28MON    H17 1238   3.818   5.782   2.539
   28MON    H18 1239   3.892   6.006   2.525
   28MON    H19 1240   3.734   6.067   2.475
   28MON    H20 1241   3.841   6.178   2.304
   28MON    H21 1242   3.871   5.985   2.068
   28MON    H22 1243   3.660   6.116   2.190
   28MON    H23 1244   3.862   6.292   2.054
   28MON    H24 1245   3.939   6.249   1.817
   28MON    H25 1246   3.907   6.077   1.841
   28MON    H26 1247   3.688   6.155   1.913
   28MON    H27 1248   4.046   6.308   2.216
   28MON    H28 1249   4.246   6.187   2.275
   28MON    H29 1250   4.080   6.004   2.218
   28MON    H30 1251   4.057   6.033   2.447
   29MON      O 1252   3.195   6.153   3.498
   29MON      C 1253   3.227   6.099   3.394
   29MON     C1 1254   3.137   6.015   3.303
   29MON      H 1255   3.106   5.925   3.357
   29MON     C2 1256   3.226   5.978   3.181
   29MON     C3 1257   3.154   6.027   3.053
   29MON     C4 1258   3.242   6.097   2.952
   29MON     C6 1259   3.035   6.115   3.098
   29MON     C7 1260   3.016   6.096   3.251
   29MON     C8 1261   2.882   6.037   3.292
   29MON     H1 1262   3.242   5.869   3.177
   29MON      N 1263   3.351   6.110   3.332
   29MON    C10 1264   3.467   6.173   3.398
   29MON    C11 1265   3.463   6.328   3.400
   29MON    C12 1266   3.416   6.399   3.270
   29MON    C13 1267   3.494   6.367   3.140
   29MON     O1 1268   3.635   6.365   3.170
   29MON    C14 1269   3.723   6.353   3.056
   29MON    C15 1270   3.750   6.203   3.023
   29MON     O2 1271   3.635   6.143   2.963
   29MON    C16 1272   3.870   6.190   2.924
   29MON    C17 1273   3.915   6.044   2.900
   29MON     O3 1274   3.819   5.977   2.817
   29MON     O4 1275   3.984   6.262   2.974
   29MON    C18 1276   3.962   6.403   2.989
   29MON     O5 1277   4.081   6.464   3.035
   29MON    C19 1278   3.853   6.424   3.096
   29MON     O6 1279   3.827   6.564   3.111
   29MON    C20 1280   3.362   6.042   3.211
   29MON     O7 1281   3.464   6.032   3.144
   29MON     H2 1282   3.112   5.938   3.004
   29MON     H3 1283   3.266   6.201   2.974
   29MON     H6 1284   2.943   6.089   3.043
   29MON     H7 1285   3.056   6.221   3.078
   29MON     H8 1286   3.021   6.197   3.296
   29MON     H9 1287   2.824   6.103   3.355
   29MON    H12 1288   3.559   6.142   3.347
   29MON    H13 1289   3.473   6.136   3.501
   29MON    H14 1290   3.395   6.359   3.480
   29MON    H15 1291   3.562   6.365   3.429
   29MON    H16 1292   3.310   6.378   3.253
   29MON    H17 1293   3.422   6.508   3.287
   29MON    H18 1294   3.471   6.444   3.065
   29MON    H19 1295   3.461   6.271   3.100
   29MON    H20 1296   3.681   6.403   2.967
   29MON    H21 1297   3.777   6.151   3.116
   29MON    H22 1298   3.576   6.110   3.035
   29MON    H23 1299   3.840   6.231   2.827
   29MON    H24 1300   4.013   6.044   2.851
   29MON    H25 1301   3.926   5.993   2.996
   29MON    H26 1302   3.732   5.994   2.859
   29MON    H27 1303   3.932   6.448   2.894
   29MON    H28 1304   4.048   6.545   3.079
   29MON    H29 1305   3.890   6.381   3.190
   29MON    H30 1306   3.752   6.571   3.173
   30MON      O 1307   2.554   5.563   3.337
   30MON      C 1308   2.671   5.597   3.322
   30MON     C1 1309   2.746   5.608   3.189
   30MON      H 1310   2.759   5.508   3.147
   30MON     C2 1311   2.884   5.666   3.230
   30MON     C3 1312   2.890   5.809   3.172
   30MON     C4 1313   2.830   5.917   3.261
   30MON     C6 1314   2.805   5.796   3.045
   30MON     C7 1315   2.686   5.704   3.083
   30MON     C8 1316   2.615   5.628   2.971
   30MON     H1 1317   2.964   5.604   3.188
   30MON      N 1318   2.761   5.626   3.425
   30MON    C10 1319   2.734   5.599   3.568
   30MON    C11 1320   2.653   5.706   3.645
   30MON    C12 1321   2.670   5.855   3.605
   30MON    C13 1322   2.812   5.916   3.611
   30MON     O1 1323   2.872   5.891   3.738
   30MON    C14 1324   2.993   5.967   3.763
   30MON    C15 1325   3.120   5.881   3.741
   30MON     O2 1326   3.136   5.849   3.602
   30MON    C16 1327   3.246   5.959   3.789
   30MON    C17 1328   3.377   5.878   3.779
   30MON     O3 1329   3.415   5.864   3.642
   30MON     O4 1330   3.227   5.996   3.928
   30MON    C18 1331   3.117   6.086   3.950
   30MON     O5 1332   3.109   6.117   4.087
   30MON    C19 1333   2.987   6.014   3.910
   30MON     O6 1334   2.875   6.101   3.927
   30MON    C20 1335   2.889   5.660   3.381
   30MON     O7 1336   2.987   5.679   3.451
   30MON     H2 1337   2.993   5.831   3.148
   30MON     H3 1338   2.731   5.894   3.299
   30MON     H6 1339   2.870   5.749   2.971
   30MON     H7 1340   2.772   5.894   3.006
   30MON     H8 1341   2.611   5.767   3.133
   30MON     H9 1342   2.533   5.567   3.010
   30MON    H12 1343   2.830   5.586   3.619
   30MON    H13 1344   2.682   5.503   3.576
   30MON    H14 1345   2.547   5.682   3.633
   30MON    H15 1346   2.674   5.695   3.753
   30MON    H16 1347   2.630   5.869   3.504
   30MON    H17 1348   2.606   5.915   3.671
   30MON    H18 1349   2.803   6.024   3.594
   30MON    H19 1350   2.875   5.877   3.530
   30MON    H20 1351   2.999   6.056   3.699
   30MON    H21 1352   3.111   5.789   3.800
   30MON    H22 1353   3.066   5.785   3.575
   30MON    H23 1354   3.258   6.050   3.729
   30MON    H24 1355   3.456   5.931   3.835
   30MON    H25 1356   3.363   5.780   3.827
   30MON    H26 1357   3.331   5.843   3.595
   30MON    H27 1358   3.130   6.177   3.891
   30MON    H28 1359   3.016   6.147   4.096
   30MON    H29 1360   2.977   5.925   3.974
   30MON    H30 1361   2.799   6.056   3.885
   31MON      O 1362   2.885   5.333   2.506
   31MON      C 1363   2.882   5.414   2.597
   31MON     C1 1364   2.863   5.564   2.583
   31MON      H 1365   2.946   5.605   2.526
   31MON     C2 1366   2.868   5.620   2.728
   31MON     C3 1367   2.736   5.698   2.751
   31MON     C4 1368   2.634   5.623   2.837
   31MON     C6 1369   2.684   5.726   2.609
   31MON     C7 1370   2.729   5.607   2.520
   31MON     C8 1371   2.745   5.627   2.369
   31MON     H1 1372   2.955   5.688   2.737
   31MON      N 1373   2.894   5.386   2.733
   31MON    C10 1374   2.924   5.250   2.783
   31MON    C11 1375   2.804   5.151   2.777
   31MON    C12 1376   2.663   5.208   2.807
   31MON    C13 1377   2.643   5.274   2.945
   31MON     O1 1378   2.673   5.178   3.047
   31MON    C14 1379   2.637   5.223   3.180
   31MON    C15 1380   2.758   5.205   3.274
   31MON     O2 1381   2.863   5.292   3.232
   31MON    C16 1382   2.715   5.236   3.420
   31MON    C17 1383   2.827   5.215   3.524
   31MON     O3 1384   2.922   5.322   3.515
   31MON     O4 1385   2.605   5.150   3.455
   31MON    C18 1386   2.486   5.169   3.376
   31MON     O5 1387   2.386   5.080   3.420
   31MON    C19 1388   2.519   5.136   3.229
   31MON     O6 1389   2.404   5.158   3.147
   31MON    C20 1390   2.893   5.497   2.816
   31MON     O7 1391   2.913   5.496   2.936
   31MON     H2 1392   2.756   5.796   2.794
   31MON     H3 1393   2.568   5.559   2.779
   31MON     H6 1394   2.734   5.817   2.577
   31MON     H7 1395   2.576   5.743   2.606
   31MON     H8 1396   2.657   5.526   2.537
   31MON     H9 1397   2.775   5.534   2.320
   31MON    H12 1398   2.957   5.257   2.887
   31MON    H13 1399   3.007   5.208   2.725
   31MON    H14 1400   2.802   5.107   2.677
   31MON    H15 1401   2.825   5.067   2.845
   31MON    H16 1402   2.638   5.282   2.729
   31MON    H17 1403   2.590   5.127   2.796
   31MON    H18 1404   2.539   5.307   2.952
   31MON    H19 1405   2.706   5.362   2.955
   31MON    H20 1406   2.605   5.328   3.181
   31MON    H21 1407   2.791   5.100   3.270
   31MON    H22 1408   2.876   5.277   3.136
   31MON    H23 1409   2.681   5.340   3.426
   31MON    H24 1410   2.782   5.214   3.625
   31MON    H25 1411   2.874   5.118   3.508
   31MON    H26 1412   2.948   5.327   3.420
   31MON    H27 1413   2.451   5.273   3.385
   31MON    H28 1414   2.324   5.080   3.345
   31MON    H29 1415   2.549   5.030   3.226
   31MON    H30 1416   2.431   5.138   3.055
   32MON      O 1417   3.009   6.072   2.077
   32MON      C 1418   2.958   6.029   2.178
   32MON     C1 1419   2.821   6.066   2.233
   32MON      H 1420   2.823   6.171   2.264
   32MON     C2 1421   2.801   5.974   2.357
   32MON     C3 1422   2.685   5.876   2.324
   32MON     C4 1423   2.730   5.735   2.289
   32MON     C6 1424   2.608   5.942   2.207
   32MON     C7 1425   2.705   6.038   2.135
   32MON     C8 1426   2.638   6.166   2.088
   32MON     H1 1427   2.777   6.034   2.445
   32MON      N 1428   3.017   5.939   2.267
   32MON    C10 1429   3.159   5.900   2.256
   32MON    C11 1430   3.189   5.791   2.150
   32MON    C12 1431   3.099   5.665   2.156
   32MON    C13 1432   3.101   5.590   2.291
   32MON     O1 1433   3.229   5.528   2.310
   32MON    C14 1434   3.233   5.434   2.420
   32MON    C15 1435   3.284   5.502   2.550
   32MON     O2 1436   3.191   5.600   2.597
   32MON    C16 1437   3.308   5.395   2.661
   32MON    C17 1438   3.372   5.453   2.789
   32MON     O3 1439   3.279   5.537   2.858
   32MON     O4 1440   3.397   5.294   2.610
   32MON    C18 1441   3.348   5.222   2.496
   32MON     O5 1442   3.444   5.126   2.456
   32MON    C19 1443   3.328   5.321   2.379
   32MON     O6 1444   3.274   5.252   2.266
   32MON    C20 1445   2.939   5.911   2.379
   32MON     O7 1446   2.978   5.857   2.482
   32MON     H2 1447   2.614   5.871   2.407
   32MON     H3 1448   2.750   5.721   2.182
   32MON     H6 1449   2.524   5.998   2.249
   32MON     H7 1450   2.566   5.868   2.138
   32MON     H8 1451   2.746   5.984   2.047
   32MON     H9 1452   2.654   6.189   1.982
   32MON    H12 1453   3.193   5.863   2.353
   32MON    H13 1454   3.219   5.990   2.233
   32MON    H14 1455   3.177   5.836   2.050
   32MON    H15 1456   3.294   5.761   2.158
   32MON    H16 1457   2.996   5.694   2.134
   32MON    H17 1458   3.129   5.596   2.077
   32MON    H18 1459   3.022   5.514   2.289
   32MON    H19 1460   3.080   5.660   2.372
   32MON    H20 1461   3.133   5.390   2.439
   32MON    H21 1462   3.381   5.549   2.528
   32MON    H22 1463   3.229   5.688   2.572
   32MON    H23 1464   3.212   5.349   2.688
   32MON    H24 1465   3.403   5.370   2.854
   32MON    H25 1466   3.463   5.509   2.763
   32MON    H26 1467   3.230   5.585   2.788
   32MON    H27 1468   3.253   5.172   2.521
   32MON    H28 1469   3.417   5.108   2.364
   32MON    H29 1470   3.426   5.364   2.355
   32MON    H30 1471   3.243   5.321   2.205
   33MON      O 1472   2.090   6.458   2.341
   33MON      C 1473   2.173   6.405   2.269
   33MON     C1 1474   2.288   6.474   2.198
   33MON      H 1475   2.250   6.560   2.141
   33MON     C2 1476   2.347   6.368   2.102
   33MON     C3 1477   2.501   6.376   2.114
   33MON     C4 1478   2.566   6.248   2.165
   33MON     C6 1479   2.530   6.496   2.208
   33MON     C7 1480   2.402   6.517   2.293
   33MON     C8 1481   2.379   6.658   2.344
   33MON     H1 1482   2.315   6.390   1.999
   33MON      N 1483   2.177   6.270   2.235
   33MON    C10 1484   2.056   6.185   2.249
   33MON    C11 1485   2.026   6.133   2.391
   33MON    C12 1486   2.146   6.084   2.476
   33MON    C13 1487   2.245   5.990   2.405
   33MON     O1 1488   2.174   5.891   2.329
   33MON    C14 1489   2.256   5.813   2.239
   33MON    C15 1490   2.173   5.780   2.112
   33MON     O2 1491   2.147   5.900   2.038
   33MON    C16 1492   2.247   5.678   2.021
   33MON    C17 1493   2.160   5.625   1.905
   33MON     O3 1494   2.136   5.730   1.811
   33MON     O4 1495   2.286   5.563   2.100
   33MON    C18 1496   2.374   5.592   2.209
   33MON     O5 1497   2.407   5.472   2.276
   33MON    C19 1498   2.299   5.682   2.309
   33MON     O6 1499   2.383   5.708   2.422
   33MON    C20 1500   2.278   6.237   2.144
   33MON     O7 1501   2.300   6.126   2.099
   33MON     H2 1502   2.543   6.399   2.015
   33MON     H3 1503   2.548   6.226   2.270
   33MON     H6 1504   2.548   6.585   2.146
   33MON     H7 1505   2.618   6.480   2.271
   33MON     H8 1506   2.404   6.447   2.378
   33MON     H9 1507   2.276   6.678   2.373
   33MON    H12 1508   2.066   6.098   2.183
   33MON    H13 1509   1.969   6.242   2.213
   33MON    H14 1510   1.976   6.213   2.448
   33MON    H15 1511   1.952   6.052   2.383
   33MON    H16 1512   2.201   6.171   2.513
   33MON    H17 1513   2.106   6.032   2.565
   33MON    H18 1514   2.309   5.943   2.481
   33MON    H19 1515   2.310   6.049   2.340
   33MON    H20 1516   2.345   5.869   2.208
   33MON    H21 1517   2.078   5.735   2.144
   33MON    H22 1518   2.209   5.970   2.069
   33MON    H23 1519   2.337   5.725   1.979
   33MON    H24 1520   2.213   5.542   1.856
   33MON    H25 1521   2.066   5.586   1.945
   33MON    H26 1522   2.115   5.810   1.863
   33MON    H27 1523   2.465   5.641   2.174
   33MON    H28 1524   2.432   5.504   2.365
   33MON    H29 1525   2.208   5.628   2.340
   33MON    H30 1526   2.332   5.767   2.481
   34MON      O 1527   2.795   7.048   2.631
   34MON      C 1528   2.687   6.994   2.616
   34MON     C1 1529   2.568   7.050   2.539
   34MON      H 1530   2.529   7.137   2.592
   34MON     C2 1531   2.462   6.937   2.540
   34MON     C3 1532   2.431   6.899   2.392
   34MON     C4 1533   2.469   6.758   2.352
   34MON     C6 1534   2.503   7.004   2.303
   34MON     C7 1535   2.601   7.083   2.392
   34MON     C8 1536   2.604   7.233   2.365
   34MON     H1 1537   2.371   6.973   2.590
   34MON      N 1538   2.650   6.870   2.666
   34MON    C10 1539   2.723   6.808   2.779
   34MON    C11 1540   2.857   6.740   2.744
   34MON    C12 1541   2.868   6.671   2.605
   34MON    C13 1542   2.755   6.574   2.566
   34MON     O1 1543   2.723   6.490   2.679
   34MON    C14 1544   2.598   6.418   2.669
   34MON    C15 1545   2.537   6.404   2.810
   34MON     O2 1546   2.496   6.532   2.859
   34MON    C16 1547   2.415   6.307   2.811
   34MON    C17 1548   2.368   6.270   2.954
   34MON     O3 1549   2.308   6.383   3.017
   34MON     O4 1550   2.450   6.183   2.745
   34MON    C18 1551   2.494   6.198   2.610
   34MON     O5 1552   2.523   6.072   2.554
   34MON    C19 1553   2.625   6.278   2.612
   34MON     O6 1554   2.681   6.284   2.481
   34MON    C20 1555   2.523   6.827   2.627
   34MON     O7 1556   2.469   6.723   2.662
   34MON     H2 1557   2.323   6.911   2.378
   34MON     H3 1558   2.574   6.742   2.325
   34MON     H6 1559   2.429   7.070   2.256
   34MON     H7 1560   2.557   6.956   2.220
   34MON     H8 1561   2.702   7.043   2.371
   34MON     H9 1562   2.703   7.270   2.340
   34MON    H12 1563   2.658   6.733   2.825
   34MON    H13 1564   2.740   6.884   2.856
   34MON    H14 1565   2.936   6.816   2.749
   34MON    H15 1566   2.881   6.667   2.823
   34MON    H16 1567   2.875   6.748   2.528
   34MON    H17 1568   2.963   6.616   2.602
   34MON    H18 1569   2.787   6.516   2.479
   34MON    H19 1570   2.667   6.632   2.536
   34MON    H20 1571   2.526   6.472   2.604
   34MON    H21 1572   2.613   6.363   2.877
   34MON    H22 1573   2.483   6.594   2.784
   34MON    H23 1574   2.331   6.353   2.758
   34MON    H24 1575   2.295   6.188   2.947
   34MON    H25 1576   2.453   6.233   3.012
   34MON    H26 1577   2.365   6.460   2.996
   34MON    H27 1578   2.418   6.250   2.550
   34MON    H28 1579   2.590   6.098   2.487
   34MON    H29 1580   2.694   6.226   2.681
   34MON    H30 1581   2.754   6.349   2.488
   35MON      O 1582   2.370   7.728   2.473
   35MON      C 1583   2.358   7.612   2.509
   35MON     C1 1584   2.253   7.511   2.460
   35MON      H 1585   2.156   7.538   2.504
   35MON     C2 1586   2.300   7.377   2.520
   35MON     C3 1587   2.356   7.294   2.402
   35MON     C4 1588   2.503   7.321   2.371
   35MON     C6 1589   2.271   7.343   2.282
   35MON     C7 1590   2.245   7.494   2.305
   35MON     C8 1591   2.113   7.548   2.250
   35MON     H1 1592   2.216   7.325   2.567
   35MON      N 1593   2.435   7.548   2.606
   35MON    C10 1594   2.522   7.622   2.700
   35MON    C11 1595   2.663   7.656   2.646
   35MON    C12 1596   2.740   7.545   2.570
   35MON    C13 1597   2.759   7.409   2.642
   35MON     O1 1598   2.794   7.433   2.779
   35MON    C14 1599   2.841   7.316   2.850
   35MON    C15 1600   2.728   7.254   2.937
   35MON     O2 1601   2.626   7.196   2.854
   35MON    C16 1602   2.787   7.145   3.030
   35MON    C17 1603   2.684   7.084   3.129
   35MON     O3 1604   2.591   7.003   3.058
   35MON     O4 1605   2.893   7.202   3.109
   35MON    C18 1606   3.005   7.249   3.031
   35MON     O5 1607   3.103   7.301   3.118
   35MON    C19 1608   2.956   7.364   2.941
   35MON     O6 1609   3.064   7.410   2.859
   35MON    C20 1610   2.402   7.415   2.626
   35MON     O7 1611   2.442   7.343   2.717
   35MON     H2 1612   2.338   7.188   2.421
   35MON     H3 1613   2.525   7.425   2.348
   35MON     H6 1614   2.177   7.288   2.280
   35MON     H7 1615   2.323   7.323   2.187
   35MON     H8 1616   2.327   7.552   2.261
   35MON     H9 1617   2.058   7.610   2.320
   35MON    H12 1618   2.534   7.562   2.791
   35MON    H13 1619   2.471   7.715   2.729
   35MON    H14 1620   2.652   7.742   2.577
   35MON    H15 1621   2.724   7.692   2.729
   35MON    H16 1622   2.691   7.527   2.474
   35MON    H17 1623   2.839   7.584   2.546
   35MON    H18 1624   2.839   7.354   2.591
   35MON    H19 1625   2.669   7.349   2.634
   35MON    H20 1626   2.880   7.239   2.781
   35MON    H21 1627   2.685   7.333   3.000
   35MON    H22 1628   2.577   7.268   2.809
   35MON    H23 1629   2.827   7.063   2.968
   35MON    H24 1630   2.737   7.024   3.204
   35MON    H25 1631   2.632   7.165   3.182
   35MON    H26 1632   2.565   7.054   2.978
   35MON    H27 1633   3.047   7.167   2.971
   35MON    H28 1634   3.154   7.360   3.059
   35MON    H29 1635   2.919   7.444   3.006
   35MON    H30 1636   3.023   7.469   2.792
   36MNL      O 1637   1.691   7.393   1.835
   36MNL      C 1638   1.792   7.366   1.897
   36MNL     C1 1639   1.936   7.382   1.849
   36MNL      H 1640   1.953   7.317   1.761
   36MNL     C2 1641   2.025   7.335   1.967
   36MNL     C3 1642   2.114   7.455   2.008
   36MNL     C4 1643   2.058   7.532   2.128
   36MNL     C6 1644   2.115   7.544   1.882
   36MNL     C7 1645   1.975   7.528   1.818
   36MNL     C8 1646   1.965   7.561   1.670
   36MNL     H1 1647   2.086   7.250   1.936
   36MNL      N 1648   1.797   7.314   2.026
   36MNL    C10 1649   1.675   7.268   2.097
   36MNL    C11 1650   1.586   7.381   2.154
   36MNL    C12 1651   1.657   7.498   2.228
   36MNL    C13 1652   1.752   7.459   2.343
   36MNL     O1 1653   1.690   7.359   2.425
   36MNL    C14 1654   1.761   7.321   2.545
   36MNL    C15 1655   1.868   7.212   2.514
   36MNL     O2 1656   1.978   7.273   2.446
   36MNL    C16 1657   1.920   7.144   2.644
   36MNL    C17 1658   2.009   7.020   2.616
   36MNL     O3 1659   2.123   7.056   2.537
   36MNL     O4 1660   1.808   7.098   2.722
   36MNL    C18 1661   1.720   7.202   2.766
   36MNL     O5 1662   1.617   7.145   2.845
   36MNL    C19 1663   1.654   7.265   2.642
   36MNL     O6 1664   1.567   7.372   2.682
   36MNL    C20 1665   1.925   7.287   2.073
   36MNL     O7 1666   1.952   7.232   2.179
   36MNL     H2 1667   2.216   7.422   2.028
   36MNL     H3 1668   1.963   7.581   2.108
   36MNL     H6 1669   2.192   7.507   1.814
   36MNL     H7 1670   2.138   7.649   1.905
   36MNL     H8 1671   1.905   7.594   1.872
   36MNL     H9 1672   1.867   7.540   1.627
   36MNL    H12 1673   1.705   7.203   2.180
   36MNL    H13 1674   1.615   7.207   2.028
   36MNL    H14 1675   1.528   7.425   2.071
   36MNL    H15 1676   1.511   7.336   2.221
   36MNL    H16 1677   1.713   7.557   2.155
   36MNL    H17 1678   1.580   7.564   2.268
   36MNL    H18 1679   1.775   7.549   2.402
   36MNL    H19 1680   1.846   7.422   2.300
   36MNL    H20 1681   1.809   7.408   2.593
   36MNL    H21 1682   1.821   7.135   2.451
   36MNL    H22 1683   1.957   7.270   2.349
   36MNL    H23 1684   1.979   7.216   2.702
   36MNL    H24 1685   2.040   6.976   2.711
   36MNL    H25 1686   1.949   6.944   2.563
   36MNL    H26 1687   2.093   7.130   2.481
   36MNL    H27 1688   1.774   7.278   2.824
   36MNL    H28 1689   1.547   7.213   2.841
   36MNL    H29 1690   1.598   7.186   2.590
   36MNL    H30 1691   1.537   7.415   2.599
   37CPT     CC 1692   2.062   7.611   1.592
   37CPT    HC1 1693   2.161   7.636   1.629
   37CPT    HC2 1694   2.044   7.631   1.487
   38WAT      O 1695   7.958   8.464   6.240
   38WAT     H1 1696   7.880   8.416   6.269
   38WAT     H2 1697   8.023   8.396   6.222
   39WAT      O 1698   7.359   8.496   6.327
   39WAT     H1 1699   7.276   8.470   6.367
   39WAT     H2 1700   7.420   8.503   6.401
   40WAT      O 1701   7.357   8.899   6.347
   40WAT     H1 1702   7.388   8.810   6.329
   40WAT     H2 1703   7.432   8.955   6.324
   41WAT      O 1704   7.200   7.992   5.706
   41WAT     H1 1705   7.111   8.026   5.696
   41WAT     H2 1706   7.229   7.972   5.617
   42WAT      O 1707   6.997   8.252   6.294
   42WAT     H1 1708   7.054   8.175   6.294
   42WAT     H2 1709   6.997   8.282   6.203
   43WAT      O 1710   7.902   8.732   6.240
   43WAT     H1 1711   7.895   8.638   6.224
   43WAT     H2 1712   7.978   8.741   6.297
   44WAT      O 1713   7.121   7.792   6.473
   44WAT     H1 1714   7.103   7.703   6.501
   44WAT     H2 1715   7.081   7.847   6.540
   45WAT      O 1716   8.005   8.013   6.263
   45WAT     H1 1717   8.042   7.925   6.252
   45WAT     H2 1718   7.995   8.046   6.174
   46WAT      O 1719   7.418   7.850   5.809
   46WAT     H1 1720   7.429   7.940   5.840
   46WAT     H2 1721   7.327   7.845   5.780
   47WAT      O 1722   7.183   8.042   6.334
   47WAT     H1 1723   7.251   8.068   6.396
   47WAT     H2 1724   7.151   7.958   6.367
   48WAT      O 1725   7.602   8.147   6.242
   48WAT     H1 1726   7.653   8.197   6.306
   48WAT     H2 1727   7.655   8.069   6.225
   49WAT      O 1728   7.555   8.575   6.487
   49WAT     H1 1729   7.522   8.637   6.551
   49WAT     H2 1730   7.573   8.627   6.409
   50WAT      O 1731   7.398   7.782   6.470
   50WAT     H1 1732   7.433   7.866   6.440
   50WAT     H2 1733   7.305   7.797   6.481
   51WAT      O 1734   7.006   8.691   5.556
   51WAT     H1 1735   6.968   8.739   5.483
   51WAT     H2 1736   7.032   8.758   5.619
   52WAT      O 1737   7.767   7.531   6.102
   52WAT     H1 1738   7.798   7.475   6.031
   52WAT     H2 1739   7.674   7.544   6.084
   53WAT      O 1740   8.006   8.337   5.776
   53WAT     H1 1741   7.913   8.331   5.799
   53WAT     H2 1742   8.021   8.431   5.764
   54WAT      O 1743   8.004   7.964   5.475
   54WAT     H1 1744   7.910   7.980   5.484
   54WAT     H2 1745   8.036   8.036   5.421
   55WAT      O 1746   7.566   8.390   6.054
   55WAT     H1 1747   7.526   8.319   6.004
   55WAT     H2 1748   7.575   8.355   6.143
   56WAT      O 1749   7.613   8.758   6.270
   56WAT     H1 1750   7.583   8.698   6.202
   56WAT     H2 1751   7.708   8.762   6.259
   57WAT      O 1752   7.437   8.067   6.432
   57WAT     H1 1753   7.493   8.078   6.354
   57WAT     H2 1754   7.489   8.105   6.504
   58WAT      O 1755   7.236   8.279   5.804
   58WAT     H1 1756   7.224   8.352   5.743
   58WAT     H2 1757   7.205   8.202   5.756
   59WAT      O 1758   7.000   8.596   6.385
   59WAT     H1 1759   7.008   8.610   6.290
   59WAT     H2 1760   7.061   8.526   6.404
   60WAT      O 1761   7.125   8.766   6.026
   60WAT     H1 1762   7.084   8.781   5.940
   60WAT     H2 1763   7.214   8.738   6.005
   61WAT      O 1764   7.483   7.614   6.142
   61WAT     H1 1765   7.438   7.692   6.109
   61WAT     H2 1766   7.539   7.646   6.213
   62WAT      O 1767   7.794   7.576   5.630
   62WAT     H1 1768   7.732   7.575   5.703
   62WAT     H2 1769   7.786   7.489   5.591
   63WAT      O 1770   7.687   7.668   6.328
   63WAT     H1 1771   7.716   7.759   6.320
   63WAT     H2 1772   7.741   7.619   6.267
   64WAT      O 1773   7.462   8.126   5.915
   64WAT     H1 1774   7.439   8.104   6.006
   64WAT     H2 1775   7.384   8.169   5.881
   65WAT      O 1776   6.949   7.649   6.200
   65WAT     H1 1777   6.920   7.706   6.272
   65WAT     H2 1778   7.024   7.601   6.237
   66WAT      O 1779   6.968   8.043   5.321
   66WAT     H1 1780   6.960   8.138   5.336
   66WAT     H2 1781   6.933   8.029   5.233
   67WAT      O 1782   7.748   7.917   6.228
   67WAT     H1 1783   7.748   7.873   6.143
   67WAT     H2 1784   7.837   7.949   6.239
   68WAT      O 1785   7.333   7.905   6.124
   68WAT     H1 1786   7.299   7.953   6.200
   68WAT     H2 1787   7.257   7.860   6.088
   69WAT      O 1788   7.754   8.017   5.527
   69WAT     H1 1789   7.766   8.013   5.622
   69WAT     H2 1790   7.716   8.103   5.512
   70WAT      O 1791   7.655   8.248   5.467
   70WAT     H1 1792   7.598   8.203   5.404
   70WAT     H2 1793   7.726   8.284   5.414
   71WAT      O 1794   7.778   8.323   6.403
   71WAT     H1 1795   7.815   8.275   6.477
   71WAT     H2 1796   7.759   8.410   6.437
   72WAT      O 1797   7.064   7.797   6.016
   72WAT     H1 1798   7.036   7.761   6.099
   72WAT     H2 1799   7.058   7.724   5.954
   73WAT      O 1800   7.410   8.648   5.694
   73WAT     H1 1801   7.332   8.594   5.678
   73WAT     H2 1802   7.483   8.596   5.660
   74WAT      O 1803   8.032   7.687   5.688
   74WAT     H1 1804   7.950   7.637   5.680
   74WAT     H2 1805   8.012   7.771   5.646
   75WAT      O 1806   7.414   8.614   6.058
   75WAT     H1 1807   7.466   8.534   6.053
   75WAT     H2 1808   7.369   8.608   6.142
   76WAT      O 1809   7.903   8.741   5.585
   76WAT     H1 1810   7.937   8.815   5.536
   76WAT     H2 1811   7.820   8.772   5.622
   77WAT      O 1812   7.800   8.749   5.862
   77WAT     H1 1813   7.868   8.804   5.901
   77WAT     H2 1814   7.721   8.804   5.866
   78WAT      O 1815   7.014   8.311   5.412
   78WAT     H1 1816   7.101   8.339   5.440
   78WAT     H2 1817   6.965   8.392   5.400
   79WAT      O 1818   7.730   8.450   5.824
   79WAT     H1 1819   7.776   8.531   5.846
   79WAT     H2 1820   7.695   8.418   5.907
   80WAT      O 1821   7.960   9.001   6.547
   80WAT     H1 1822   8.025   9.021   6.614
   80WAT     H2 1823   7.997   8.925   6.501
   81WAT      O 1824   7.320   7.484   5.871
   81WAT     H1 1825   7.307   7.483   5.966
   81WAT     H2 1826   7.238   7.518   5.836
   82WAT      O 1827   7.652   8.970   5.550
   82WAT     H1 1828   7.651   9.044   5.488
   82WAT     H2 1829   7.560   8.946   5.559
   83WAT      O 1830   7.212   8.493   5.624
   83WAT     H1 1831   7.151   8.567   5.625
   83WAT     H2 1832   7.260   8.502   5.542
   84WAT      O 1833   7.951   8.977   5.416
   84WAT     H1 1834   7.961   8.956   5.323
   84WAT     H2 1835   7.861   8.951   5.437
   85WAT      O 1836   7.703   8.033   5.814
   85WAT     H1 1837   7.632   8.079   5.859
   85WAT     H2 1838   7.731   7.967   5.878
   86WAT      O 1839   7.523   7.863   5.552
   86WAT     H1 1840   7.608   7.907   5.545
   86WAT     H2 1841   7.487   7.895   5.635
   87WAT      O 1842   7.413   8.489   5.399
   87WAT     H1 1843   7.490   8.478   5.456
   87WAT     H2 1844   7.421   8.419   5.334
   88WAT      O 1845   7.283   8.232   5.468
   88WAT     H1 1846   7.291   8.137   5.479
   88WAT     H2 1847   7.372   8.265   5.478
   89WAT      O 1848   7.051   8.854   5.765
   89WAT     H1 1849   6.959   8.878   5.764
   89WAT     H2 1850   7.098   8.936   5.753
   90WAT      O 1851   7.726   8.686   5.347
   90WAT     H1 1852   7.715   8.625   5.419
   90WAT     H2 1853   7.709   8.634   5.268
   91WAT      O 1854   7.616   8.488   5.597
   91WAT     H1 1855   7.659   8.472   5.681
   91WAT     H2 1856   7.629   8.407   5.547
   92WAT      O 1857   7.868   8.391   5.322
   92WAT     H1 1858   7.920   8.319   5.285
   92WAT     H2 1859   7.932   8.455   5.352
   93WAT      O 1860   7.758   7.639   6.589
   93WAT     H1 1861   7.713   7.641   6.504
   93WAT     H2 1862   7.695   7.599   6.648
   94WAT      O 1863   7.799   8.528   6.651
   94WAT     H1 1864   7.840   8.613   6.634
   94WAT     H2 1865   7.707   8.542   6.628
   95WAT      O 1866   7.506   8.096   5.291
   95WAT     H1 1867   7.486   8.009   5.327
   95WAT     H2 1868   7.489   8.087   5.198
   96WAT      O 1869   7.386   7.806   5.290
   96WAT     H1 1870   7.416   7.806   5.199
   96WAT     H2 1871   7.460   7.771   5.340
   97WAT      O 1872   7.708   7.700   5.389
   97WAT     H1 1873   7.673   7.632   5.331
   97WAT     H2 1874   7.728   7.654   5.470
   98WAT      O 1875   7.288   8.736   5.373
   98WAT     H1 1876   7.332   8.790   5.439
   98WAT     H2 1877   7.337   8.654   5.374
   99WAT      O 1878   7.010   9.015   6.119
   99WAT     H1 1879   7.043   8.928   6.095
   99WAT     H2 1880   7.052   9.036   6.202
  100WAT      O 1881   7.469   8.848   5.885
  100WAT     H1 1882   7.439   8.836   5.975
  100WAT     H2 1883   7.459   8.762   5.844
  101WAT      O 1884   7.042   8.353   6.028
  101WAT     H1 1885   6.976   8.326   5.964
  101WAT     H2 1886   7.126   8.342   5.983
  102WAT      O 1887   7.145   8.391   6.482
  102WAT     H1 1888   7.182   8.383   6.570
  102WAT     H2 1889   7.089   8.315   6.472
  103WAT      O 1890   6.963   8.074   5.623
  103WAT     H1 1891   6.873   8.100   5.605
  103WAT     H2 1892   7.012   8.101   5.545
  104WAT      O 1893   7.217   7.980   5.414
  104WAT     H1 1894   7.288   7.937   5.365
  104WAT     H2 1895   7.146   7.986   5.350
  105WAT      O 1896   7.182   7.585   5.318
  105WAT     H1 1897   7.254   7.639   5.349
  105WAT     H2 1898   7.209   7.558   5.230
  106WAT      O 1899   7.151   7.510   6.308
  106WAT     H1 1900   7.216   7.455   6.264
  106WAT     H2 1901   7.193   7.535   6.390
  107WAT      O 1902   7.657   8.998   6.559
  107WAT     H1 1903   7.633   9.025   6.470
  107WAT     H2 1904   7.751   9.015   6.564
  108WAT      O 1905   7.234   8.874   6.606
  108WAT     H1 1906   7.161   8.812   6.599
  108WAT     H2 1907   7.240   8.913   6.519
  109WAT      O 1908   7.990   7.558   6.425
  109WAT     H1 1909   7.912   7.606   6.453
  109WAT     H2 1910   7.961   7.468   6.414
  110WAT      O 1911   7.125   7.589   5.677
  110WAT     H1 1912   7.200   7.600   5.620
  110WAT     H2 1913   7.078   7.673   5.672
  111WAT      O 1914   7.779   7.800   5.976
  111WAT     H1 1915   7.697   7.763   5.942
  111WAT     H2 1916   7.829   7.725   6.006
  112WAT      O 1917   7.362   7.642   5.531
  112WAT     H1 1918   7.415   7.563   5.518
  112WAT     H2 1919   7.425   7.709   5.554
  113WAT      O 1920   7.581   7.615   5.836
  113WAT     H1 1921   7.518   7.545   5.853
  113WAT     H2 1922   7.527   7.691   5.815
  114WAT      O 1923   7.399   8.882   5.559
  114WAT     H1 1924   7.336   8.928   5.614
  114WAT     H2 1925   7.410   8.797   5.602
  115WAT      O 1926   7.958   8.464   4.362
  115WAT     H1 1927   7.880   8.416   4.391
  115WAT     H2 1928   8.023   8.396   4.345
  116WAT      O 1929   7.359   8.496   4.450
  116WAT     H1 1930   7.276   8.470   4.490
  116WAT     H2 1931   7.420   8.503   4.523
  117WAT      O 1932   7.357   8.899   4.469
  117WAT     H1 1933   7.388   8.810   4.452
  117WAT     H2 1934   7.432   8.955   4.447
  118WAT      O 1935   7.200   7.992   3.828
  118WAT     H1 1936   7.111   8.026   3.818
  118WAT     H2 1937   7.229   7.972   3.739
  119WAT      O 1938   6.997   8.252   4.417
  119WAT     H1 1939   7.054   8.175   4.417
  119WAT     H2 1940   6.997   8.282   4.326
  120WAT      O 1941   7.902   8.732   4.363
  120WAT     H1 1942   7.895   8.638   4.347
  120WAT     H2 1943   7.978   8.741   4.420
  121WAT      O 1944   7.121   7.792   4.595
  121WAT     H1 1945   7.103   7.703   4.623
  121WAT     H2 1946   7.081   7.847   4.663
  122WAT      O 1947   8.005   8.013   4.386
  122WAT     H1 1948   8.042   7.925   4.374
  122WAT     H2 1949   7.995   8.046   4.296
  123WAT      O 1950   7.418   7.850   3.932
  123WAT     H1 1951   7.429   7.940   3.962
  123WAT     H2 1952   7.327   7.845   3.903
  124WAT      O 1953   7.183   8.042   4.456
  124WAT     H1 1954   7.251   8.068   4.518
  124WAT     H2 1955   7.151   7.958   4.490
  125WAT      O 1956   7.602   8.147   4.365
  125WAT     H1 1957   7.653   8.197   4.429
  125WAT     H2 1958   7.655   8.069   4.347
  126WAT      O 1959   7.430   7.611   4.792
  126WAT     H1 1960   7.431   7.662   4.711
  126WAT     H2 1961   7.347   7.563   4.789
  127WAT      O 1962   7.555   8.575   4.609
  127WAT     H1 1963   7.522   8.637   4.674
  127WAT     H2 1964   7.573   8.627   4.531
  128WAT      O 1965   7.398   7.782   4.592
  128WAT     H1 1966   7.433   7.866   4.563
  128WAT     H2 1967   7.305   7.797   4.604
  129WAT      O 1968   7.477   8.772   4.791
  129WAT     H1 1969   7.538   8.839   4.763
  129WAT     H2 1970   7.390   8.812   4.782
  130WAT      O 1971   7.006   8.691   3.679
  130WAT     H1 1972   6.968   8.739   3.606
  130WAT     H2 1973   7.032   8.758   3.742
  131WAT      O 1974   7.767   7.531   4.225
  131WAT     H1 1975   7.798   7.475   4.153
  131WAT     H2 1976   7.674   7.544   4.206
  132WAT      O 1977   8.006   8.337   3.898
  132WAT     H1 1978   7.913   8.331   3.921
  132WAT     H2 1979   8.021   8.431   3.887
  133WAT      O 1980   8.004   7.964   3.598
  133WAT     H1 1981   7.910   7.980   3.607
  133WAT     H2 1982   8.036   8.036   3.543
  134WAT      O 1983   7.566   8.390   4.177
  134WAT     H1 1984   7.526   8.319   4.127
  134WAT     H2 1985   7.575   8.355   4.265
  135WAT      O 1986   7.613   8.758   4.393
  135WAT     H1 1987   7.583   8.698   4.325
  135WAT     H2 1988   7.708   8.762   4.382
  136WAT      O 1989   7.437   8.067   4.555
  136WAT     H1 1990   7.493   8.078   4.477
  136WAT     H2 1991   7.489   8.105   4.626
  137WAT      O 1992   7.522   8.732   5.058
  137WAT     H1 1993   7.432   8.755   5.083
  137WAT     H2 1994   7.525   8.745   4.963
  138WAT      O 1995   7.405   8.419   4.916
  138WAT     H1 1996   7.391   8.507   4.952
  138WAT     H2 1997   7.317   8.385   4.901
  139WAT      O 1998   7.585   9.014   5.136
  139WAT     H1 1999   7.582   9.054   5.050
  139WAT     H2 2000   7.568   8.921   5.120
  140WAT      O 2001   7.236   8.279   3.927
  140WAT     H1 2002   7.224   8.352   3.865
  140WAT     H2 2003   7.205   8.202   3.879
  141WAT      O 2004   7.000   8.596   4.507
  141WAT     H1 2005   7.008   8.610   4.413
  141WAT     H2 2006   7.061   8.526   4.527
  142WAT      O 2007   7.125   8.766   4.148
  142WAT     H1 2008   7.084   8.781   4.063
  142WAT     H2 2009   7.214   8.738   4.128
  143WAT      O 2010   7.006   8.701   4.761
  143WAT     H1 2011   7.022   8.654   4.679
  143WAT     H2 2012   7.052   8.650   4.828
  144WAT      O 2013   7.483   7.614   4.265
  144WAT     H1 2014   7.438   7.692   4.232
  144WAT     H2 2015   7.539   7.646   4.336
  145WAT      O 2016   7.912   7.900   4.825
  145WAT     H1 2017   7.865   7.921   4.906
  145WAT     H2 2018   7.871   7.819   4.795
  146WAT      O 2019   7.794   7.576   3.753
  146WAT     H1 2020   7.732   7.575   3.825
  146WAT     H2 2021   7.786   7.489   3.713
  147WAT      O 2022   7.687   7.668   4.451
  147WAT     H1 2023   7.716   7.759   4.443
  147WAT     H2 2024   7.741   7.619   4.389
  148WAT      O 2025   7.462   8.126   4.038
  148WAT     H1 2026   7.439   8.104   4.128
  148WAT     H2 2027   7.384   8.169   4.003
  149WAT      O 2028   7.706   8.216   5.104
  149WAT     H1 2029   7.696   8.122   5.089
  149WAT     H2 2030   7.790   8.238   5.065
  150WAT      O 2031   7.219   7.857   4.920
  150WAT     H1 2032   7.180   7.942   4.940
  150WAT     H2 2033   7.150   7.793   4.939
  151WAT      O 2034   7.877   7.865   5.227
  151WAT     H1 2035   7.807   7.846   5.290
  151WAT     H2 2036   7.951   7.894   5.280
  152WAT      O 2037   6.949   7.649   4.323
  152WAT     H1 2038   6.920   7.706   4.394
  152WAT     H2 2039   7.024   7.601   4.359
  153WAT      O 2040   6.968   8.043   3.444
  153WAT     H1 2041   6.960   8.138   3.458
  153WAT     H2 2042   6.933   8.029   3.356
  154WAT      O 2043   7.748   7.917   4.351
  154WAT     H1 2044   7.748   7.873   4.266
  154WAT     H2 2045   7.837   7.949   4.361
  155WAT      O 2046   7.333   7.905   4.247
  155WAT     H1 2047   7.299   7.953   4.322
  155WAT     H2 2048   7.257   7.860   4.211
  156WAT      O 2049   7.754   8.017   3.650
  156WAT     H1 2050   7.766   8.013   3.745
  156WAT     H2 2051   7.716   8.103   3.634
  157WAT      O 2052   7.655   8.248   3.590
  157WAT     H1 2053   7.598   8.203   3.527
  157WAT     H2 2054   7.726   8.284   3.536
  158WAT      O 2055   7.163   8.638   4.977
  158WAT     H1 2056   7.125   8.574   5.037
  158WAT     H2 2057   7.194   8.708   5.034
  159WAT      O 2058   7.778   8.323   4.525
  159WAT     H1 2059   7.815   8.275   4.600
  159WAT     H2 2060   7.759   8.410   4.559
  160WAT      O 2061   7.064   7.797   4.138
  160WAT     H1 2062   7.036   7.761   4.222
  160WAT     H2 2063   7.058   7.724   4.077
  161WAT      O 2064   7.557   8.227   4.757
  161WAT     H1 2065   7.527   8.315   4.780
  161WAT     H2 2066   7.652   8.233   4.761
  162WAT      O 2067   7.410   8.648   3.817
  162WAT     H1 2068   7.332   8.594   3.801
  162WAT     H2 2069   7.483   8.596   3.783
  163WAT      O 2070   8.032   7.687   3.810
  163WAT     H1 2071   7.950   7.637   3.803
  163WAT     H2 2072   8.012   7.771   3.769
  164WAT      O 2073   8.024   8.554   4.985
  164WAT     H1 2074   8.017   8.462   4.959
  164WAT     H2 2075   7.961   8.564   5.056
  165WAT      O 2076   7.414   8.614   4.181
  165WAT     H1 2077   7.466   8.534   4.175
  165WAT     H2 2078   7.369   8.608   4.265
  166WAT      O 2079   7.903   8.741   3.708
  166WAT     H1 2080   7.937   8.815   3.658
  166WAT     H2 2081   7.820   8.772   3.744
  167WAT      O 2082   7.163   8.311   4.872
  167WAT     H1 2083   7.127   8.377   4.931
  167WAT     H2 2084   7.133   8.228   4.909
  168WAT      O 2085   7.483   8.357   5.160
  168WAT     H1 2086   7.453   8.371   5.071
  168WAT     H2 2087   7.560   8.301   5.151
  169WAT      O 2088   8.017   8.836   4.960
  169WAT     H1 2089   8.018   8.743   4.938
  169WAT     H2 2090   7.946   8.845   5.024
  170WAT      O 2091   7.800   8.749   3.985
  170WAT     H1 2092   7.868   8.804   4.023
  170WAT     H2 2093   7.721   8.804   3.989
  171WAT      O 2094   7.014   8.311   3.534
  171WAT     H1 2095   7.101   8.339   3.563
  171WAT     H2 2096   6.965   8.392   3.523
  172WAT      O 2097   7.730   8.450   3.946
  172WAT     H1 2098   7.776   8.531   3.969
  172WAT     H2 2099   7.695   8.418   4.029
  173WAT      O 2100   7.960   9.001   4.669
  173WAT     H1 2101   8.025   9.021   4.737
  173WAT     H2 2102   7.997   8.925   4.624
  174WAT      O 2103   7.320   7.484   3.993
  174WAT     H1 2104   7.307   7.483   4.088
  174WAT     H2 2105   7.238   7.518   3.958
  175WAT      O 2106   7.020   7.660   4.940
  175WAT     H1 2107   6.949   7.680   5.000
  175WAT     H2 2108   7.062   7.582   4.977
  176WAT      O 2109   7.049   9.059   5.038
  176WAT     H1 2110   7.060   8.965   5.024
  176WAT     H2 2111   6.984   9.085   4.973
  177WAT      O 2112   7.848   8.886   5.178
  177WAT     H1 2113   7.816   8.814   5.233
  177WAT     H2 2114   7.781   8.953   5.186
  178WAT      O 2115   7.652   8.970   3.673
  178WAT     H1 2116   7.651   9.044   3.611
  178WAT     H2 2117   7.560   8.946   3.682
  179WAT      O 2118   7.212   8.493   3.747
  179WAT     H1 2119   7.151   8.567   3.748
  179WAT     H2 2120   7.260   8.502   3.664
  180WAT      O 2121   7.951   8.977   3.539
  180WAT     H1 2122   7.961   8.956   3.446
  180WAT     H2 2123   7.861   8.951   3.559
  181WAT      O 2124   7.703   8.033   3.937
  181WAT     H1 2125   7.632   8.079   3.981
  181WAT     H2 2126   7.731   7.967   4.000
  182WAT      O 2127   7.866   8.175   4.737
  182WAT     H1 2128   7.915   8.222   4.803
  182WAT     H2 2129   7.880   8.082   4.758
  183WAT      O 2130   7.523   7.863   3.675
  183WAT     H1 2131   7.608   7.907   3.668
  183WAT     H2 2132   7.487   7.895   3.757
  184WAT      O 2133   7.413   8.489   3.522
  184WAT     H1 2134   7.490   8.478   3.578
  184WAT     H2 2135   7.421   8.419   3.457
  185WAT      O 2136   7.283   8.232   3.590
  185WAT     H1 2137   7.291   8.137   3.601
  185WAT     H2 2138   7.372   8.265   3.601
  186WAT      O 2139   7.051   8.854   3.888
  186WAT     H1 2140   6.959   8.878   3.887
  186WAT     H2 2141   7.098   8.936   3.876
  187WAT      O 2142   7.035   8.414   5.114
  187WAT     H1 2143   7.086   8.356   5.171
  187WAT     H2 2144   6.961   8.443   5.168
  188WAT      O 2145   7.726   8.686   3.469
  188WAT     H1 2146   7.715   8.625   3.542
  188WAT     H2 2147   7.709   8.634   3.391
  189WAT      O 2148   7.741   8.555   5.067
  189WAT     H1 2149   7.664   8.612   5.059
  189WAT     H2 2150   7.759   8.526   4.978
  190WAT      O 2151   7.239   8.228   5.203
  190WAT     H1 2152   7.243   8.199   5.294
  190WAT     H2 2153   7.324   8.268   5.187
  191WAT      O 2154   7.616   8.488   3.719
  191WAT     H1 2155   7.659   8.472   3.804
  191WAT     H2 2156   7.629   8.407   3.670
  192WAT      O 2157   7.433   8.086   5.000
  192WAT     H1 2158   7.380   8.037   4.937
  192WAT     H2 2159   7.500   8.129   4.947
  193WAT      O 2160   7.868   8.391   3.444
  193WAT     H1 2161   7.920   8.319   3.407
  193WAT     H2 2162   7.932   8.455   3.474
  194WAT      O 2163   7.481   7.783   5.008
  194WAT     H1 2164   7.472   7.721   4.936
  194WAT     H2 2165   7.423   7.856   4.985
  195WAT      O 2166   7.758   7.639   4.711
  195WAT     H1 2167   7.713   7.641   4.627
  195WAT     H2 2168   7.695   7.599   4.771
  196WAT      O 2169   7.799   8.528   4.773
  196WAT     H1 2170   7.840   8.613   4.756
  196WAT     H2 2171   7.707   8.542   4.750
  197WAT      O 2172   7.506   8.096   3.414
  197WAT     H1 2173   7.486   8.009   3.450
  197WAT     H2 2174   7.489   8.087   3.320
  198WAT      O 2175   7.709   7.956   5.038
  198WAT     H1 2176   7.768   7.925   5.106
  198WAT     H2 2177   7.627   7.908   5.053
  199WAT      O 2178   7.386   7.806   3.413
  199WAT     H1 2179   7.416   7.806   3.322
  199WAT     H2 2180   7.460   7.771   3.462
  200WAT      O 2181   7.708   7.700   3.511
  200WAT     H1 2182   7.673   7.632   3.453
  200WAT     H2 2183   7.728   7.654   3.593
  201WAT      O 2184   7.288   8.736   3.496
  201WAT     H1 2185   7.332   8.790   3.562
  201WAT     H2 2186   7.337   8.654   3.497
  202WAT      O 2187   7.010   9.015   4.241
  202WAT     H1 2188   7.043   8.928   4.218
  202WAT     H2 2189   7.052   9.036   4.324
  203WAT      O 2190   7.469   8.848   4.007
  203WAT     H1 2191   7.439   8.836   4.097
  203WAT     H2 2192   7.459   8.762   3.966
  204WAT      O 2193   7.042   8.353   4.151
  204WAT     H1 2194   6.976   8.326   4.086
  204WAT     H2 2195   7.126   8.342   4.106
  205WAT      O 2196   7.145   8.391   4.605
  205WAT     H1 2197   7.182   8.383   4.693
  205WAT     H2 2198   7.089   8.315   4.595
  206WAT      O 2199   7.101   8.083   4.995
  206WAT     H1 2200   7.011   8.079   5.029
  206WAT     H2 2201   7.155   8.102   5.072
  207WAT      O 2202   6.963   8.074   3.745
  207WAT     H1 2203   6.873   8.100   3.728
  207WAT     H2 2204   7.012   8.101   3.667
  208WAT      O 2205   7.217   7.980   3.536
  208WAT     H1 2206   7.288   7.937   3.488
  208WAT     H2 2207   7.146   7.986   3.473
  209WAT      O 2208   7.182   7.585   3.440
  209WAT     H1 2209   7.254   7.639   3.472
  209WAT     H2 2210   7.209   7.558   3.353
  210WAT      O 2211   7.151   7.510   4.430
  210WAT     H1 2212   7.216   7.455   4.386
  210WAT     H2 2213   7.193   7.535   4.512
  211WAT      O 2214   7.126   7.526   4.705
  211WAT     H1 2215   7.092   7.571   4.781
  211WAT     H2 2216   7.093   7.436   4.713
  212WAT      O 2217   7.287   8.843   5.121
  212WAT     H1 2218   7.283   8.806   5.209
  212WAT     H2 2219   7.300   8.937   5.135
  213WAT      O 2220   7.657   8.998   4.681
  213WAT     H1 2221   7.633   9.025   4.593
  213WAT     H2 2222   7.751   9.015   4.687
  214WAT      O 2223   7.878   7.645   5.057
  214WAT     H1 2224   7.872   7.704   5.132
  214WAT     H2 2225   7.972   7.634   5.042
  215WAT      O 2226   7.194   7.478   5.032
  215WAT     H1 2227   7.248   7.460   4.956
  215WAT     H2 2228   7.200   7.399   5.086
  216WAT      O 2229   7.234   8.874   4.728
  216WAT     H1 2230   7.161   8.812   4.721
  216WAT     H2 2231   7.240   8.913   4.641
  217WAT      O 2232   7.990   7.558   4.547
  217WAT     H1 2233   7.912   7.606   4.575
  217WAT     H2 2234   7.961   7.468   4.536
  218WAT      O 2235   7.125   7.589   3.799
  218WAT     H1 2236   7.200   7.600   3.742
  218WAT     H2 2237   7.078   7.673   3.795
  219WAT      O 2238   7.779   7.800   4.098
  219WAT     H1 2239   7.697   7.763   4.064
  219WAT     H2 2240   7.829   7.725   4.129
  220WAT      O 2241   7.362   7.642   3.653
  220WAT     H1 2242   7.415   7.563   3.641
  220WAT     H2 2243   7.425   7.709   3.677
  221WAT      O 2244   7.581   7.615   3.959
  221WAT     H1 2245   7.518   7.545   3.976
  221WAT     H2 2246   7.527   7.691   3.937
  222WAT      O 2247   7.594   7.543   5.202
  222WAT     H1 2248   7.566   7.593   5.126
  222WAT     H2 2249   7.632   7.463   5.166
  223WAT      O 2250   7.399   8.882   3.682
  223WAT     H1 2251   7.336   8.928   3.736
  223WAT     H2 2252   7.410   8.797   3.725
  224WAT      O 2253   7.958   8.464   2.485
  224WAT     H1 2254   7.880   8.416   2.514
  224WAT     H2 2255   8.023   8.396   2.467
  225WAT      O 2256   7.359   8.496   2.572
  225WAT     H1 2257   7.276   8.470   2.612
  225WAT     H2 2258   7.420   8.503   2.646
  226WAT      O 2259   7.357   8.899   2.592
  226WAT     H1 2260   7.388   8.810   2.574
  226WAT     H2 2261   7.432   8.955   2.569
  227WAT      O 2262   7.200   7.992   1.951
  227WAT     H1 2263   7.111   8.026   1.941
  227WAT     H2 2264   7.229   7.972   1.862
  228WAT      O 2265   6.997   8.252   2.539
  228WAT     H1 2266   7.054   8.175   2.539
  228WAT     H2 2267   6.997   8.282   2.448
  229WAT      O 2268   7.902   8.732   2.485
  229WAT     H1 2269   7.895   8.638   2.469
  229WAT     H2 2270   7.978   8.741   2.543
  230WAT      O 2271   7.121   7.792   2.718
  230WAT     H1 2272   7.103   7.703   2.746
  230WAT     H2 2273   7.081   7.847   2.785
  231WAT      O 2274   8.005   8.013   2.508
  231WAT     H1 2275   8.042   7.925   2.497
  231WAT     H2 2276   7.995   8.046   2.419
  232WAT      O 2277   7.418   7.850   2.054
  232WAT     H1 2278   7.429   7.940   2.085
  232WAT     H2 2279   7.327   7.845   2.025
  233WAT      O 2280   7.183   8.042   2.579
  233WAT     H1 2281   7.251   8.068   2.641
  233WAT     H2 2282   7.151   7.958   2.612
  234WAT      O 2283   7.602   8.147   2.488
  234WAT     H1 2284   7.653   8.197   2.552
  234WAT     H2 2285   7.655   8.069   2.470
  235WAT      O 2286   7.430   7.611   2.914
  235WAT     H1 2287   7.431   7.662   2.834
  235WAT     H2 2288   7.347   7.563   2.912
  236WAT      O 2289   7.555   8.575   2.732
  236WAT     H1 2290   7.522   8.637   2.796
  236WAT     H2 2291   7.573   8.627   2.654
  237WAT      O 2292   7.398   7.782   2.715
  237WAT     H1 2293   7.433   7.866   2.685
  237WAT     H2 2294   7.305   7.797   2.727
  238WAT      O 2295   7.477   8.772   2.913
  238WAT     H1 2296   7.538   8.839   2.885
  238WAT     H2 2297   7.390   8.812   2.904
  239WAT      O 2298   7.006   8.691   1.801
  239WAT     H1 2299   6.968   8.739   1.728
  239WAT     H2 2300   7.032   8.758   1.865
  240WAT      O 2301   7.767   7.531   2.347
  240WAT     H1 2302   7.798   7.475   2.276
  240WAT     H2 2303   7.674   7.544   2.329
  241WAT      O 2304   8.006   8.337   2.021
  241WAT     H1 2305   7.913   8.331   2.044
  241WAT     H2 2306   8.021   8.431   2.009
  242WAT      O 2307   8.004   7.964   1.721
  242WAT     H1 2308   7.910   7.980   1.729
  242WAT     H2 2309   8.036   8.036   1.666
  243WAT      O 2310   7.566   8.390   2.299
  243WAT     H1 2311   7.526   8.319   2.250
  243WAT     H2 2312   7.575   8.355   2.388
  244WAT      O 2313   7.613   8.758   2.515
  244WAT     H1 2314   7.583   8.698   2.448
  244WAT     H2 2315   7.708   8.762   2.504
  245WAT      O 2316   7.437   8.067   2.677
  245WAT     H1 2317   7.493   8.078   2.600
  245WAT     H2 2318   7.489   8.105   2.749
  246WAT      O 2319   7.522   8.732   3.181
  246WAT     H1 2320   7.432   8.755   3.205
  246WAT     H2 2321   7.525   8.745   3.086
  247WAT      O 2322   7.405   8.419   3.038
  247WAT     H1 2323   7.391   8.507   3.075
  247WAT     H2 2324   7.317   8.385   3.024
  248WAT      O 2325   7.585   9.014   3.259
  248WAT     H1 2326   7.582   9.054   3.172
  248WAT     H2 2327   7.568   8.921   3.243
  249WAT      O 2328   7.236   8.279   2.049
  249WAT     H1 2329   7.224   8.352   1.988
  249WAT     H2 2330   7.205   8.202   2.001
  250WAT      O 2331   7.000   8.596   2.630
  250WAT     H1 2332   7.008   8.610   2.535
  250WAT     H2 2333   7.061   8.526   2.649
  251WAT      O 2334   7.125   8.766   2.271
  251WAT     H1 2335   7.084   8.781   2.185
  251WAT     H2 2336   7.214   8.738   2.251
  252WAT      O 2337   7.006   8.701   2.884
  252WAT     H1 2338   7.022   8.654   2.802
  252WAT     H2 2339   7.052   8.650   2.950
  253WAT      O 2340   7.483   7.614   2.387
  253WAT     H1 2341   7.438   7.692   2.354
  253WAT     H2 2342   7.539   7.646   2.458
  254WAT      O 2343   7.912   7.900   2.948
  254WAT     H1 2344   7.865   7.921   3.029
  254WAT     H2 2345   7.871   7.819   2.917
  255WAT      O 2346   7.794   7.576   1.875
  255WAT     H1 2347   7.732   7.575   1.948
  255WAT     H2 2348   7.786   7.489   1.836
  256WAT      O 2349   7.687   7.668   2.573
  256WAT     H1 2350   7.716   7.759   2.565
  256WAT     H2 2351   7.741   7.619   2.512
  257WAT      O 2352   7.462   8.126   2.160
  257WAT     H1 2353   7.439   8.104   2.251
  257WAT     H2 2354   7.384   8.169   2.126
  258WAT      O 2355   7.706   8.216   3.227
  258WAT     H1 2356   7.696   8.122   3.212
  258WAT     H2 2357   7.790   8.238   3.187
  259WAT      O 2358   7.219   7.857   3.042
  259WAT     H1 2359   7.180   7.942   3.063
  259WAT     H2 2360   7.150   7.793   3.061
  260WAT      O 2361   7.877   7.865   3.349
  260WAT     H1 2362   7.807   7.846   3.413
  260WAT     H2 2363   7.951   7.894   3.402
  261WAT      O 2364   6.949   7.649   2.445
  261WAT     H1 2365   6.920   7.706   2.517
  261WAT     H2 2366   7.024   7.601   2.482
  262WAT      O 2367   6.968   8.043   1.566
  262WAT     H1 2368   6.960   8.138   1.581
  262WAT     H2 2369   6.933   8.029   1.479
  263WAT      O 2370   7.748   7.917   2.473
  263WAT     H1 2371   7.748   7.873   2.388
  263WAT     H2 2372   7.837   7.949   2.484
  264WAT      O 2373   7.333   7.905   2.369
  264WAT     H1 2374   7.299   7.953   2.445
  264WAT     H2 2375   7.257   7.860   2.333
  265WAT      O 2376   7.754   8.017   1.772
  265WAT     H1 2377   7.766   8.013   1.867
  265WAT     H2 2378   7.716   8.103   1.757
  266WAT      O 2379   7.655   8.248   1.712
  266WAT     H1 2380   7.598   8.203   1.649
  266WAT     H2 2381   7.726   8.284   1.659
  267WAT      O 2382   7.163   8.638   3.100
  267WAT     H1 2383   7.125   8.574   3.160
  267WAT     H2 2384   7.194   8.708   3.157
  268WAT      O 2385   7.778   8.323   2.648
  268WAT     H1 2386   7.815   8.275   2.722
  268WAT     H2 2387   7.759   8.410   2.682
  269WAT      O 2388   7.064   7.797   2.261
  269WAT     H1 2389   7.036   7.761   2.345
  269WAT     H2 2390   7.058   7.724   2.199
  270WAT      O 2391   7.557   8.227   2.880
  270WAT     H1 2392   7.527   8.315   2.902
  270WAT     H2 2393   7.652   8.233   2.883
  271WAT      O 2394   7.410   8.648   1.939
  271WAT     H1 2395   7.332   8.594   1.923
  271WAT     H2 2396   7.483   8.596   1.906
  272WAT      O 2397   8.032   7.687   1.933
  272WAT     H1 2398   7.950   7.637   1.925
  272WAT     H2 2399   8.012   7.771   1.891
  273WAT      O 2400   8.024   8.554   3.107
  273WAT     H1 2401   8.017   8.462   3.082
  273WAT     H2 2402   7.961   8.564   3.179
  274WAT      O 2403   7.414   8.614   2.303
  274WAT     H1 2404   7.466   8.534   2.298
  274WAT     H2 2405   7.369   8.608   2.387
  275WAT      O 2406   7.903   8.741   1.830
  275WAT     H1 2407   7.937   8.815   1.781
  275WAT     H2 2408   7.820   8.772   1.867
  276WAT      O 2409   7.163   8.311   2.994
  276WAT     H1 2410   7.127   8.377   3.053
  276WAT     H2 2411   7.133   8.228   3.032
  277WAT      O 2412   7.483   8.357   3.283
  277WAT     H1 2413   7.453   8.371   3.193
  277WAT     H2 2414   7.560   8.301   3.274
  278WAT      O 2415   8.017   8.836   3.082
  278WAT     H1 2416   8.018   8.743   3.061
  278WAT     H2 2417   7.946   8.845   3.146
  279WAT      O 2418   7.800   8.749   2.108
  279WAT     H1 2419   7.868   8.804   2.146
  279WAT     H2 2420   7.721   8.804   2.111
  280WAT      O 2421   7.014   8.311   1.657
  280WAT     H1 2422   7.101   8.339   1.685
  280WAT     H2 2423   6.965   8.392   1.645
  281WAT      O 2424   7.730   8.450   2.069
  281WAT     H1 2425   7.776   8.531   2.091
  281WAT     H2 2426   7.695   8.418   2.152
  282WAT      O 2427   7.960   9.001   2.792
  282WAT     H1 2428   8.025   9.021   2.859
  282WAT     H2 2429   7.997   8.925   2.746
  283WAT      O 2430   7.320   7.484   2.116
  283WAT     H1 2431   7.307   7.483   2.211
  283WAT     H2 2432   7.238   7.518   2.081
  284WAT      O 2433   7.020   7.660   3.062
  284WAT     H1 2434   6.949   7.680   3.123
  284WAT     H2 2435   7.062   7.582   3.099
  285WAT      O 2436   7.049   9.059   3.161
  285WAT     H1 2437   7.060   8.965   3.147
  285WAT     H2 2438   6.984   9.085   3.096
  286WAT      O 2439   7.848   8.886   3.301
  286WAT     H1 2440   7.816   8.814   3.355
  286WAT     H2 2441   7.781   8.953   3.308
  287WAT      O 2442   7.652   8.970   1.795
  287WAT     H1 2443   7.651   9.044   1.734
  287WAT     H2 2444   7.560   8.946   1.804
  288WAT      O 2445   7.212   8.493   1.870
  288WAT     H1 2446   7.151   8.567   1.871
  288WAT     H2 2447   7.260   8.502   1.787
  289WAT      O 2448   7.951   8.977   1.661
  289WAT     H1 2449   7.961   8.956   1.568
  289WAT     H2 2450   7.861   8.951   1.682
  290WAT      O 2451   7.703   8.033   2.060
  290WAT     H1 2452   7.632   8.079   2.104
  290WAT     H2 2453   7.731   7.967   2.123
  291WAT      O 2454   7.866   8.175   2.860
  291WAT     H1 2455   7.915   8.222   2.926
  291WAT     H2 2456   7.880   8.082   2.880
  292WAT      O 2457   7.523   7.863   1.797
  292WAT     H1 2458   7.608   7.907   1.790
  292WAT     H2 2459   7.487   7.895   1.880
  293WAT      O 2460   7.413   8.489   1.644
  293WAT     H1 2461   7.490   8.478   1.701
  293WAT     H2 2462   7.421   8.419   1.579
  294WAT      O 2463   7.283   8.232   1.713
  294WAT     H1 2464   7.291   8.137   1.724
  294WAT     H2 2465   7.372   8.265   1.723
  295WAT      O 2466   7.051   8.854   2.011
  295WAT     H1 2467   6.959   8.878   2.010
  295WAT     H2 2468   7.098   8.936   1.998
  296WAT      O 2469   7.035   8.414   3.236
  296WAT     H1 2470   7.086   8.356   3.294
  296WAT     H2 2471   6.961   8.443   3.290
  297WAT      O 2472   7.726   8.686   1.592
  297WAT     H1 2473   7.715   8.625   1.664
  297WAT     H2 2474   7.709   8.634   1.513
  298WAT      O 2475   7.741   8.555   3.190
  298WAT     H1 2476   7.664   8.612   3.181
  298WAT     H2 2477   7.759   8.526   3.100
  299WAT      O 2478   7.239   8.228   3.326
  299WAT     H1 2479   7.243   8.199   3.417
  299WAT     H2 2480   7.324   8.268   3.310
  300WAT      O 2481   7.616   8.488   1.842
  300WAT     H1 2482   7.659   8.472   1.926
  300WAT     H2 2483   7.629   8.407   1.792
  301WAT      O 2484   7.433   8.086   3.123
  301WAT     H1 2485   7.380   8.037   3.060
  301WAT     H2 2486   7.500   8.129   3.069
  302WAT      O 2487   7.868   8.391   1.567
  302WAT     H1 2488   7.920   8.319   1.530
  302WAT     H2 2489   7.932   8.455   1.597
  303WAT      O 2490   7.481   7.783   3.131
  303WAT     H1 2491   7.472   7.721   3.058
  303WAT     H2 2492   7.423   7.856   3.108
  304WAT      O 2493   7.758   7.639   2.834
  304WAT     H1 2494   7.713   7.641   2.749
  304WAT     H2 2495   7.695   7.599   2.894
  305WAT      O 2496   7.799   8.528   2.896
  305WAT     H1 2497   7.840   8.613   2.879
  305WAT     H2 2498   7.707   8.542   2.873
  306WAT      O 2499   7.506   8.096   1.536
  306WAT     H1 2500   7.486   8.009   1.573
  306WAT     H2 2501   7.489   8.087   1.443
  307WAT      O 2502   7.709   7.956   3.160
  307WAT     H1 2503   7.768   7.925   3.229
  307WAT     H2 2504   7.627   7.908   3.176
  308WAT      O 2505   7.386   7.806   1.535
  308WAT     H1 2506   7.416   7.806   1.444
  308WAT     H2 2507   7.460   7.771   1.585
  309WAT      O 2508   7.708   7.700   1.634
  309WAT     H1 2509   7.673   7.632   1.576
  309WAT     H2 2510   7.728   7.654   1.715
  310WAT      O 2511   7.288   8.736   1.619
  310WAT     H1 2512   7.332   8.790   1.684
  310WAT     H2 2513   7.337   8.654   1.619
  311WAT      O 2514   7.010   9.015   2.364
  311WAT     H1 2515   7.043   8.928   2.341
  311WAT     H2 2516   7.052   9.036   2.447
  312WAT      O 2517   7.469   8.848   2.130
  312WAT     H1 2518   7.439   8.836   2.220
  312WAT     H2 2519   7.459   8.762   2.089
  313WAT      O 2520   7.042   8.353   2.273
  313WAT     H1 2521   6.976   8.326   2.209
  313WAT     H2 2522   7.126   8.342   2.228
  314WAT      O 2523   7.145   8.391   2.727
  314WAT     H1 2524   7.182   8.383   2.815
  314WAT     H2 2525   7.089   8.315   2.718
  315WAT      O 2526   7.101   8.083   3.118
  315WAT     H1 2527   7.011   8.079   3.152
  315WAT     H2 2528   7.155   8.102   3.195
  316WAT      O 2529   6.963   8.074   1.868
  316WAT     H1 2530   6.873   8.100   1.850
  316WAT     H2 2531   7.012   8.101   1.790
  317WAT      O 2532   7.217   7.980   1.659
  317WAT     H1 2533   7.288   7.937   1.610
  317WAT     H2 2534   7.146   7.986   1.595
  318WAT      O 2535   7.182   7.585   1.563
  318WAT     H1 2536   7.254   7.639   1.594
  318WAT     H2 2537   7.209   7.558   1.475
  319WAT      O 2538   7.151   7.510   2.553
  319WAT     H1 2539   7.216   7.455   2.509
  319WAT     H2 2540   7.193   7.535   2.635
  320WAT      O 2541   7.126   7.526   2.827
  320WAT     H1 2542   7.092   7.571   2.904
  320WAT     H2 2543   7.093   7.436   2.835
  321WAT      O 2544   7.287   8.843   3.244
  321WAT     H1 2545   7.283   8.806   3.332
  321WAT     H2 2546   7.300   8.937   3.258
  322WAT      O 2547   7.657   8.998   2.804
  322WAT     H1 2548   7.633   9.025   2.715
  322WAT     H2 2549   7.751   9.015   2.809
  323WAT      O 2550   7.878   7.645   3.179
  323WAT     H1 2551   7.872   7.704   3.254
  323WAT     H2 2552   7.972   7.634   3.165
  324WAT      O 2553   7.194   7.478   3.155
  324WAT     H1 2554   7.248   7.460   3.078
  324WAT     H2 2555   7.200   7.399   3.208
  325WAT      O 2556   7.234   8.874   2.851
  325WAT     H1 2557   7.161   8.812   2.844
  325WAT     H2 2558   7.240   8.913   2.764
  326WAT      O 2559   7.990   7.558   2.670
  326WAT     H1 2560   7.912   7.606   2.698
  326WAT     H2 2561   7.961   7.468   2.659
  327WAT      O 2562   7.125   7.589   1.922
  327WAT     H1 2563   7.200   7.600   1.865
  327WAT     H2 2564   7.078   7.673   1.917
  328WAT      O 2565   7.779   7.800   2.221
  328WAT     H1 2566   7.697   7.763   2.187
  328WAT     H2 2567   7.829   7.725   2.251
  329WAT      O 2568   7.362   7.642   1.776
  329WAT     H1 2569   7.415   7.563   1.763
  329WAT     H2 2570   7.425   7.709   1.799
  330WAT      O 2571   7.581   7.615   2.081
  330WAT     H1 2572   7.518   7.545   2.098
  330WAT     H2 2573   7.527   7.691   2.060
  331WAT      O 2574   7.594   7.543   3.325
  331WAT     H1 2575   7.566   7.593   3.249
  331WAT     H2 2576   7.632   7.463   3.288
  332WAT      O 2577   7.399   8.882   1.804
  332WAT     H1 2578   7.336   8.928   1.859
  332WAT     H2 2579   7.410   8.797   1.848
  333WAT      O 2580   7.958   8.464   0.607
  333WAT     H1 2581   7.880   8.416   0.636
  333WAT     H2 2582   8.023   8.396   0.590
  334WAT      O 2583   7.359   8.496   0.695
  334WAT     H1 2584   7.276   8.470   0.735
  334WAT     H2 2585   7.420   8.503   0.769
  335WAT      O 2586   7.357   8.899   0.715
  335WAT     H1 2587   7.388   8.810   0.697
  335WAT     H2 2588   7.432   8.955   0.692
  336WAT      O 2589   6.997   8.252   0.662
  336WAT     H1 2590   7.054   8.175   0.662
  336WAT     H2 2591   6.997   8.282   0.571
  337WAT      O 2592   7.902   8.732   0.608
  337WAT     H1 2593   7.895   8.638   0.592
  337WAT     H2 2594   7.978   8.741   0.665
  338WAT      O 2595   7.121   7.792   0.841
  338WAT     H1 2596   7.103   7.703   0.869
  338WAT     H2 2597   7.081   7.847   0.908
  339WAT      O 2598   8.005   8.013   0.631
  339WAT     H1 2599   8.042   7.925   0.619
  339WAT     H2 2600   7.995   8.046   0.542
  340WAT      O 2601   7.418   7.850   0.177
  340WAT     H1 2602   7.429   7.940   0.208
  340WAT     H2 2603   7.327   7.845   0.148
  341WAT      O 2604   7.183   8.042   0.701
  341WAT     H1 2605   7.251   8.068   0.763
  341WAT     H2 2606   7.151   7.958   0.735
  342WAT      O 2607   7.602   8.147   0.610
  342WAT     H1 2608   7.653   8.197   0.674
  342WAT     H2 2609   7.655   8.069   0.592
  343WAT      O 2610   7.430   7.611   1.037
  343WAT     H1 2611   7.431   7.662   0.956
  343WAT     H2 2612   7.347   7.563   1.034
  344WAT      O 2613   7.555   8.575   0.854
  344WAT     H1 2614   7.522   8.637   0.919
  344WAT     H2 2615   7.573   8.627   0.776
  345WAT      O 2616   7.398   7.782   0.837
  345WAT     H1 2617   7.433   7.866   0.808
  345WAT     H2 2618   7.305   7.797   0.849
  346WAT      O 2619   7.477   8.772   1.036
  346WAT     H1 2620   7.538   8.839   1.008
  346WAT     H2 2621   7.390   8.812   1.027
  347WAT      O 2622   7.767   7.531   0.470
  347WAT     H1 2623   7.798   7.475   0.398
  347WAT     H2 2624   7.674   7.544   0.452
  348WAT      O 2625   7.566   8.390   0.422
  348WAT     H1 2626   7.526   8.319   0.372
  348WAT     H2 2627   7.575   8.355   0.511
  349WAT      O 2628   7.613   8.758   0.638
  349WAT     H1 2629   7.583   8.698   0.570
  349WAT     H2 2630   7.708   8.762   0.627
  350WAT      O 2631   7.437   8.067   0.800
  350WAT     H1 2632   7.493   8.078   0.722
  350WAT     H2 2633   7.489   8.105   0.871
  351WAT      O 2634   7.522   8.732   1.303
  351WAT     H1 2635   7.432   8.755   1.328
  351WAT     H2 2636   7.525   8.745   1.208
  352WAT      O 2637   7.405   8.419   1.161
  352WAT     H1 2638   7.391   8.507   1.198
  352WAT     H2 2639   7.317   8.385   1.146
  353WAT      O 2640   7.585   9.014   1.382
  353WAT     H1 2641   7.582   9.054   1.295
  353WAT     H2 2642   7.568   8.921   1.365
  354WAT      O 2643   7.000   8.596   0.752
  354WAT     H1 2644   7.008   8.610   0.658
  354WAT     H2 2645   7.061   8.526   0.772
  355WAT      O 2646   7.125   8.766   0.393
  355WAT     H1 2647   7.084   8.781   0.308
  355WAT     H2 2648   7.214   8.738   0.373
  356WAT      O 2649   7.006   8.701   1.006
  356WAT     H1 2650   7.022   8.654   0.925
  356WAT     H2 2651   7.052   8.650   1.073
  357WAT      O 2652   7.483   7.614   0.510
  357WAT     H1 2653   7.438   7.692   0.477
  357WAT     H2 2654   7.539   7.646   0.581
  358WAT      O 2655   7.912   7.900   1.070
  358WAT     H1 2656   7.865   7.921   1.152
  358WAT     H2 2657   7.871   7.819   1.040
  359WAT      O 2658   7.687   7.668   0.696
  359WAT     H1 2659   7.716   7.759   0.688
  359WAT     H2 2660   7.741   7.619   0.634
  360WAT      O 2661   7.462   8.126   0.283
  360WAT     H1 2662   7.439   8.104   0.373
  360WAT     H2 2663   7.384   8.169   0.248
  361WAT      O 2664   7.706   8.216   1.349
  361WAT     H1 2665   7.696   8.122   1.334
  361WAT     H2 2666   7.790   8.238   1.310
  362WAT      O 2667   7.219   7.857   1.165
  362WAT     H1 2668   7.180   7.942   1.185
  362WAT     H2 2669   7.150   7.793   1.184
  363WAT      O 2670   7.877   7.865   1.472
  363WAT     H1 2671   7.807   7.846   1.535
  363WAT     H2 2672   7.951   7.894   1.525
  364WAT      O 2673   6.949   7.649   0.568
  364WAT     H1 2674   6.920   7.706   0.639
  364WAT     H2 2675   7.024   7.601   0.604
  365WAT      O 2676   7.748   7.917   0.596
  365WAT     H1 2677   7.748   7.873   0.511
  365WAT     H2 2678   7.837   7.949   0.606
  366WAT      O 2679   7.333   7.905   0.492
  366WAT     H1 2680   7.299   7.953   0.567
  366WAT     H2 2681   7.257   7.860   0.456
  367WAT      O 2682   7.163   8.638   1.222
  367WAT     H1 2683   7.125   8.574   1.282
  367WAT     H2 2684   7.194   8.708   1.279
  368WAT      O 2685   7.778   8.323   0.770
  368WAT     H1 2686   7.815   8.275   0.845
  368WAT     H2 2687   7.759   8.410   0.804
  369WAT      O 2688   7.064   7.797   0.383
  369WAT     H1 2689   7.036   7.761   0.467
  369WAT     H2 2690   7.058   7.724   0.322
  370WAT      O 2691   7.557   8.227   1.002
  370WAT     H1 2692   7.527   8.315   1.025
  370WAT     H2 2693   7.652   8.233   1.006
  371WAT      O 2694   8.024   8.554   1.230
  371WAT     H1 2695   8.017   8.462   1.204
  371WAT     H2 2696   7.961   8.564   1.301
  372WAT      O 2697   7.414   8.614   0.426
  372WAT     H1 2698   7.466   8.534   0.420
  372WAT     H2 2699   7.369   8.608   0.510
  373WAT      O 2700   7.163   8.311   1.117
  373WAT     H1 2701   7.127   8.377   1.176
  373WAT     H2 2702   7.133   8.228   1.154
  374WAT      O 2703   7.483   8.357   1.405
  374WAT     H1 2704   7.453   8.371   1.316
  374WAT     H2 2705   7.560   8.301   1.396
  375WAT      O 2706   8.017   8.836   1.205
  375WAT     H1 2707   8.018   8.743   1.183
  375WAT     H2 2708   7.946   8.845   1.269
  376WAT      O 2709   7.800   8.749   0.230
  376WAT     H1 2710   7.868   8.804   0.268
  376WAT     H2 2711   7.721   8.804   0.234
  377WAT      O 2712   7.730   8.450   0.191
  377WAT     H1 2713   7.776   8.531   0.214
  377WAT     H2 2714   7.695   8.418   0.275
  378WAT      O 2715   7.960   9.001   0.914
  378WAT     H1 2716   8.025   9.021   0.982
  378WAT     H2 2717   7.997   8.925   0.869
  379WAT      O 2718   7.320   7.484   0.239
  379WAT     H1 2719   7.307   7.483   0.333
  379WAT     H2 2720   7.238   7.518   0.204
  380WAT      O 2721   7.020   7.660   1.185
  380WAT     H1 2722   6.949   7.680   1.245
  380WAT     H2 2723   7.062   7.582   1.222
  381WAT      O 2724   7.049   9.059   1.283
  381WAT     H1 2725   7.060   8.965   1.269
  381WAT     H2 2726   6.984   9.085   1.218
  382WAT      O 2727   7.848   8.886   1.423
  382WAT     H1 2728   7.816   8.814   1.478
  382WAT     H2 2729   7.781   8.953   1.431
  383WAT      O 2730   7.703   8.033   0.182
  383WAT     H1 2731   7.632   8.079   0.226
  383WAT     H2 2732   7.731   7.967   0.246
  384WAT      O 2733   7.866   8.175   0.982
  384WAT     H1 2734   7.915   8.222   1.049
  384WAT     H2 2735   7.880   8.082   1.003
  385WAT      O 2736   7.035   8.414   1.359
  385WAT     H1 2737   7.086   8.356   1.416
  385WAT     H2 2738   6.961   8.443   1.413
  386WAT      O 2739   7.741   8.555   1.312
  386WAT     H1 2740   7.664   8.612   1.304
  386WAT     H2 2741   7.759   8.526   1.223
  387WAT      O 2742   7.239   8.228   1.448
  387WAT     H1 2743   7.243   8.199   1.539
  387WAT     H2 2744   7.324   8.268   1.432
  388WAT      O 2745   7.433   8.086   1.245
  388WAT     H1 2746   7.380   8.037   1.182
  388WAT     H2 2747   7.500   8.129   1.192
  389WAT      O 2748   7.481   7.783   1.253
  389WAT     H1 2749   7.472   7.721   1.181
  389WAT     H2 2750   7.423   7.856   1.230
  390WAT      O 2751   7.758   7.639   0.956
  390WAT     H1 2752   7.713   7.641   0.872
  390WAT     H2 2753   7.695   7.599   1.016
  391WAT      O 2754   7.799   8.528   1.019
  391WAT     H1 2755   7.840   8.613   1.001
  391WAT     H2 2756   7.707   8.542   0.996
  392WAT      O 2757   7.709   7.956   1.283
  392WAT     H1 2758   7.768   7.925   1.351
  392WAT     H2 2759   7.627   7.908   1.298
  393WAT      O 2760   7.010   9.015   0.486
  393WAT     H1 2761   7.043   8.928   0.463
  393WAT     H2 2762   7.052   9.036   0.569
  394WAT      O 2763   7.469   8.848   0.252
  394WAT     H1 2764   7.439   8.836   0.342
  394WAT     H2 2765   7.459   8.762   0.211
  395WAT      O 2766   7.042   8.353   0.396
  395WAT     H1 2767   6.976   8.326   0.332
  395WAT     H2 2768   7.126   8.342   0.351
  396WAT      O 2769   7.145   8.391   0.850
  396WAT     H1 2770   7.182   8.383   0.938
  396WAT     H2 2771   7.089   8.315   0.840
  397WAT      O 2772   7.101   8.083   1.241
  397WAT     H1 2773   7.011   8.079   1.275
  397WAT     H2 2774   7.155   8.102   1.317
  398WAT      O 2775   7.151   7.510   0.675
  398WAT     H1 2776   7.216   7.455   0.631
  398WAT     H2 2777   7.193   7.535   0.758
  399WAT      O 2778   7.126   7.526   0.950
  399WAT     H1 2779   7.092   7.571   1.026
  399WAT     H2 2780   7.093   7.436   0.958
  400WAT      O 2781   7.287   8.843   1.366
  400WAT     H1 2782   7.283   8.806   1.454
  400WAT     H2 2783   7.300   8.937   1.380
  401WAT      O 2784   7.657   8.998   0.926
  401WAT     H1 2785   7.633   9.025   0.838
  401WAT     H2 2786   7.751   9.015   0.932
  402WAT      O 2787   7.878   7.645   1.302
  402WAT     H1 2788   7.872   7.704   1.377
  402WAT     H2 2789   7.972   7.634   1.287
  403WAT      O 2790   7.194   7.478   1.277
  403WAT     H1 2791   7.248   7.460   1.201
  403WAT     H2 2792   7.200   7.399   1.331
  404WAT      O 2793   7.234   8.874   0.973
  404WAT     H1 2794   7.161   8.812   0.967
  404WAT     H2 2795   7.240   8.913   0.886
  405WAT      O 2796   7.990   7.558   0.792
  405WAT     H1 2797   7.912   7.606   0.820
  405WAT     H2 2798   7.961   7.468   0.782
  406WAT      O 2799   7.779   7.800   0.344
  406WAT     H1 2800   7.697   7.763   0.310
  406WAT     H2 2801   7.829   7.725   0.374
  407WAT      O 2802   7.581   7.615   0.204
  407WAT     H1 2803   7.518   7.545   0.221
  407WAT     H2 2804   7.527   7.691   0.182
  408WAT      O 2805   7.594   7.543   1.448
  408WAT     H1 2806   7.566   7.593   1.371
  408WAT     H2 2807   7.632   7.463   1.411
  409WAT      O 2808   7.958   6.587   6.240
  409WAT     H1 2809   7.880   6.539   6.269
  409WAT     H2 2810   8.023   6.519   6.222
  410WAT      O 2811   7.359   6.618   6.327
  410WAT     H1 2812   7.276   6.593   6.367
  410WAT     H2 2813   7.420   6.625   6.401
  411WAT      O 2814   7.357   7.022   6.347
  411WAT     H1 2815   7.388   6.933   6.329
  411WAT     H2 2816   7.432   7.077   6.324
  412WAT      O 2817   7.200   6.114   5.706
  412WAT     H1 2818   7.111   6.148   5.696
  412WAT     H2 2819   7.229   6.094   5.617
  413WAT      O 2820   6.997   6.374   6.294
  413WAT     H1 2821   7.054   6.297   6.294
  413WAT     H2 2822   6.997   6.404   6.203
  414WAT      O 2823   7.982   7.256   6.080
  414WAT     H1 2824   7.921   7.302   6.023
  414WAT     H2 2825   8.068   7.272   6.039
  415WAT      O 2826   7.902   6.855   6.240
  415WAT     H1 2827   7.895   6.760   6.224
  415WAT     H2 2828   7.978   6.864   6.297
  416WAT      O 2829   7.121   5.915   6.473
  416WAT     H1 2830   7.103   5.825   6.501
  416WAT     H2 2831   7.081   5.970   6.540
  417WAT      O 2832   8.005   6.135   6.263
  417WAT     H1 2833   8.042   6.048   6.252
  417WAT     H2 2834   7.995   6.169   6.174
  418WAT      O 2835   7.418   5.972   5.809
  418WAT     H1 2836   7.429   6.063   5.840
  418WAT     H2 2837   7.327   5.968   5.780
  419WAT      O 2838   7.183   6.165   6.334
  419WAT     H1 2839   7.251   6.191   6.396
  419WAT     H2 2840   7.151   6.081   6.367
  420WAT      O 2841   7.602   6.269   6.242
  420WAT     H1 2842   7.653   6.319   6.306
  420WAT     H2 2843   7.655   6.192   6.225
  421WAT      O 2844   7.555   6.697   6.487
  421WAT     H1 2845   7.522   6.760   6.551
  421WAT     H2 2846   7.573   6.750   6.409
  422WAT      O 2847   7.398   5.904   6.470
  422WAT     H1 2848   7.433   5.989   6.440
  422WAT     H2 2849   7.305   5.919   6.481
  423WAT      O 2850   7.006   6.813   5.556
  423WAT     H1 2851   6.968   6.862   5.483
  423WAT     H2 2852   7.032   6.880   5.619
  424WAT      O 2853   7.767   5.653   6.102
  424WAT     H1 2854   7.798   5.598   6.031
  424WAT     H2 2855   7.674   5.667   6.084
  425WAT      O 2856   8.006   6.460   5.776
  425WAT     H1 2857   7.913   6.453   5.799
  425WAT     H2 2858   8.021   6.554   5.764
  426WAT      O 2859   8.004   6.087   5.475
  426WAT     H1 2860   7.910   6.103   5.484
  426WAT     H2 2861   8.036   6.159   5.421
  427WAT      O 2862   7.566   6.512   6.054
  427WAT     H1 2863   7.526   6.441   6.004
  427WAT     H2 2864   7.575   6.478   6.143
  428WAT      O 2865   7.613   6.881   6.270
  428WAT     H1 2866   7.583   6.821   6.202
  428WAT     H2 2867   7.708   6.885   6.259
  429WAT      O 2868   7.437   6.190   6.432
  429WAT     H1 2869   7.493   6.201   6.354
  429WAT     H2 2870   7.489   6.227   6.504
  430WAT      O 2871   7.236   6.402   5.804
  430WAT     H1 2872   7.224   6.474   5.743
  430WAT     H2 2873   7.205   6.325   5.756
  431WAT      O 2874   7.000   6.719   6.385
  431WAT     H1 2875   7.008   6.732   6.290
  431WAT     H2 2876   7.061   6.648   6.404
  432WAT      O 2877   7.125   6.889   6.026
  432WAT     H1 2878   7.084   6.903   5.940
  432WAT     H2 2879   7.214   6.861   6.005
  433WAT      O 2880   7.552   7.310   5.837
  433WAT     H1 2881   7.534   7.219   5.816
  433WAT     H2 2882   7.466   7.346   5.861
  434WAT      O 2883   7.483   5.736   6.142
  434WAT     H1 2884   7.438   5.814   6.109
  434WAT     H2 2885   7.539   5.768   6.213
  435WAT      O 2886   7.794   5.698   5.630
  435WAT     H1 2887   7.732   5.698   5.703
  435WAT     H2 2888   7.786   5.612   5.591
  436WAT      O 2889   7.687   5.791   6.328
  436WAT     H1 2890   7.716   5.881   6.320
  436WAT     H2 2891   7.741   5.742   6.267
  437WAT      O 2892   7.462   6.249   5.915
  437WAT     H1 2893   7.439   6.227   6.006
  437WAT     H2 2894   7.384   6.292   5.881
  438WAT      O 2895   6.949   5.772   6.200
  438WAT     H1 2896   6.920   5.829   6.272
  438WAT     H2 2897   7.024   5.724   6.237
  439WAT      O 2898   6.968   6.166   5.321
  439WAT     H1 2899   6.960   6.260   5.336
  439WAT     H2 2900   6.933   6.152   5.233
  440WAT      O 2901   7.748   6.039   6.228
  440WAT     H1 2902   7.748   5.995   6.143
  440WAT     H2 2903   7.837   6.072   6.239
  441WAT      O 2904   7.333   6.028   6.124
  441WAT     H1 2905   7.299   6.075   6.200
  441WAT     H2 2906   7.257   5.982   6.088
  442WAT      O 2907   7.754   6.140   5.527
  442WAT     H1 2908   7.766   6.135   5.622
  442WAT     H2 2909   7.716   6.226   5.512
  443WAT      O 2910   7.655   6.371   5.467
  443WAT     H1 2911   7.598   6.326   5.404
  443WAT     H2 2912   7.726   6.406   5.414
  444WAT      O 2913   7.778   6.445   6.403
  444WAT     H1 2914   7.815   6.398   6.477
  444WAT     H2 2915   7.759   6.533   6.437
  445WAT      O 2916   7.064   5.920   6.016
  445WAT     H1 2917   7.036   5.883   6.099
  445WAT     H2 2918   7.058   5.847   5.954
  446WAT      O 2919   7.410   6.770   5.694
  446WAT     H1 2920   7.332   6.716   5.678
  446WAT     H2 2921   7.483   6.718   5.660
  447WAT      O 2922   8.032   5.809   5.688
  447WAT     H1 2923   7.950   5.759   5.680
  447WAT     H2 2924   8.012   5.893   5.646
  448WAT      O 2925   7.414   6.737   6.058
  448WAT     H1 2926   7.466   6.657   6.053
  448WAT     H2 2927   7.369   6.731   6.142
  449WAT      O 2928   7.903   6.864   5.585
  449WAT     H1 2929   7.937   6.938   5.536
  449WAT     H2 2930   7.820   6.895   5.622
  450WAT      O 2931   7.800   6.872   5.862
  450WAT     H1 2932   7.868   6.926   5.901
  450WAT     H2 2933   7.721   6.926   5.866
  451WAT      O 2934   7.014   6.433   5.412
  451WAT     H1 2935   7.101   6.462   5.440
  451WAT     H2 2936   6.965   6.515   5.400
  452WAT      O 2937   7.730   6.572   5.824
  452WAT     H1 2938   7.776   6.653   5.846
  452WAT     H2 2939   7.695   6.540   5.907
  453WAT      O 2940   7.960   7.123   6.547
  453WAT     H1 2941   8.025   7.144   6.614
  453WAT     H2 2942   7.997   7.047   6.501
  454WAT      O 2943   7.320   5.607   5.871
  454WAT     H1 2944   7.307   5.606   5.966
  454WAT     H2 2945   7.238   5.640   5.836
  455WAT      O 2946   7.050   7.355   5.468
  455WAT     H1 2947   7.086   7.415   5.403
  455WAT     H2 2948   7.036   7.409   5.546
  456WAT      O 2949   7.652   7.093   5.550
  456WAT     H1 2950   7.651   7.166   5.488
  456WAT     H2 2951   7.560   7.068   5.559
  457WAT      O 2952   7.212   6.615   5.624
  457WAT     H1 2953   7.151   6.689   5.625
  457WAT     H2 2954   7.260   6.624   5.542
  458WAT      O 2955   7.951   7.099   5.416
  458WAT     H1 2956   7.961   7.079   5.323
  458WAT     H2 2957   7.861   7.074   5.437
  459WAT      O 2958   7.703   6.155   5.814
  459WAT     H1 2959   7.632   6.202   5.859
  459WAT     H2 2960   7.731   6.089   5.878
  460WAT      O 2961   7.815   7.351   5.886
  460WAT     H1 2962   7.840   7.347   5.793
  460WAT     H2 2963   7.720   7.338   5.885
  461WAT      O 2964   7.523   5.986   5.552
  461WAT     H1 2965   7.608   6.030   5.545
  461WAT     H2 2966   7.487   6.017   5.635
  462WAT      O 2967   7.413   6.611   5.399
  462WAT     H1 2968   7.490   6.600   5.456
  462WAT     H2 2969   7.421   6.542   5.334
  463WAT      O 2970   7.283   6.355   5.468
  463WAT     H1 2971   7.291   6.260   5.479
  463WAT     H2 2972   7.372   6.388   5.478
  464WAT      O 2973   7.363   7.369   6.178
  464WAT     H1 2974   7.436   7.315   6.205
  464WAT     H2 2975   7.401   7.456   6.164
  465WAT      O 2976   7.051   6.976   5.765
  465WAT     H1 2977   6.959   7.000   5.764
  465WAT     H2 2978   7.098   7.059   5.753
  466WAT      O 2979   7.674   7.287   5.360
  466WAT     H1 2980   7.753   7.316   5.315
  466WAT     H2 2981   7.622   7.244   5.292
  467WAT      O 2982   7.726   6.809   5.347
  467WAT     H1 2983   7.715   6.747   5.419
  467WAT     H2 2984   7.709   6.756   5.268
  468WAT      O 2985   7.616   6.611   5.597
  468WAT     H1 2986   7.659   6.594   5.681
  468WAT     H2 2987   7.629   6.530   5.547
  469WAT      O 2988   7.868   6.513   5.322
  469WAT     H1 2989   7.920   6.442   5.285
  469WAT     H2 2990   7.932   6.577   5.352
  470WAT      O 2991   7.758   5.761   6.589
  470WAT     H1 2992   7.713   5.763   6.504
  470WAT     H2 2993   7.695   5.721   6.648
  471WAT      O 2994   7.799   6.651   6.651
  471WAT     H1 2995   7.840   6.735   6.634
  471WAT     H2 2996   7.707   6.665   6.628
  472WAT      O 2997   7.506   6.218   5.291
  472WAT     H1 2998   7.486   6.132   5.327
  472WAT     H2 2999   7.489   6.210   5.198
  473WAT      O 3000   7.386   5.928   5.290
  473WAT     H1 3001   7.416   5.929   5.199
  473WAT     H2 3002   7.460   5.893   5.340
  474WAT      O 3003   7.708   5.823   5.389
  474WAT     H1 3004   7.673   5.755   5.331
  474WAT     H2 3005   7.728   5.777   5.470
  475WAT      O 3006   7.924   7.321   5.551
  475WAT     H1 3007   8.014   7.355   5.553
  475WAT     H2 3008   7.927   7.249   5.488
  476WAT      O 3009   7.288   6.859   5.373
  476WAT     H1 3010   7.332   6.913   5.439
  476WAT     H2 3011   7.337   6.776   5.374
  477WAT      O 3012   7.010   7.138   6.119
  477WAT     H1 3013   7.043   7.051   6.095
  477WAT     H2 3014   7.052   7.158   6.202
  478WAT      O 3015   7.469   6.971   5.885
  478WAT     H1 3016   7.439   6.958   5.975
  478WAT     H2 3017   7.459   6.885   5.844
  479WAT      O 3018   7.058   7.224   6.392
  479WAT     H1 3019   7.015   7.242   6.476
  479WAT     H2 3020   7.115   7.300   6.378
  480WAT      O 3021   7.042   6.475   6.028
  480WAT     H1 3022   6.976   6.449   5.964
  480WAT     H2 3023   7.126   6.465   5.983
  481WAT      O 3024   7.145   6.514   6.482
  481WAT     H1 3025   7.182   6.505   6.570
  481WAT     H2 3026   7.089   6.438   6.472
  482WAT      O 3027   6.963   6.196   5.623
  482WAT     H1 3028   6.873   6.223   5.605
  482WAT     H2 3029   7.012   6.224   5.545
  483WAT      O 3030   7.217   6.102   5.414
  483WAT     H1 3031   7.288   6.060   5.365
  483WAT     H2 3032   7.146   6.109   5.350
  484WAT      O 3033   7.182   5.708   5.318
  484WAT     H1 3034   7.254   5.762   5.349
  484WAT     H2 3035   7.209   5.680   5.230
  485WAT      O 3036   7.151   5.633   6.308
  485WAT     H1 3037   7.216   5.578   6.264
  485WAT     H2 3038   7.193   5.658   6.390
  486WAT      O 3039   7.657   7.121   6.559
  486WAT     H1 3040   7.633   7.148   6.470
  486WAT     H2 3041   7.751   7.138   6.564
  487WAT      O 3042   7.234   6.997   6.606
  487WAT     H1 3043   7.161   6.935   6.599
  487WAT     H2 3044   7.240   7.036   6.519
  488WAT      O 3045   7.594   7.218   6.284
  488WAT     H1 3046   7.646   7.157   6.232
  488WAT     H2 3047   7.659   7.268   6.333
  489WAT      O 3048   7.868   7.307   6.367
  489WAT     H1 3049   7.897   7.282   6.279
  489WAT     H2 3050   7.920   7.252   6.426
  490WAT      O 3051   7.990   5.681   6.425
  490WAT     H1 3052   7.912   5.728   6.453
  490WAT     H2 3053   7.961   5.591   6.414
  491WAT      O 3054   7.062   7.328   5.927
  491WAT     H1 3055   7.046   7.265   5.996
  491WAT     H2 3056   6.976   7.349   5.892
  492WAT      O 3057   7.125   5.711   5.677
  492WAT     H1 3058   7.200   5.723   5.620
  492WAT     H2 3059   7.078   5.795   5.672
  493WAT      O 3060   7.779   5.923   5.976
  493WAT     H1 3061   7.697   5.885   5.942
  493WAT     H2 3062   7.829   5.847   6.006
  494WAT      O 3063   7.223   7.198   5.671
  494WAT     H1 3064   7.170   7.236   5.601
  494WAT     H2 3065   7.215   7.260   5.743
  495WAT      O 3066   7.362   5.764   5.531
  495WAT     H1 3067   7.415   5.685   5.518
  495WAT     H2 3068   7.425   5.832   5.554
  496WAT      O 3069   7.581   5.738   5.836
  496WAT     H1 3070   7.518   5.668   5.853
  496WAT     H2 3071   7.527   5.814   5.815
  497WAT      O 3072   7.483   7.392   5.559
  497WAT     H1 3073   7.556   7.364   5.504
  497WAT     H2 3074   7.509   7.369   5.648
  498WAT      O 3075   7.399   7.004   5.559
  498WAT     H1 3076   7.336   7.051   5.614
  498WAT     H2 3077   7.410   6.920   5.602
  499WAT      O 3078   7.958   6.587   4.362
  499WAT     H1 3079   7.880   6.539   4.391
  499WAT     H2 3080   8.023   6.519   4.345
  500WAT      O 3081   7.359   6.618   4.450
  500WAT     H1 3082   7.276   6.593   4.490
  500WAT     H2 3083   7.420   6.625   4.523
  501WAT      O 3084   7.357   7.022   4.469
  501WAT     H1 3085   7.388   6.933   4.452
  501WAT     H2 3086   7.432   7.077   4.447
  502WAT      O 3087   7.200   6.114   3.828
  502WAT     H1 3088   7.111   6.148   3.818
  502WAT     H2 3089   7.229   6.094   3.739
  503WAT      O 3090   6.997   6.374   4.417
  503WAT     H1 3091   7.054   6.297   4.417
  503WAT     H2 3092   6.997   6.404   4.326
  504WAT      O 3093   7.982   7.256   4.202
  504WAT     H1 3094   7.921   7.302   4.145
  504WAT     H2 3095   8.068   7.272   4.162
  505WAT      O 3096   7.902   6.855   4.363
  505WAT     H1 3097   7.895   6.760   4.347
  505WAT     H2 3098   7.978   6.864   4.420
  506WAT      O 3099   7.121   5.915   4.595
  506WAT     H1 3100   7.103   5.825   4.623
  506WAT     H2 3101   7.081   5.970   4.663
  507WAT      O 3102   8.005   6.135   4.386
  507WAT     H1 3103   8.042   6.048   4.374
  507WAT     H2 3104   7.995   6.169   4.296
  508WAT      O 3105   7.418   5.972   3.932
  508WAT     H1 3106   7.429   6.063   3.962
  508WAT     H2 3107   7.327   5.968   3.903
  509WAT      O 3108   7.183   6.165   4.456
  509WAT     H1 3109   7.251   6.191   4.518
  509WAT     H2 3110   7.151   6.081   4.490
  510WAT      O 3111   7.602   6.269   4.365
  510WAT     H1 3112   7.653   6.319   4.429
  510WAT     H2 3113   7.655   6.192   4.347
  511WAT      O 3114   7.430   5.733   4.792
  511WAT     H1 3115   7.431   5.785   4.711
  511WAT     H2 3116   7.347   5.686   4.789
  512WAT      O 3117   7.555   6.697   4.609
  512WAT     H1 3118   7.522   6.760   4.674
  512WAT     H2 3119   7.573   6.750   4.531
  513WAT      O 3120   7.398   5.904   4.592
  513WAT     H1 3121   7.433   5.989   4.563
  513WAT     H2 3122   7.305   5.919   4.604
  514WAT      O 3123   7.477   6.894   4.791
  514WAT     H1 3124   7.538   6.962   4.763
  514WAT     H2 3125   7.390   6.935   4.782
  515WAT      O 3126   7.006   6.813   3.679
  515WAT     H1 3127   6.968   6.862   3.606
  515WAT     H2 3128   7.032   6.880   3.742
  516WAT      O 3129   7.767   5.653   4.225
  516WAT     H1 3130   7.798   5.598   4.153
  516WAT     H2 3131   7.674   5.667   4.206
  517WAT      O 3132   8.006   6.460   3.898
  517WAT     H1 3133   7.913   6.453   3.921
  517WAT     H2 3134   8.021   6.554   3.887
  518WAT      O 3135   8.004   6.087   3.598
  518WAT     H1 3136   7.910   6.103   3.607
  518WAT     H2 3137   8.036   6.159   3.543
  519WAT      O 3138   7.566   6.512   4.177
  519WAT     H1 3139   7.526   6.441   4.127
  519WAT     H2 3140   7.575   6.478   4.265
  520WAT      O 3141   7.613   6.881   4.393
  520WAT     H1 3142   7.583   6.821   4.325
  520WAT     H2 3143   7.708   6.885   4.382
  521WAT      O 3144   7.437   6.190   4.555
  521WAT     H1 3145   7.493   6.201   4.477
  521WAT     H2 3146   7.489   6.227   4.626
  522WAT      O 3147   7.522   6.855   5.058
  522WAT     H1 3148   7.432   6.877   5.083
  522WAT     H2 3149   7.525   6.867   4.963
  523WAT      O 3150   7.405   6.542   4.916
  523WAT     H1 3151   7.391   6.629   4.952
  523WAT     H2 3152   7.317   6.508   4.901
  524WAT      O 3153   7.585   7.136   5.136
  524WAT     H1 3154   7.582   7.177   5.050
  524WAT     H2 3155   7.568   7.043   5.120
  525WAT      O 3156   7.236   6.402   3.927
  525WAT     H1 3157   7.224   6.474   3.865
  525WAT     H2 3158   7.205   6.325   3.879
  526WAT      O 3159   7.000   6.719   4.507
  526WAT     H1 3160   7.008   6.732   4.413
  526WAT     H2 3161   7.061   6.648   4.527
  527WAT      O 3162   7.125   6.889   4.148
  527WAT     H1 3163   7.084   6.903   4.063
  527WAT     H2 3164   7.214   6.861   4.128
  528WAT      O 3165   7.552   7.310   3.960
  528WAT     H1 3166   7.534   7.219   3.938
  528WAT     H2 3167   7.466   7.346   3.984
  529WAT      O 3168   7.006   6.823   4.761
  529WAT     H1 3169   7.022   6.776   4.679
  529WAT     H2 3170   7.052   6.772   4.828
  530WAT      O 3171   7.483   5.736   4.265
  530WAT     H1 3172   7.438   5.814   4.232
  530WAT     H2 3173   7.539   5.768   4.336
  531WAT      O 3174   7.912   6.023   4.825
  531WAT     H1 3175   7.865   6.044   4.906
  531WAT     H2 3176   7.871   5.941   4.795
  532WAT      O 3177   7.794   5.698   3.753
  532WAT     H1 3178   7.732   5.698   3.825
  532WAT     H2 3179   7.786   5.612   3.713
  533WAT      O 3180   7.687   5.791   4.451
  533WAT     H1 3181   7.716   5.881   4.443
  533WAT     H2 3182   7.741   5.742   4.389
  534WAT      O 3183   7.462   6.249   4.038
  534WAT     H1 3184   7.439   6.227   4.128
  534WAT     H2 3185   7.384   6.292   4.003
  535WAT      O 3186   7.706   6.338   5.104
  535WAT     H1 3187   7.696   6.244   5.089
  535WAT     H2 3188   7.790   6.361   5.065
  536WAT      O 3189   7.219   5.980   4.920
  536WAT     H1 3190   7.180   6.064   4.940
  536WAT     H2 3191   7.150   5.916   4.939
  537WAT      O 3192   7.877   5.988   5.227
  537WAT     H1 3193   7.807   5.969   5.290
  537WAT     H2 3194   7.951   6.016   5.280
  538WAT      O 3195   6.949   5.772   4.323
  538WAT     H1 3196   6.920   5.829   4.394
  538WAT     H2 3197   7.024   5.724   4.359
  539WAT      O 3198   6.968   6.166   3.444
  539WAT     H1 3199   6.960   6.260   3.458
  539WAT     H2 3200   6.933   6.152   3.356
  540WAT      O 3201   7.748   6.039   4.351
  540WAT     H1 3202   7.748   5.995   4.266
  540WAT     H2 3203   7.837   6.072   4.361
  541WAT      O 3204   7.333   6.028   4.247
  541WAT     H1 3205   7.299   6.075   4.322
  541WAT     H2 3206   7.257   5.982   4.211
  542WAT      O 3207   7.754   6.140   3.650
  542WAT     H1 3208   7.766   6.135   3.745
  542WAT     H2 3209   7.716   6.226   3.634
  543WAT      O 3210   7.655   6.371   3.590
  543WAT     H1 3211   7.598   6.326   3.527
  543WAT     H2 3212   7.726   6.406   3.536
  544WAT      O 3213   7.163   6.761   4.977
  544WAT     H1 3214   7.125   6.697   5.037
  544WAT     H2 3215   7.194   6.831   5.034
  545WAT      O 3216   7.778   6.445   4.525
  545WAT     H1 3217   7.815   6.398   4.600
  545WAT     H2 3218   7.759   6.533   4.559
  546WAT      O 3219   7.064   5.920   4.138
  546WAT     H1 3220   7.036   5.883   4.222
  546WAT     H2 3221   7.058   5.847   4.077
  547WAT      O 3222   7.557   6.349   4.757
  547WAT     H1 3223   7.527   6.437   4.780
  547WAT     H2 3224   7.652   6.355   4.761
  548WAT      O 3225   7.410   6.770   3.817
  548WAT     H1 3226   7.332   6.716   3.801
  548WAT     H2 3227   7.483   6.718   3.783
  549WAT      O 3228   8.032   5.809   3.810
  549WAT     H1 3229   7.950   5.759   3.803
  549WAT     H2 3230   8.012   5.893   3.769
  550WAT      O 3231   8.024   6.677   4.985
  550WAT     H1 3232   8.017   6.585   4.959
  550WAT     H2 3233   7.961   6.687   5.056
  551WAT      O 3234   7.414   6.737   4.181
  551WAT     H1 3235   7.466   6.657   4.175
  551WAT     H2 3236   7.369   6.731   4.265
  552WAT      O 3237   7.903   6.864   3.708
  552WAT     H1 3238   7.937   6.938   3.658
  552WAT     H2 3239   7.820   6.895   3.744
  553WAT      O 3240   7.163   6.434   4.872
  553WAT     H1 3241   7.127   6.500   4.931
  553WAT     H2 3242   7.133   6.350   4.909
  554WAT      O 3243   7.483   6.479   5.160
  554WAT     H1 3244   7.453   6.494   5.071
  554WAT     H2 3245   7.560   6.423   5.151
  555WAT      O 3246   8.017   6.959   4.960
  555WAT     H1 3247   8.018   6.866   4.938
  555WAT     H2 3248   7.946   6.968   5.024
  556WAT      O 3249   7.800   6.872   3.985
  556WAT     H1 3250   7.868   6.926   4.023
  556WAT     H2 3251   7.721   6.926   3.989
  557WAT      O 3252   7.014   6.433   3.534
  557WAT     H1 3253   7.101   6.462   3.563
  557WAT     H2 3254   6.965   6.515   3.523
  558WAT      O 3255   7.730   6.572   3.946
  558WAT     H1 3256   7.776   6.653   3.969
  558WAT     H2 3257   7.695   6.540   4.029
  559WAT      O 3258   7.960   7.123   4.669
  559WAT     H1 3259   8.025   7.144   4.737
  559WAT     H2 3260   7.997   7.047   4.624
  560WAT      O 3261   7.320   5.607   3.993
  560WAT     H1 3262   7.307   5.606   4.088
  560WAT     H2 3263   7.238   5.640   3.958
  561WAT      O 3264   7.050   7.355   3.591
  561WAT     H1 3265   7.086   7.415   3.525
  561WAT     H2 3266   7.036   7.409   3.668
  562WAT      O 3267   7.020   5.782   4.940
  562WAT     H1 3268   6.949   5.802   5.000
  562WAT     H2 3269   7.062   5.705   4.977
  563WAT      O 3270   7.049   7.181   5.038
  563WAT     H1 3271   7.060   7.087   5.024
  563WAT     H2 3272   6.984   7.208   4.973
  564WAT      O 3273   7.848   7.008   5.178
  564WAT     H1 3274   7.816   6.937   5.233
  564WAT     H2 3275   7.781   7.076   5.186
  565WAT      O 3276   7.652   7.093   3.673
  565WAT     H1 3277   7.651   7.166   3.611
  565WAT     H2 3278   7.560   7.068   3.682
  566WAT      O 3279   7.212   6.615   3.747
  566WAT     H1 3280   7.151   6.689   3.748
  566WAT     H2 3281   7.260   6.624   3.664
  567WAT      O 3282   7.951   7.099   3.539
  567WAT     H1 3283   7.961   7.079   3.446
  567WAT     H2 3284   7.861   7.074   3.559
  568WAT      O 3285   7.703   6.155   3.937
  568WAT     H1 3286   7.632   6.202   3.981
  568WAT     H2 3287   7.731   6.089   4.000
  569WAT      O 3288   7.866   6.297   4.737
  569WAT     H1 3289   7.915   6.345   4.803
  569WAT     H2 3290   7.880   6.205   4.758
  570WAT      O 3291   7.815   7.351   4.008
  570WAT     H1 3292   7.840   7.347   3.916
  570WAT     H2 3293   7.720   7.338   4.008
  571WAT      O 3294   7.523   5.986   3.675
  571WAT     H1 3295   7.608   6.030   3.668
  571WAT     H2 3296   7.487   6.017   3.757
  572WAT      O 3297   7.413   6.611   3.522
  572WAT     H1 3298   7.490   6.600   3.578
  572WAT     H2 3299   7.421   6.542   3.457
  573WAT      O 3300   7.283   6.355   3.590
  573WAT     H1 3301   7.291   6.260   3.601
  573WAT     H2 3302   7.372   6.388   3.601
  574WAT      O 3303   7.363   7.369   4.301
  574WAT     H1 3304   7.436   7.315   4.328
  574WAT     H2 3305   7.401   7.456   4.287
  575WAT      O 3306   7.051   6.976   3.888
  575WAT     H1 3307   6.959   7.000   3.887
  575WAT     H2 3308   7.098   7.059   3.876
  576WAT      O 3309   7.263   7.288   5.219
  576WAT     H1 3310   7.344   7.320   5.261
  576WAT     H2 3311   7.212   7.252   5.292
  577WAT      O 3312   7.674   7.287   3.483
  577WAT     H1 3313   7.753   7.316   3.438
  577WAT     H2 3314   7.622   7.244   3.415
  578WAT      O 3315   7.035   6.537   5.114
  578WAT     H1 3316   7.086   6.479   5.171
  578WAT     H2 3317   6.961   6.565   5.168
  579WAT      O 3318   7.726   6.809   3.469
  579WAT     H1 3319   7.715   6.747   3.542
  579WAT     H2 3320   7.709   6.756   3.391
  580WAT      O 3321   7.741   6.677   5.067
  580WAT     H1 3322   7.664   6.734   5.059
  580WAT     H2 3323   7.759   6.648   4.978
  581WAT      O 3324   7.239   6.351   5.203
  581WAT     H1 3325   7.243   6.321   5.294
  581WAT     H2 3326   7.324   6.391   5.187
  582WAT      O 3327   7.616   6.611   3.719
  582WAT     H1 3328   7.659   6.594   3.804
  582WAT     H2 3329   7.629   6.530   3.670
  583WAT      O 3330   7.433   6.209   5.000
  583WAT     H1 3331   7.380   6.160   4.937
  583WAT     H2 3332   7.500   6.252   4.947
  584WAT      O 3333   7.868   6.513   3.444
  584WAT     H1 3334   7.920   6.442   3.407
  584WAT     H2 3335   7.932   6.577   3.474
  585WAT      O 3336   7.481   5.906   5.008
  585WAT     H1 3337   7.472   5.844   4.936
  585WAT     H2 3338   7.423   5.978   4.985
  586WAT      O 3339   7.758   5.761   4.711
  586WAT     H1 3340   7.713   5.763   4.627
  586WAT     H2 3341   7.695   5.721   4.771
  587WAT      O 3342   7.799   6.651   4.773
  587WAT     H1 3343   7.840   6.735   4.756
  587WAT     H2 3344   7.707   6.665   4.750
  588WAT      O 3345   7.506   6.218   3.414
  588WAT     H1 3346   7.486   6.132   3.450
  588WAT     H2 3347   7.489   6.210   3.320
  589WAT      O 3348   7.584   7.281   4.885
  589WAT     H1 3349   7.530   7.354   4.853
  589WAT     H2 3350   7.609   7.234   4.806
  590WAT      O 3351   7.709   6.078   5.038
  590WAT     H1 3352   7.768   6.047   5.106
  590WAT     H2 3353   7.627   6.031   5.053
  591WAT      O 3354   7.386   5.928   3.413
  591WAT     H1 3355   7.416   5.929   3.322
  591WAT     H2 3356   7.460   5.893   3.462
  592WAT      O 3357   7.869   7.405   4.911
  592WAT     H1 3358   7.862   7.495   4.942
  592WAT     H2 3359   7.779   7.373   4.908
  593WAT      O 3360   7.708   5.823   3.511
  593WAT     H1 3361   7.673   5.755   3.453
  593WAT     H2 3362   7.728   5.777   3.593
  594WAT      O 3363   7.924   7.321   3.673
  594WAT     H1 3364   8.014   7.355   3.675
  594WAT     H2 3365   7.927   7.249   3.610
  595WAT      O 3366   7.288   6.859   3.496
  595WAT     H1 3367   7.332   6.913   3.562
  595WAT     H2 3368   7.337   6.776   3.497
  596WAT      O 3369   7.010   7.138   4.241
  596WAT     H1 3370   7.043   7.051   4.218
  596WAT     H2 3371   7.052   7.158   4.324
  597WAT      O 3372   7.469   6.971   4.007
  597WAT     H1 3373   7.439   6.958   4.097
  597WAT     H2 3374   7.459   6.885   3.966
  598WAT      O 3375   7.058   7.224   4.515
  598WAT     H1 3376   7.015   7.242   4.598
  598WAT     H2 3377   7.115   7.300   4.501
  599WAT      O 3378   7.042   6.475   4.151
  599WAT     H1 3379   6.976   6.449   4.086
  599WAT     H2 3380   7.126   6.465   4.106
  600WAT      O 3381   7.145   6.514   4.605
  600WAT     H1 3382   7.182   6.505   4.693
  600WAT     H2 3383   7.089   6.438   4.595
  601WAT      O 3384   7.101   6.205   4.995
  601WAT     H1 3385   7.011   6.202   5.029
  601WAT     H2 3386   7.155   6.225   5.072
  602WAT      O 3387   6.963   6.196   3.745
  602WAT     H1 3388   6.873   6.223   3.728
  602WAT     H2 3389   7.012   6.224   3.667
  603WAT      O 3390   7.217   6.102   3.536
  603WAT     H1 3391   7.288   6.060   3.488
  603WAT     H2 3392   7.146   6.109   3.473
  604WAT      O 3393   7.182   5.708   3.440
  604WAT     H1 3394   7.254   5.762   3.472
  604WAT     H2 3395   7.209   5.680   3.353
  605WAT      O 3396   7.151   5.633   4.430
  605WAT     H1 3397   7.216   5.578   4.386
  605WAT     H2 3398   7.193   5.658   4.512
  606WAT      O 3399   7.126   5.648   4.705
  606WAT     H1 3400   7.092   5.694   4.781
  606WAT     H2 3401   7.093   5.559   4.713
  607WAT      O 3402   7.287   6.965   5.121
  607WAT     H1 3403   7.283   6.928   5.209
  607WAT     H2 3404   7.300   7.059   5.135
  608WAT      O 3405   7.657   7.121   4.681
  608WAT     H1 3406   7.633   7.148   4.593
  608WAT     H2 3407   7.751   7.138   4.687
  609WAT      O 3408   7.878   5.767   5.057
  609WAT     H1 3409   7.872   5.826   5.132
  609WAT     H2 3410   7.972   5.757   5.042
  610WAT      O 3411   7.194   5.601   5.032
  610WAT     H1 3412   7.248   5.583   4.956
  610WAT     H2 3413   7.200   5.522   5.086
  611WAT      O 3414   7.271   7.260   4.833
  611WAT     H1 3415   7.211   7.247   4.907
  611WAT     H2 3416   7.270   7.176   4.787
  612WAT      O 3417   7.234   6.997   4.728
  612WAT     H1 3418   7.161   6.935   4.721
  612WAT     H2 3419   7.240   7.036   4.641
  613WAT      O 3420   7.594   7.218   4.407
  613WAT     H1 3421   7.646   7.157   4.354
  613WAT     H2 3422   7.659   7.268   4.456
  614WAT      O 3423   7.868   7.307   4.489
  614WAT     H1 3424   7.897   7.282   4.402
  614WAT     H2 3425   7.920   7.252   4.548
  615WAT      O 3426   7.990   5.681   4.547
  615WAT     H1 3427   7.912   5.728   4.575
  615WAT     H2 3428   7.961   5.591   4.536
  616WAT      O 3429   7.062   7.328   4.049
  616WAT     H1 3430   7.046   7.265   4.119
  616WAT     H2 3431   6.976   7.349   4.014
  617WAT      O 3432   7.125   5.711   3.799
  617WAT     H1 3433   7.200   5.723   3.742
  617WAT     H2 3434   7.078   5.795   3.795
  618WAT      O 3435   7.779   5.923   4.098
  618WAT     H1 3436   7.697   5.885   4.064
  618WAT     H2 3437   7.829   5.847   4.129
  619WAT      O 3438   7.223   7.198   3.794
  619WAT     H1 3439   7.170   7.236   3.723
  619WAT     H2 3440   7.215   7.260   3.866
  620WAT      O 3441   7.362   5.764   3.653
  620WAT     H1 3442   7.415   5.685   3.641
  620WAT     H2 3443   7.425   5.832   3.677
  621WAT      O 3444   7.581   5.738   3.959
  621WAT     H1 3445   7.518   5.668   3.976
  621WAT     H2 3446   7.527   5.814   3.937
  622WAT      O 3447   7.875   7.399   5.226
  622WAT     H1 3448   7.968   7.376   5.230
  622WAT     H2 3449   7.874   7.482   5.178
  623WAT      O 3450   7.594   5.666   5.202
  623WAT     H1 3451   7.566   5.716   5.126
  623WAT     H2 3452   7.632   5.586   5.166
  624WAT      O 3453   7.483   7.392   3.681
  624WAT     H1 3454   7.556   7.364   3.626
  624WAT     H2 3455   7.509   7.369   3.770
  625WAT      O 3456   7.399   7.004   3.682
  625WAT     H1 3457   7.336   7.051   3.736
  625WAT     H2 3458   7.410   6.920   3.725
  626WAT      O 3459   7.958   6.587   2.485
  626WAT     H1 3460   7.880   6.539   2.514
  626WAT     H2 3461   8.023   6.519   2.467
  627WAT      O 3462   7.359   6.618   2.572
  627WAT     H1 3463   7.276   6.593   2.612
  627WAT     H2 3464   7.420   6.625   2.646
  628WAT      O 3465   7.357   7.022   2.592
  628WAT     H1 3466   7.388   6.933   2.574
  628WAT     H2 3467   7.432   7.077   2.569
  629WAT      O 3468   7.200   6.114   1.951
  629WAT     H1 3469   7.111   6.148   1.941
  629WAT     H2 3470   7.229   6.094   1.862
  630WAT      O 3471   6.997   6.374   2.539
  630WAT     H1 3472   7.054   6.297   2.539
  630WAT     H2 3473   6.997   6.404   2.448
  631WAT      O 3474   7.982   7.256   2.325
  631WAT     H1 3475   7.921   7.302   2.268
  631WAT     H2 3476   8.068   7.272   2.285
  632WAT      O 3477   7.902   6.855   2.485
  632WAT     H1 3478   7.895   6.760   2.469
  632WAT     H2 3479   7.978   6.864   2.543
  633WAT      O 3480   7.121   5.915   2.718
  633WAT     H1 3481   7.103   5.825   2.746
  633WAT     H2 3482   7.081   5.970   2.785
  634WAT      O 3483   8.005   6.135   2.508
  634WAT     H1 3484   8.042   6.048   2.497
  634WAT     H2 3485   7.995   6.169   2.419
  635WAT      O 3486   7.418   5.972   2.054
  635WAT     H1 3487   7.429   6.063   2.085
  635WAT     H2 3488   7.327   5.968   2.025
  636WAT      O 3489   7.183   6.165   2.579
  636WAT     H1 3490   7.251   6.191   2.641
  636WAT     H2 3491   7.151   6.081   2.612
  637WAT      O 3492   7.602   6.269   2.488
  637WAT     H1 3493   7.653   6.319   2.552
  637WAT     H2 3494   7.655   6.192   2.470
  638WAT      O 3495   7.430   5.733   2.914
  638WAT     H1 3496   7.431   5.785   2.834
  638WAT     H2 3497   7.347   5.686   2.912
  639WAT      O 3498   7.555   6.697   2.732
  639WAT     H1 3499   7.522   6.760   2.796
  639WAT     H2 3500   7.573   6.750   2.654
  640WAT      O 3501   7.398   5.904   2.715
  640WAT     H1 3502   7.433   5.989   2.685
  640WAT     H2 3503   7.305   5.919   2.727
  641WAT      O 3504   7.477   6.894   2.913
  641WAT     H1 3505   7.538   6.962   2.885
  641WAT     H2 3506   7.390   6.935   2.904
  642WAT      O 3507   7.006   6.813   1.801
  642WAT     H1 3508   6.968   6.862   1.728
  642WAT     H2 3509   7.032   6.880   1.865
  643WAT      O 3510   7.767   5.653   2.347
  643WAT     H1 3511   7.798   5.598   2.276
  643WAT     H2 3512   7.674   5.667   2.329
  644WAT      O 3513   8.006   6.460   2.021
  644WAT     H1 3514   7.913   6.453   2.044
  644WAT     H2 3515   8.021   6.554   2.009
  645WAT      O 3516   8.004   6.087   1.721
  645WAT     H1 3517   7.910   6.103   1.729
  645WAT     H2 3518   8.036   6.159   1.666
  646WAT      O 3519   7.566   6.512   2.299
  646WAT     H1 3520   7.526   6.441   2.250
  646WAT     H2 3521   7.575   6.478   2.388
  647WAT      O 3522   7.613   6.881   2.515
  647WAT     H1 3523   7.583   6.821   2.448
  647WAT     H2 3524   7.708   6.885   2.504
  648WAT      O 3525   7.437   6.190   2.677
  648WAT     H1 3526   7.493   6.201   2.600
  648WAT     H2 3527   7.489   6.227   2.749
  649WAT      O 3528   7.522   6.855   3.181
  649WAT     H1 3529   7.432   6.877   3.205
  649WAT     H2 3530   7.525   6.867   3.086
  650WAT      O 3531   7.405   6.542   3.038
  650WAT     H1 3532   7.391   6.629   3.075
  650WAT     H2 3533   7.317   6.508   3.024
  651WAT      O 3534   7.585   7.136   3.259
  651WAT     H1 3535   7.582   7.177   3.172
  651WAT     H2 3536   7.568   7.043   3.243
  652WAT      O 3537   7.236   6.402   2.049
  652WAT     H1 3538   7.224   6.474   1.988
  652WAT     H2 3539   7.205   6.325   2.001
  653WAT      O 3540   7.000   6.719   2.630
  653WAT     H1 3541   7.008   6.732   2.535
  653WAT     H2 3542   7.061   6.648   2.649
  654WAT      O 3543   7.125   6.889   2.271
  654WAT     H1 3544   7.084   6.903   2.185
  654WAT     H2 3545   7.214   6.861   2.251
  655WAT      O 3546   7.552   7.310   2.082
  655WAT     H1 3547   7.534   7.219   2.061
  655WAT     H2 3548   7.466   7.346   2.106
  656WAT      O 3549   7.006   6.823   2.884
  656WAT     H1 3550   7.022   6.776   2.802
  656WAT     H2 3551   7.052   6.772   2.950
  657WAT      O 3552   7.483   5.736   2.387
  657WAT     H1 3553   7.438   5.814   2.354
  657WAT     H2 3554   7.539   5.768   2.458
  658WAT      O 3555   7.912   6.023   2.948
  658WAT     H1 3556   7.865   6.044   3.029
  658WAT     H2 3557   7.871   5.941   2.917
  659WAT      O 3558   7.794   5.698   1.875
  659WAT     H1 3559   7.732   5.698   1.948
  659WAT     H2 3560   7.786   5.612   1.836
  660WAT      O 3561   7.687   5.791   2.573
  660WAT     H1 3562   7.716   5.881   2.565
  660WAT     H2 3563   7.741   5.742   2.512
  661WAT      O 3564   7.462   6.249   2.160
  661WAT     H1 3565   7.439   6.227   2.251
  661WAT     H2 3566   7.384   6.292   2.126
  662WAT      O 3567   7.706   6.338   3.227
  662WAT     H1 3568   7.696   6.244   3.212
  662WAT     H2 3569   7.790   6.361   3.187
  663WAT      O 3570   7.219   5.980   3.042
  663WAT     H1 3571   7.180   6.064   3.063
  663WAT     H2 3572   7.150   5.916   3.061
  664WAT      O 3573   7.877   5.988   3.349
  664WAT     H1 3574   7.807   5.969   3.413
  664WAT     H2 3575   7.951   6.016   3.402
  665WAT      O 3576   6.949   5.772   2.445
  665WAT     H1 3577   6.920   5.829   2.517
  665WAT     H2 3578   7.024   5.724   2.482
  666WAT      O 3579   6.968   6.166   1.566
  666WAT     H1 3580   6.960   6.260   1.581
  666WAT     H2 3581   6.933   6.152   1.479
  667WAT      O 3582   7.748   6.039   2.473
  667WAT     H1 3583   7.748   5.995   2.388
  667WAT     H2 3584   7.837   6.072   2.484
  668WAT      O 3585   7.333   6.028   2.369
  668WAT     H1 3586   7.299   6.075   2.445
  668WAT     H2 3587   7.257   5.982   2.333
  669WAT      O 3588   7.754   6.140   1.772
  669WAT     H1 3589   7.766   6.135   1.867
  669WAT     H2 3590   7.716   6.226   1.757
  670WAT      O 3591   7.655   6.371   1.712
  670WAT     H1 3592   7.598   6.326   1.649
  670WAT     H2 3593   7.726   6.406   1.659
  671WAT      O 3594   7.163   6.761   3.100
  671WAT     H1 3595   7.125   6.697   3.160
  671WAT     H2 3596   7.194   6.831   3.157
  672WAT      O 3597   7.778   6.445   2.648
  672WAT     H1 3598   7.815   6.398   2.722
  672WAT     H2 3599   7.759   6.533   2.682
  673WAT      O 3600   7.064   5.920   2.261
  673WAT     H1 3601   7.036   5.883   2.345
  673WAT     H2 3602   7.058   5.847   2.199
  674WAT      O 3603   7.557   6.349   2.880
  674WAT     H1 3604   7.527   6.437   2.902
  674WAT     H2 3605   7.652   6.355   2.883
  675WAT      O 3606   7.410   6.770   1.939
  675WAT     H1 3607   7.332   6.716   1.923
  675WAT     H2 3608   7.483   6.718   1.906
  676WAT      O 3609   8.032   5.809   1.933
  676WAT     H1 3610   7.950   5.759   1.925
  676WAT     H2 3611   8.012   5.893   1.891
  677WAT      O 3612   8.024   6.677   3.107
  677WAT     H1 3613   8.017   6.585   3.082
  677WAT     H2 3614   7.961   6.687   3.179
  678WAT      O 3615   7.414   6.737   2.303
  678WAT     H1 3616   7.466   6.657   2.298
  678WAT     H2 3617   7.369   6.731   2.387
  679WAT      O 3618   7.903   6.864   1.830
  679WAT     H1 3619   7.937   6.938   1.781
  679WAT     H2 3620   7.820   6.895   1.867
  680WAT      O 3621   7.163   6.434   2.994
  680WAT     H1 3622   7.127   6.500   3.053
  680WAT     H2 3623   7.133   6.350   3.032
  681WAT      O 3624   7.483   6.479   3.283
  681WAT     H1 3625   7.453   6.494   3.193
  681WAT     H2 3626   7.560   6.423   3.274
  682WAT      O 3627   8.017   6.959   3.082
  682WAT     H1 3628   8.018   6.866   3.061
  682WAT     H2 3629   7.946   6.968   3.146
  683WAT      O 3630   7.800   6.872   2.108
  683WAT     H1 3631   7.868   6.926   2.146
  683WAT     H2 3632   7.721   6.926   2.111
  684WAT      O 3633   7.014   6.433   1.657
  684WAT     H1 3634   7.101   6.462   1.685
  684WAT     H2 3635   6.965   6.515   1.645
  685WAT      O 3636   7.730   6.572   2.069
  685WAT     H1 3637   7.776   6.653   2.091
  685WAT     H2 3638   7.695   6.540   2.152
  686WAT      O 3639   7.960   7.123   2.792
  686WAT     H1 3640   8.025   7.144   2.859
  686WAT     H2 3641   7.997   7.047   2.746
  687WAT      O 3642   7.320   5.607   2.116
  687WAT     H1 3643   7.307   5.606   2.211
  687WAT     H2 3644   7.238   5.640   2.081
  688WAT      O 3645   7.050   7.355   1.713
  688WAT     H1 3646   7.086   7.415   1.648
  688WAT     H2 3647   7.036   7.409   1.791
  689WAT      O 3648   7.020   5.782   3.062
  689WAT     H1 3649   6.949   5.802   3.123
  689WAT     H2 3650   7.062   5.705   3.099
  690WAT      O 3651   7.049   7.181   3.161
  690WAT     H1 3652   7.060   7.087   3.147
  690WAT     H2 3653   6.984   7.208   3.096
  691WAT      O 3654   7.848   7.008   3.301
  691WAT     H1 3655   7.816   6.937   3.355
  691WAT     H2 3656   7.781   7.076   3.308
  692WAT      O 3657   7.652   7.093   1.795
  692WAT     H1 3658   7.651   7.166   1.734
  692WAT     H2 3659   7.560   7.068   1.804
  693WAT      O 3660   7.212   6.615   1.870
  693WAT     H1 3661   7.151   6.689   1.871
  693WAT     H2 3662   7.260   6.624   1.787
  694WAT      O 3663   7.951   7.099   1.661
  694WAT     H1 3664   7.961   7.079   1.568
  694WAT     H2 3665   7.861   7.074   1.682
  695WAT      O 3666   7.703   6.155   2.060
  695WAT     H1 3667   7.632   6.202   2.104
  695WAT     H2 3668   7.731   6.089   2.123
  696WAT      O 3669   7.866   6.297   2.860
  696WAT     H1 3670   7.915   6.345   2.926
  696WAT     H2 3671   7.880   6.205   2.880
  697WAT      O 3672   7.815   7.351   2.131
  697WAT     H1 3673   7.840   7.347   2.039
  697WAT     H2 3674   7.720   7.338   2.130
  698WAT      O 3675   7.523   5.986   1.797
  698WAT     H1 3676   7.608   6.030   1.790
  698WAT     H2 3677   7.487   6.017   1.880
  699WAT      O 3678   7.413   6.611   1.644
  699WAT     H1 3679   7.490   6.600   1.701
  699WAT     H2 3680   7.421   6.542   1.579
  700WAT      O 3681   7.283   6.355   1.713
  700WAT     H1 3682   7.291   6.260   1.724
  700WAT     H2 3683   7.372   6.388   1.723
  701WAT      O 3684   7.363   7.369   2.423
  701WAT     H1 3685   7.436   7.315   2.450
  701WAT     H2 3686   7.401   7.456   2.409
  702WAT      O 3687   7.051   6.976   2.011
  702WAT     H1 3688   6.959   7.000   2.010
  702WAT     H2 3689   7.098   7.059   1.998
  703WAT      O 3690   7.263   7.288   3.342
  703WAT     H1 3691   7.344   7.320   3.383
  703WAT     H2 3692   7.212   7.252   3.414
  704WAT      O 3693   7.674   7.287   1.605
  704WAT     H1 3694   7.753   7.316   1.560
  704WAT     H2 3695   7.622   7.244   1.538
  705WAT      O 3696   7.035   6.537   3.236
  705WAT     H1 3697   7.086   6.479   3.294
  705WAT     H2 3698   6.961   6.565   3.290
  706WAT      O 3699   7.726   6.809   1.592
  706WAT     H1 3700   7.715   6.747   1.664
  706WAT     H2 3701   7.709   6.756   1.513
  707WAT      O 3702   7.741   6.677   3.190
  707WAT     H1 3703   7.664   6.734   3.181
  707WAT     H2 3704   7.759   6.648   3.100
  708WAT      O 3705   7.239   6.351   3.326
  708WAT     H1 3706   7.243   6.321   3.417
  708WAT     H2 3707   7.324   6.391   3.310
  709WAT      O 3708   7.616   6.611   1.842
  709WAT     H1 3709   7.659   6.594   1.926
  709WAT     H2 3710   7.629   6.530   1.792
  710WAT      O 3711   7.433   6.209   3.123
  710WAT     H1 3712   7.380   6.160   3.060
  710WAT     H2 3713   7.500   6.252   3.069
  711WAT      O 3714   7.868   6.513   1.567
  711WAT     H1 3715   7.920   6.442   1.530
  711WAT     H2 3716   7.932   6.577   1.597
  712WAT      O 3717   7.481   5.906   3.131
  712WAT     H1 3718   7.472   5.844   3.058
  712WAT     H2 3719   7.423   5.978   3.108
  713WAT      O 3720   7.758   5.761   2.834
  713WAT     H1 3721   7.713   5.763   2.749
  713WAT     H2 3722   7.695   5.721   2.894
  714WAT      O 3723   7.799   6.651   2.896
  714WAT     H1 3724   7.840   6.735   2.879
  714WAT     H2 3725   7.707   6.665   2.873
  715WAT      O 3726   7.506   6.218   1.536
  715WAT     H1 3727   7.486   6.132   1.573
  715WAT     H2 3728   7.489   6.210   1.443
  716WAT      O 3729   7.584   7.281   3.008
  716WAT     H1 3730   7.530   7.354   2.976
  716WAT     H2 3731   7.609   7.234   2.929
  717WAT      O 3732   7.709   6.078   3.160
  717WAT     H1 3733   7.768   6.047   3.229
  717WAT     H2 3734   7.627   6.031   3.176
  718WAT      O 3735   7.386   5.928   1.535
  718WAT     H1 3736   7.416   5.929   1.444
  718WAT     H2 3737   7.460   5.893   1.585
  719WAT      O 3738   7.869   7.405   3.033
  719WAT     H1 3739   7.862   7.495   3.064
  719WAT     H2 3740   7.779   7.373   3.031
  720WAT      O 3741   7.708   5.823   1.634
  720WAT     H1 3742   7.673   5.755   1.576
  720WAT     H2 3743   7.728   5.777   1.715
  721WAT      O 3744   7.924   7.321   1.796
  721WAT     H1 3745   8.014   7.355   1.798
  721WAT     H2 3746   7.927   7.249   1.733
  722WAT      O 3747   7.288   6.859   1.619
  722WAT     H1 3748   7.332   6.913   1.684
  722WAT     H2 3749   7.337   6.776   1.619
  723WAT      O 3750   7.010   7.138   2.364
  723WAT     H1 3751   7.043   7.051   2.341
  723WAT     H2 3752   7.052   7.158   2.447
  724WAT      O 3753   7.469   6.971   2.130
  724WAT     H1 3754   7.439   6.958   2.220
  724WAT     H2 3755   7.459   6.885   2.089
  725WAT      O 3756   7.058   7.224   2.638
  725WAT     H1 3757   7.015   7.242   2.721
  725WAT     H2 3758   7.115   7.300   2.623
  726WAT      O 3759   7.042   6.475   2.273
  726WAT     H1 3760   6.976   6.449   2.209
  726WAT     H2 3761   7.126   6.465   2.228
  727WAT      O 3762   7.145   6.514   2.727
  727WAT     H1 3763   7.182   6.505   2.815
  727WAT     H2 3764   7.089   6.438   2.718
  728WAT      O 3765   7.101   6.205   3.118
  728WAT     H1 3766   7.011   6.202   3.152
  728WAT     H2 3767   7.155   6.225   3.195
  729WAT      O 3768   6.963   6.196   1.868
  729WAT     H1 3769   6.873   6.223   1.850
  729WAT     H2 3770   7.012   6.224   1.790
  730WAT      O 3771   7.217   6.102   1.659
  730WAT     H1 3772   7.288   6.060   1.610
  730WAT     H2 3773   7.146   6.109   1.595
  731WAT      O 3774   7.182   5.708   1.563
  731WAT     H1 3775   7.254   5.762   1.594
  731WAT     H2 3776   7.209   5.680   1.475
  732WAT      O 3777   7.151   5.633   2.553
  732WAT     H1 3778   7.216   5.578   2.509
  732WAT     H2 3779   7.193   5.658   2.635
  733WAT      O 3780   7.126   5.648   2.827
  733WAT     H1 3781   7.092   5.694   2.904
  733WAT     H2 3782   7.093   5.559   2.835
  734WAT      O 3783   7.287   6.965   3.244
  734WAT     H1 3784   7.283   6.928   3.332
  734WAT     H2 3785   7.300   7.059   3.258
  735WAT      O 3786   7.657   7.121   2.804
  735WAT     H1 3787   7.633   7.148   2.715
  735WAT     H2 3788   7.751   7.138   2.809
  736WAT      O 3789   7.878   5.767   3.179
  736WAT     H1 3790   7.872   5.826   3.254
  736WAT     H2 3791   7.972   5.757   3.165
  737WAT      O 3792   7.194   5.601   3.155
  737WAT     H1 3793   7.248   5.583   3.078
  737WAT     H2 3794   7.200   5.522   3.208
  738WAT      O 3795   7.271   7.260   2.956
  738WAT     H1 3796   7.211   7.247   3.030
  738WAT     H2 3797   7.270   7.176   2.909
  739WAT      O 3798   7.234   6.997   2.851
  739WAT     H1 3799   7.161   6.935   2.844
  739WAT     H2 3800   7.240   7.036   2.764
  740WAT      O 3801   7.594   7.218   2.529
  740WAT     H1 3802   7.646   7.157   2.477
  740WAT     H2 3803   7.659   7.268   2.578
  741WAT      O 3804   7.868   7.307   2.612
  741WAT     H1 3805   7.897   7.282   2.524
  741WAT     H2 3806   7.920   7.252   2.671
  742WAT      O 3807   7.990   5.681   2.670
  742WAT     H1 3808   7.912   5.728   2.698
  742WAT     H2 3809   7.961   5.591   2.659
  743WAT      O 3810   7.062   7.328   2.172
  743WAT     H1 3811   7.046   7.265   2.242
  743WAT     H2 3812   6.976   7.349   2.137
  744WAT      O 3813   7.125   5.711   1.922
  744WAT     H1 3814   7.200   5.723   1.865
  744WAT     H2 3815   7.078   5.795   1.917
  745WAT      O 3816   7.779   5.923   2.221
  745WAT     H1 3817   7.697   5.885   2.187
  745WAT     H2 3818   7.829   5.847   2.251
  746WAT      O 3819   7.223   7.198   1.916
  746WAT     H1 3820   7.170   7.236   1.846
  746WAT     H2 3821   7.215   7.260   1.988
  747WAT      O 3822   7.362   5.764   1.776
  747WAT     H1 3823   7.415   5.685   1.763
  747WAT     H2 3824   7.425   5.832   1.799
  748WAT      O 3825   7.581   5.738   2.081
  748WAT     H1 3826   7.518   5.668   2.098
  748WAT     H2 3827   7.527   5.814   2.060
  749WAT      O 3828   7.875   7.399   3.349
  749WAT     H1 3829   7.968   7.376   3.353
  749WAT     H2 3830   7.874   7.482   3.300
  750WAT      O 3831   7.594   5.666   3.325
  750WAT     H1 3832   7.566   5.716   3.249
  750WAT     H2 3833   7.632   5.586   3.288
  751WAT      O 3834   7.483   7.392   1.804
  751WAT     H1 3835   7.556   7.364   1.749
  751WAT     H2 3836   7.509   7.369   1.893
  752WAT      O 3837   7.399   7.004   1.804
  752WAT     H1 3838   7.336   7.051   1.859
  752WAT     H2 3839   7.410   6.920   1.848
  753WAT      O 3840   7.958   6.587   0.607
  753WAT     H1 3841   7.880   6.539   0.636
  753WAT     H2 3842   8.023   6.519   0.590
  754WAT      O 3843   7.359   6.618   0.695
  754WAT     H1 3844   7.276   6.593   0.735
  754WAT     H2 3845   7.420   6.625   0.769
  755WAT      O 3846   7.357   7.022   0.715
  755WAT     H1 3847   7.388   6.933   0.697
  755WAT     H2 3848   7.432   7.077   0.692
  756WAT      O 3849   6.997   6.374   0.662
  756WAT     H1 3850   7.054   6.297   0.662
  756WAT     H2 3851   6.997   6.404   0.571
  757WAT      O 3852   7.982   7.256   0.447
  757WAT     H1 3853   7.921   7.302   0.390
  757WAT     H2 3854   8.068   7.272   0.407
  758WAT      O 3855   7.902   6.855   0.608
  758WAT     H1 3856   7.895   6.760   0.592
  758WAT     H2 3857   7.978   6.864   0.665
  759WAT      O 3858   7.121   5.915   0.841
  759WAT     H1 3859   7.103   5.825   0.869
  759WAT     H2 3860   7.081   5.970   0.908
  760WAT      O 3861   8.005   6.135   0.631
  760WAT     H1 3862   8.042   6.048   0.619
  760WAT     H2 3863   7.995   6.169   0.542
  761WAT      O 3864   7.418   5.972   0.177
  761WAT     H1 3865   7.429   6.063   0.208
  761WAT     H2 3866   7.327   5.968   0.148
  762WAT      O 3867   7.183   6.165   0.701
  762WAT     H1 3868   7.251   6.191   0.763
  762WAT     H2 3869   7.151   6.081   0.735
  763WAT      O 3870   7.602   6.269   0.610
  763WAT     H1 3871   7.653   6.319   0.674
  763WAT     H2 3872   7.655   6.192   0.592
  764WAT      O 3873   7.430   5.733   1.037
  764WAT     H1 3874   7.431   5.785   0.956
  764WAT     H2 3875   7.347   5.686   1.034
  765WAT      O 3876   7.555   6.697   0.854
  765WAT     H1 3877   7.522   6.760   0.919
  765WAT     H2 3878   7.573   6.750   0.776
  766WAT      O 3879   7.398   5.904   0.837
  766WAT     H1 3880   7.433   5.989   0.808
  766WAT     H2 3881   7.305   5.919   0.849
  767WAT      O 3882   7.477   6.894   1.036
  767WAT     H1 3883   7.538   6.962   1.008
  767WAT     H2 3884   7.390   6.935   1.027
  768WAT      O 3885   7.767   5.653   0.470
  768WAT     H1 3886   7.798   5.598   0.398
  768WAT     H2 3887   7.674   5.667   0.452
  769WAT      O 3888   7.566   6.512   0.422
  769WAT     H1 3889   7.526   6.441   0.372
  769WAT     H2 3890   7.575   6.478   0.511
  770WAT      O 3891   7.613   6.881   0.638
  770WAT     H1 3892   7.583   6.821   0.570
  770WAT     H2 3893   7.708   6.885   0.627
  771WAT      O 3894   7.437   6.190   0.800
  771WAT     H1 3895   7.493   6.201   0.722
  771WAT     H2 3896   7.489   6.227   0.871
  772WAT      O 3897   7.522   6.855   1.303
  772WAT     H1 3898   7.432   6.877   1.328
  772WAT     H2 3899   7.525   6.867   1.208
  773WAT      O 3900   7.405   6.542   1.161
  773WAT     H1 3901   7.391   6.629   1.198
  773WAT     H2 3902   7.317   6.508   1.146
  774WAT      O 3903   7.585   7.136   1.382
  774WAT     H1 3904   7.582   7.177   1.295
  774WAT     H2 3905   7.568   7.043   1.365
  775WAT      O 3906   7.000   6.719   0.752
  775WAT     H1 3907   7.008   6.732   0.658
  775WAT     H2 3908   7.061   6.648   0.772
  776WAT      O 3909   7.125   6.889   0.393
  776WAT     H1 3910   7.084   6.903   0.308
  776WAT     H2 3911   7.214   6.861   0.373
  777WAT      O 3912   7.552   7.310   0.205
  777WAT     H1 3913   7.534   7.219   0.183
  777WAT     H2 3914   7.466   7.346   0.229
  778WAT      O 3915   7.006   6.823   1.006
  778WAT     H1 3916   7.022   6.776   0.925
  778WAT     H2 3917   7.052   6.772   1.073
  779WAT      O 3918   7.483   5.736   0.510
  779WAT     H1 3919   7.438   5.814   0.477
  779WAT     H2 3920   7.539   5.768   0.581
  780WAT      O 3921   7.912   6.023   1.070
  780WAT     H1 3922   7.865   6.044   1.152
  780WAT     H2 3923   7.871   5.941   1.040
  781WAT      O 3924   7.687   5.791   0.696
  781WAT     H1 3925   7.716   5.881   0.688
  781WAT     H2 3926   7.741   5.742   0.634
  782WAT      O 3927   7.462   6.249   0.283
  782WAT     H1 3928   7.439   6.227   0.373
  782WAT     H2 3929   7.384   6.292   0.248
  783WAT      O 3930   7.706   6.338   1.349
  783WAT     H1 3931   7.696   6.244   1.334
  783WAT     H2 3932   7.790   6.361   1.310
  784WAT      O 3933   7.219   5.980   1.165
  784WAT     H1 3934   7.180   6.064   1.185
  784WAT     H2 3935   7.150   5.916   1.184
  785WAT      O 3936   7.877   5.988   1.472
  785WAT     H1 3937   7.807   5.969   1.535
  785WAT     H2 3938   7.951   6.016   1.525
  786WAT      O 3939   6.949   5.772   0.568
  786WAT     H1 3940   6.920   5.829   0.639
  786WAT     H2 3941   7.024   5.724   0.604
  787WAT      O 3942   7.748   6.039   0.596
  787WAT     H1 3943   7.748   5.995   0.511
  787WAT     H2 3944   7.837   6.072   0.606
  788WAT      O 3945   7.333   6.028   0.492
  788WAT     H1 3946   7.299   6.075   0.567
  788WAT     H2 3947   7.257   5.982   0.456
  789WAT      O 3948   7.163   6.761   1.222
  789WAT     H1 3949   7.125   6.697   1.282
  789WAT     H2 3950   7.194   6.831   1.279
  790WAT      O 3951   7.778   6.445   0.770
  790WAT     H1 3952   7.815   6.398   0.845
  790WAT     H2 3953   7.759   6.533   0.804
  791WAT      O 3954   7.064   5.920   0.383
  791WAT     H1 3955   7.036   5.883   0.467
  791WAT     H2 3956   7.058   5.847   0.322
  792WAT      O 3957   7.557   6.349   1.002
  792WAT     H1 3958   7.527   6.437   1.025
  792WAT     H2 3959   7.652   6.355   1.006
  793WAT      O 3960   8.024   6.677   1.230
  793WAT     H1 3961   8.017   6.585   1.204
  793WAT     H2 3962   7.961   6.687   1.301
  794WAT      O 3963   7.414   6.737   0.426
  794WAT     H1 3964   7.466   6.657   0.420
  794WAT     H2 3965   7.369   6.731   0.510
  795WAT      O 3966   7.163   6.434   1.117
  795WAT     H1 3967   7.127   6.500   1.176
  795WAT     H2 3968   7.133   6.350   1.154
  796WAT      O 3969   7.483   6.479   1.405
  796WAT     H1 3970   7.453   6.494   1.316
  796WAT     H2 3971   7.560   6.423   1.396
  797WAT      O 3972   8.017   6.959   1.205
  797WAT     H1 3973   8.018   6.866   1.183
  797WAT     H2 3974   7.946   6.968   1.269
  798WAT      O 3975   7.800   6.872   0.230
  798WAT     H1 3976   7.868   6.926   0.268
  798WAT     H2 3977   7.721   6.926   0.234
  799WAT      O 3978   7.730   6.572   0.191
  799WAT     H1 3979   7.776   6.653   0.214
  799WAT     H2 3980   7.695   6.540   0.275
  800WAT      O 3981   7.960   7.123   0.914
  800WAT     H1 3982   8.025   7.144   0.982
  800WAT     H2 3983   7.997   7.047   0.869
  801WAT      O 3984   7.320   5.607   0.239
  801WAT     H1 3985   7.307   5.606   0.333
  801WAT     H2 3986   7.238   5.640   0.204
  802WAT      O 3987   7.020   5.782   1.185
  802WAT     H1 3988   6.949   5.802   1.245
  802WAT     H2 3989   7.062   5.705   1.222
  803WAT      O 3990   7.049   7.181   1.283
  803WAT     H1 3991   7.060   7.087   1.269
  803WAT     H2 3992   6.984   7.208   1.218
  804WAT      O 3993   7.848   7.008   1.423
  804WAT     H1 3994   7.816   6.937   1.478
  804WAT     H2 3995   7.781   7.076   1.431
  805WAT      O 3996   7.703   6.155   0.182
  805WAT     H1 3997   7.632   6.202   0.226
  805WAT     H2 3998   7.731   6.089   0.246
  806WAT      O 3999   7.866   6.297   0.982
  806WAT     H1 4000   7.915   6.345   1.049
  806WAT     H2 4001   7.880   6.205   1.003
  807WAT      O 4002   7.815   7.351   0.253
  807WAT     H1 4003   7.840   7.347   0.161
  807WAT     H2 4004   7.720   7.338   0.253
  808WAT      O 4005   7.363   7.369   0.546
  808WAT     H1 4006   7.436   7.315   0.573
  808WAT     H2 4007   7.401   7.456   0.532
  809WAT      O 4008   7.263   7.288   1.465
  809WAT     H1 4009   7.344   7.320   1.506
  809WAT     H2 4010   7.212   7.252   1.537
  810WAT      O 4011   7.035   6.537   1.359
  810WAT     H1 4012   7.086   6.479   1.416
  810WAT     H2 4013   6.961   6.565   1.413
  811WAT      O 4014   7.741   6.677   1.312
  811WAT     H1 4015   7.664   6.734   1.304
  811WAT     H2 4016   7.759   6.648   1.223
  812WAT      O 4017   7.239   6.351   1.448
  812WAT     H1 4018   7.243   6.321   1.539
  812WAT     H2 4019   7.324   6.391   1.432
  813WAT      O 4020   7.433   6.209   1.245
  813WAT     H1 4021   7.380   6.160   1.182
  813WAT     H2 4022   7.500   6.252   1.192
  814WAT      O 4023   7.481   5.906   1.253
  814WAT     H1 4024   7.472   5.844   1.181
  814WAT     H2 4025   7.423   5.978   1.230
  815WAT      O 4026   7.758   5.761   0.956
  815WAT     H1 4027   7.713   5.763   0.872
  815WAT     H2 4028   7.695   5.721   1.016
  816WAT      O 4029   7.799   6.651   1.019
  816WAT     H1 4030   7.840   6.735   1.001
  816WAT     H2 4031   7.707   6.665   0.996
  817WAT      O 4032   7.584   7.281   1.130
  817WAT     H1 4033   7.530   7.354   1.098
  817WAT     H2 4034   7.609   7.234   1.051
  818WAT      O 4035   7.709   6.078   1.283
  818WAT     H1 4036   7.768   6.047   1.351
  818WAT     H2 4037   7.627   6.031   1.298
  819WAT      O 4038   7.869   7.405   1.156
  819WAT     H1 4039   7.862   7.495   1.187
  819WAT     H2 4040   7.779   7.373   1.153
  820WAT      O 4041   7.010   7.138   0.486
  820WAT     H1 4042   7.043   7.051   0.463
  820WAT     H2 4043   7.052   7.158   0.569
  821WAT      O 4044   7.469   6.971   0.252
  821WAT     H1 4045   7.439   6.958   0.342
  821WAT     H2 4046   7.459   6.885   0.211
  822WAT      O 4047   7.058   7.224   0.760
  822WAT     H1 4048   7.015   7.242   0.843
  822WAT     H2 4049   7.115   7.300   0.746
  823WAT      O 4050   7.042   6.475   0.396
  823WAT     H1 4051   6.976   6.449   0.332
  823WAT     H2 4052   7.126   6.465   0.351
  824WAT      O 4053   7.145   6.514   0.850
  824WAT     H1 4054   7.182   6.505   0.938
  824WAT     H2 4055   7.089   6.438   0.840
  825WAT      O 4056   7.101   6.205   1.241
  825WAT     H1 4057   7.011   6.202   1.275
  825WAT     H2 4058   7.155   6.225   1.317
  826WAT      O 4059   7.151   5.633   0.675
  826WAT     H1 4060   7.216   5.578   0.631
  826WAT     H2 4061   7.193   5.658   0.758
  827WAT      O 4062   7.126   5.648   0.950
  827WAT     H1 4063   7.092   5.694   1.026
  827WAT     H2 4064   7.093   5.559   0.958
  828WAT      O 4065   7.287   6.965   1.366
  828WAT     H1 4066   7.283   6.928   1.454
  828WAT     H2 4067   7.300   7.059   1.380
  829WAT      O 4068   7.657   7.121   0.926
  829WAT     H1 4069   7.633   7.148   0.838
  829WAT     H2 4070   7.751   7.138   0.932
  830WAT      O 4071   7.878   5.767   1.302
  830WAT     H1 4072   7.872   5.826   1.377
  830WAT     H2 4073   7.972   5.757   1.287
  831WAT      O 4074   7.194   5.601   1.277
  831WAT     H1 4075   7.248   5.583   1.201
  831WAT     H2 4076   7.200   5.522   1.331
  832WAT      O 4077   7.271   7.260   1.078
  832WAT     H1 4078   7.211   7.247   1.152
  832WAT     H2 4079   7.270   7.176   1.032
  833WAT      O 4080   7.234   6.997   0.973
  833WAT     H1 4081   7.161   6.935   0.967
  833WAT     H2 4082   7.240   7.036   0.886
  834WAT      O 4083   7.594   7.218   0.652
  834WAT     H1 4084   7.646   7.157   0.599
  834WAT     H2 4085   7.659   7.268   0.701
  835WAT      O 4086   7.868   7.307   0.734
  835WAT     H1 4087   7.897   7.282   0.647
  835WAT     H2 4088   7.920   7.252   0.794
  836WAT      O 4089   7.990   5.681   0.792
  836WAT     H1 4090   7.912   5.728   0.820
  836WAT     H2 4091   7.961   5.591   0.782
  837WAT      O 4092   7.062   7.328   0.294
  837WAT     H1 4093   7.046   7.265   0.364
  837WAT     H2 4094   6.976   7.349   0.259
  838WAT      O 4095   7.779   5.923   0.344
  838WAT     H1 4096   7.697   5.885   0.310
  838WAT     H2 4097   7.829   5.847   0.374
  839WAT      O 4098   7.581   5.738   0.204
  839WAT     H1 4099   7.518   5.668   0.221
  839WAT     H2 4100   7.527   5.814   0.182
  840WAT      O 4101   7.875   7.399   1.471
  840WAT     H1 4102   7.968   7.376   1.476
  840WAT     H2 4103   7.874   7.482   1.423
  841WAT      O 4104   7.594   5.666   1.448
  841WAT     H1 4105   7.566   5.716   1.371
  841WAT     H2 4106   7.632   5.586   1.411
  842WAT      O 4107   7.958   4.710   6.240
  842WAT     H1 4108   7.880   4.662   6.269
  842WAT     H2 4109   8.023   4.642   6.222
  843WAT      O 4110   7.359   4.741   6.327
  843WAT     H1 4111   7.276   4.715   6.367
  843WAT     H2 4112   7.420   4.748   6.401
  844WAT      O 4113   7.357   5.144   6.347
  844WAT     H1 4114   7.388   5.055   6.329
  844WAT     H2 4115   7.432   5.200   6.324
  845WAT      O 4116   7.200   4.237   5.706
  845WAT     H1 4117   7.111   4.271   5.696
  845WAT     H2 4118   7.229   4.217   5.617
  846WAT      O 4119   6.997   4.497   6.294
  846WAT     H1 4120   7.054   4.420   6.294
  846WAT     H2 4121   6.997   4.527   6.203
  847WAT      O 4122   7.982   5.379   6.080
  847WAT     H1 4123   7.921   5.424   6.023
  847WAT     H2 4124   8.068   5.394   6.039
  848WAT      O 4125   7.902   4.977   6.240
  848WAT     H1 4126   7.895   4.883   6.224
  848WAT     H2 4127   7.978   4.986   6.297
  849WAT      O 4128   7.121   4.038   6.473
  849WAT     H1 4129   7.103   3.948   6.501
  849WAT     H2 4130   7.081   4.092   6.540
  850WAT      O 4131   8.005   4.258   6.263
  850WAT     H1 4132   8.042   4.171   6.252
  850WAT     H2 4133   7.995   4.291   6.174
  851WAT      O 4134   7.418   4.095   5.809
  851WAT     H1 4135   7.429   4.185   5.840
  851WAT     H2 4136   7.327   4.090   5.780
  852WAT      O 4137   7.183   4.287   6.334
  852WAT     H1 4138   7.251   4.314   6.396
  852WAT     H2 4139   7.151   4.203   6.367
  853WAT      O 4140   7.602   4.392   6.242
  853WAT     H1 4141   7.653   4.442   6.306
  853WAT     H2 4142   7.655   4.314   6.225
  854WAT      O 4143   7.555   4.820   6.487
  854WAT     H1 4144   7.522   4.883   6.551
  854WAT     H2 4145   7.573   4.872   6.409
  855WAT      O 4146   7.398   4.027   6.470
  855WAT     H1 4147   7.433   4.111   6.440
  855WAT     H2 4148   7.305   4.042   6.481
  856WAT      O 4149   7.006   4.936   5.556
  856WAT     H1 4150   6.968   4.985   5.483
  856WAT     H2 4151   7.032   5.003   5.619
  857WAT      O 4152   7.767   3.776   6.102
  857WAT     H1 4153   7.798   3.720   6.031
  857WAT     H2 4154   7.674   3.789   6.084
  858WAT      O 4155   8.006   4.582   5.776
  858WAT     H1 4156   7.913   4.576   5.799
  858WAT     H2 4157   8.021   4.676   5.764
  859WAT      O 4158   8.004   4.209   5.475
  859WAT     H1 4159   7.910   4.226   5.484
  859WAT     H2 4160   8.036   4.281   5.421
  860WAT      O 4161   7.566   4.635   6.054
  860WAT     H1 4162   7.526   4.564   6.004
  860WAT     H2 4163   7.575   4.600   6.143
  861WAT      O 4164   7.613   5.004   6.270
  861WAT     H1 4165   7.583   4.943   6.202
  861WAT     H2 4166   7.708   5.007   6.259
  862WAT      O 4167   7.437   4.312   6.432
  862WAT     H1 4168   7.493   4.323   6.354
  862WAT     H2 4169   7.489   4.350   6.504
  863WAT      O 4170   7.236   4.524   5.804
  863WAT     H1 4171   7.224   4.597   5.743
  863WAT     H2 4172   7.205   4.447   5.756
  864WAT      O 4173   7.000   4.842   6.385
  864WAT     H1 4174   7.008   4.855   6.290
  864WAT     H2 4175   7.061   4.771   6.404
  865WAT      O 4176   7.125   5.012   6.026
  865WAT     H1 4177   7.084   5.026   5.940
  865WAT     H2 4178   7.214   4.983   6.005
  866WAT      O 4179   7.552   5.433   5.837
  866WAT     H1 4180   7.534   5.341   5.816
  866WAT     H2 4181   7.466   5.469   5.861
  867WAT      O 4182   7.483   3.859   6.142
  867WAT     H1 4183   7.438   3.937   6.109
  867WAT     H2 4184   7.539   3.891   6.213
  868WAT      O 4185   7.794   3.821   5.630
  868WAT     H1 4186   7.732   3.820   5.703
  868WAT     H2 4187   7.786   3.734   5.591
  869WAT      O 4188   7.687   3.913   6.328
  869WAT     H1 4189   7.716   4.004   6.320
  869WAT     H2 4190   7.741   3.864   6.267
  870WAT      O 4191   7.462   4.371   5.915
  870WAT     H1 4192   7.439   4.349   6.006
  870WAT     H2 4193   7.384   4.414   5.881
  871WAT      O 4194   6.949   3.894   6.200
  871WAT     H1 4195   6.920   3.951   6.272
  871WAT     H2 4196   7.024   3.846   6.237
  872WAT      O 4197   6.968   4.289   5.321
  872WAT     H1 4198   6.960   4.383   5.336
  872WAT     H2 4199   6.933   4.274   5.233
  873WAT      O 4200   7.748   4.162   6.228
  873WAT     H1 4201   7.748   4.118   6.143
  873WAT     H2 4202   7.837   4.194   6.239
  874WAT      O 4203   7.333   4.150   6.124
  874WAT     H1 4204   7.299   4.198   6.200
  874WAT     H2 4205   7.257   4.105   6.088
  875WAT      O 4206   7.754   4.262   5.527
  875WAT     H1 4207   7.766   4.258   5.622
  875WAT     H2 4208   7.716   4.348   5.512
  876WAT      O 4209   7.655   4.493   5.467
  876WAT     H1 4210   7.598   4.448   5.404
  876WAT     H2 4211   7.726   4.529   5.414
  877WAT      O 4212   7.778   4.568   6.403
  877WAT     H1 4213   7.815   4.521   6.477
  877WAT     H2 4214   7.759   4.655   6.437
  878WAT      O 4215   7.064   4.042   6.016
  878WAT     H1 4216   7.036   4.006   6.099
  878WAT     H2 4217   7.058   3.969   5.954
  879WAT      O 4218   7.410   4.893   5.694
  879WAT     H1 4219   7.332   4.839   5.678
  879WAT     H2 4220   7.483   4.841   5.660
  880WAT      O 4221   8.032   3.932   5.688
  880WAT     H1 4222   7.950   3.882   5.680
  880WAT     H2 4223   8.012   4.016   5.646
  881WAT      O 4224   7.414   4.859   6.058
  881WAT     H1 4225   7.466   4.779   6.053
  881WAT     H2 4226   7.369   4.853   6.142
  882WAT      O 4227   7.903   4.986   5.585
  882WAT     H1 4228   7.937   5.061   5.536
  882WAT     H2 4229   7.820   5.017   5.622
  883WAT      O 4230   7.800   4.994   5.862
  883WAT     H1 4231   7.868   5.049   5.901
  883WAT     H2 4232   7.721   5.049   5.866
  884WAT      O 4233   7.014   4.556   5.412
  884WAT     H1 4234   7.101   4.584   5.440
  884WAT     H2 4235   6.965   4.637   5.400
  885WAT      O 4236   7.730   4.695   5.824
  885WAT     H1 4237   7.776   4.776   5.846
  885WAT     H2 4238   7.695   4.663   5.907
  886WAT      O 4239   7.960   5.246   6.547
  886WAT     H1 4240   8.025   5.266   6.614
  886WAT     H2 4241   7.997   5.170   6.501
  887WAT      O 4242   7.320   3.729   5.871
  887WAT     H1 4243   7.307   3.728   5.966
  887WAT     H2 4244   7.238   3.763   5.836
  888WAT      O 4245   7.050   5.477   5.468
  888WAT     H1 4246   7.086   5.537   5.403
  888WAT     H2 4247   7.036   5.532   5.546
  889WAT      O 4248   7.652   5.216   5.550
  889WAT     H1 4249   7.651   5.289   5.488
  889WAT     H2 4250   7.560   5.191   5.559
  890WAT      O 4251   7.212   4.738   5.624
  890WAT     H1 4252   7.151   4.812   5.625
  890WAT     H2 4253   7.260   4.747   5.542
  891WAT      O 4254   7.951   5.222   5.416
  891WAT     H1 4255   7.961   5.202   5.323
  891WAT     H2 4256   7.861   5.196   5.437
  892WAT      O 4257   7.703   4.278   5.814
  892WAT     H1 4258   7.632   4.325   5.859
  892WAT     H2 4259   7.731   4.212   5.878
  893WAT      O 4260   7.815   5.474   5.886
  893WAT     H1 4261   7.840   5.470   5.793
  893WAT     H2 4262   7.720   5.461   5.885
  894WAT      O 4263   7.523   4.109   5.552
  894WAT     H1 4264   7.608   4.152   5.545
  894WAT     H2 4265   7.487   4.140   5.635
  895WAT      O 4266   7.413   4.734   5.399
  895WAT     H1 4267   7.490   4.723   5.456
  895WAT     H2 4268   7.421   4.664   5.334
  896WAT      O 4269   7.283   4.477   5.468
  896WAT     H1 4270   7.291   4.382   5.479
  896WAT     H2 4271   7.372   4.510   5.478
  897WAT      O 4272   7.363   5.492   6.178
  897WAT     H1 4273   7.436   5.437   6.205
  897WAT     H2 4274   7.401   5.579   6.164
  898WAT      O 4275   7.051   5.099   5.765
  898WAT     H1 4276   6.959   5.123   5.764
  898WAT     H2 4277   7.098   5.182   5.753
  899WAT      O 4278   7.674   5.409   5.360
  899WAT     H1 4279   7.753   5.438   5.315
  899WAT     H2 4280   7.622   5.366   5.292
  900WAT      O 4281   7.726   4.931   5.347
  900WAT     H1 4282   7.715   4.870   5.419
  900WAT     H2 4283   7.709   4.879   5.268
  901WAT      O 4284   7.616   4.733   5.597
  901WAT     H1 4285   7.659   4.717   5.681
  901WAT     H2 4286   7.629   4.652   5.547
  902WAT      O 4287   7.868   4.636   5.322
  902WAT     H1 4288   7.920   4.564   5.285
  902WAT     H2 4289   7.932   4.700   5.352
  903WAT      O 4290   7.758   3.884   6.589
  903WAT     H1 4291   7.713   3.886   6.504
  903WAT     H2 4292   7.695   3.844   6.648
  904WAT      O 4293   7.799   4.773   6.651
  904WAT     H1 4294   7.840   4.858   6.634
  904WAT     H2 4295   7.707   4.787   6.628
  905WAT      O 4296   7.506   4.341   5.291
  905WAT     H1 4297   7.486   4.255   5.327
  905WAT     H2 4298   7.489   4.332   5.198
  906WAT      O 4299   7.386   4.051   5.290
  906WAT     H1 4300   7.416   4.052   5.199
  906WAT     H2 4301   7.460   4.016   5.340
  907WAT      O 4302   7.708   3.945   5.389
  907WAT     H1 4303   7.673   3.877   5.331
  907WAT     H2 4304   7.728   3.899   5.470
  908WAT      O 4305   7.924   5.444   5.551
  908WAT     H1 4306   8.014   5.478   5.553
  908WAT     H2 4307   7.927   5.372   5.488
  909WAT      O 4308   7.288   4.981   5.373
  909WAT     H1 4309   7.332   5.036   5.439
  909WAT     H2 4310   7.337   4.899   5.374
  910WAT      O 4311   7.010   5.260   6.119
  910WAT     H1 4312   7.043   5.173   6.095
  910WAT     H2 4313   7.052   5.281   6.202
  911WAT      O 4314   7.469   5.093   5.885
  911WAT     H1 4315   7.439   5.081   5.975
  911WAT     H2 4316   7.459   5.007   5.844
  912WAT      O 4317   7.058   5.347   6.392
  912WAT     H1 4318   7.015   5.365   6.476
  912WAT     H2 4319   7.115   5.423   6.378
  913WAT      O 4320   7.042   4.598   6.028
  913WAT     H1 4321   6.976   4.571   5.964
  913WAT     H2 4322   7.126   4.587   5.983
  914WAT      O 4323   7.145   4.637   6.482
  914WAT     H1 4324   7.182   4.628   6.570
  914WAT     H2 4325   7.089   4.560   6.472
  915WAT      O 4326   6.963   4.319   5.623
  915WAT     H1 4327   6.873   4.345   5.605
  915WAT     H2 4328   7.012   4.346   5.545
  916WAT      O 4329   7.217   4.225   5.414
  916WAT     H1 4330   7.288   4.183   5.365
  916WAT     H2 4331   7.146   4.231   5.350
  917WAT      O 4332   7.182   3.830   5.318
  917WAT     H1 4333   7.254   3.884   5.349
  917WAT     H2 4334   7.209   3.803   5.230
  918WAT      O 4335   7.151   3.755   6.308
  918WAT     H1 4336   7.216   3.700   6.264
  918WAT     H2 4337   7.193   3.781   6.390
  919WAT      O 4338   7.657   5.244   6.559
  919WAT     H1 4339   7.633   5.270   6.470
  919WAT     H2 4340   7.751   5.261   6.564
  920WAT      O 4341   7.234   5.119   6.606
  920WAT     H1 4342   7.161   5.057   6.599
  920WAT     H2 4343   7.240   5.159   6.519
  921WAT      O 4344   7.594   5.341   6.284
  921WAT     H1 4345   7.646   5.279   6.232
  921WAT     H2 4346   7.659   5.391   6.333
  922WAT      O 4347   7.868   5.430   6.367
  922WAT     H1 4348   7.897   5.404   6.279
  922WAT     H2 4349   7.920   5.374   6.426
  923WAT      O 4350   7.990   3.804   6.425
  923WAT     H1 4351   7.912   3.851   6.453
  923WAT     H2 4352   7.961   3.713   6.414
  924WAT      O 4353   7.062   5.451   5.927
  924WAT     H1 4354   7.046   5.388   5.996
  924WAT     H2 4355   6.976   5.471   5.892
  925WAT      O 4356   7.125   3.834   5.677
  925WAT     H1 4357   7.200   3.845   5.620
  925WAT     H2 4358   7.078   3.918   5.672
  926WAT      O 4359   7.779   4.045   5.976
  926WAT     H1 4360   7.697   4.008   5.942
  926WAT     H2 4361   7.829   3.970   6.006
  927WAT      O 4362   7.223   5.320   5.671
  927WAT     H1 4363   7.170   5.358   5.601
  927WAT     H2 4364   7.215   5.383   5.743
  928WAT      O 4365   7.362   3.887   5.531
  928WAT     H1 4366   7.415   3.808   5.518
  928WAT     H2 4367   7.425   3.955   5.554
  929WAT      O 4368   7.581   3.860   5.836
  929WAT     H1 4369   7.518   3.790   5.853
  929WAT     H2 4370   7.527   3.936   5.815
  930WAT      O 4371   7.483   5.515   5.559
  930WAT     H1 4372   7.556   5.487   5.504
  930WAT     H2 4373   7.509   5.491   5.648
  931WAT      O 4374   7.399   5.127   5.559
  931WAT     H1 4375   7.336   5.174   5.614
  931WAT     H2 4376   7.410   5.042   5.602
  932WAT      O 4377   7.958   4.710   4.362
  932WAT     H1 4378   7.880   4.662   4.391
  932WAT     H2 4379   8.023   4.642   4.345
  933WAT      O 4380   7.359   4.741   4.450
  933WAT     H1 4381   7.276   4.715   4.490
  933WAT     H2 4382   7.420   4.748   4.523
  934WAT      O 4383   7.357   5.144   4.469
  934WAT     H1 4384   7.388   5.055   4.452
  934WAT     H2 4385   7.432   5.200   4.447
  935WAT      O 4386   7.200   4.237   3.828
  935WAT     H1 4387   7.111   4.271   3.818
  935WAT     H2 4388   7.229   4.217   3.739
  936WAT      O 4389   6.997   4.497   4.417
  936WAT     H1 4390   7.054   4.420   4.417
  936WAT     H2 4391   6.997   4.527   4.326
  937WAT      O 4392   7.982   5.379   4.202
  937WAT     H1 4393   7.921   5.424   4.145
  937WAT     H2 4394   8.068   5.394   4.162
  938WAT      O 4395   7.902   4.977   4.363
  938WAT     H1 4396   7.895   4.883   4.347
  938WAT     H2 4397   7.978   4.986   4.420
  939WAT      O 4398   7.121   4.038   4.595
  939WAT     H1 4399   7.103   3.948   4.623
  939WAT     H2 4400   7.081   4.092   4.663
  940WAT      O 4401   8.005   4.258   4.386
  940WAT     H1 4402   8.042   4.171   4.374
  940WAT     H2 4403   7.995   4.291   4.296
  941WAT      O 4404   7.418   4.095   3.932
  941WAT     H1 4405   7.429   4.185   3.962
  941WAT     H2 4406   7.327   4.090   3.903
  942WAT      O 4407   7.183   4.287   4.456
  942WAT     H1 4408   7.251   4.314   4.518
  942WAT     H2 4409   7.151   4.203   4.490
  943WAT      O 4410   7.602   4.392   4.365
  943WAT     H1 4411   7.653   4.442   4.429
  943WAT     H2 4412   7.655   4.314   4.347
  944WAT      O 4413   7.430   3.856   4.792
  944WAT     H1 4414   7.431   3.908   4.711
  944WAT     H2 4415   7.347   3.808   4.789
  945WAT      O 4416   7.555   4.820   4.609
  945WAT     H1 4417   7.522   4.883   4.674
  945WAT     H2 4418   7.573   4.872   4.531
  946WAT      O 4419   7.398   4.027   4.592
  946WAT     H1 4420   7.433   4.111   4.563
  946WAT     H2 4421   7.305   4.042   4.604
  947WAT      O 4422   7.477   5.017   4.791
  947WAT     H1 4423   7.538   5.084   4.763
  947WAT     H2 4424   7.390   5.058   4.782
  948WAT      O 4425   7.006   4.936   3.679
  948WAT     H1 4426   6.968   4.985   3.606
  948WAT     H2 4427   7.032   5.003   3.742
  949WAT      O 4428   7.767   3.776   4.225
  949WAT     H1 4429   7.798   3.720   4.153
  949WAT     H2 4430   7.674   3.789   4.206
  950WAT      O 4431   8.006   4.582   3.898
  950WAT     H1 4432   7.913   4.576   3.921
  950WAT     H2 4433   8.021   4.676   3.887
  951WAT      O 4434   8.004   4.209   3.598
  951WAT     H1 4435   7.910   4.226   3.607
  951WAT     H2 4436   8.036   4.281   3.543
  952WAT      O 4437   7.566   4.635   4.177
  952WAT     H1 4438   7.526   4.564   4.127
  952WAT     H2 4439   7.575   4.600   4.265
  953WAT      O 4440   7.613   5.004   4.393
  953WAT     H1 4441   7.583   4.943   4.325
  953WAT     H2 4442   7.708   5.007   4.382
  954WAT      O 4443   7.437   4.312   4.555
  954WAT     H1 4444   7.493   4.323   4.477
  954WAT     H2 4445   7.489   4.350   4.626
  955WAT      O 4446   7.522   4.977   5.058
  955WAT     H1 4447   7.432   5.000   5.083
  955WAT     H2 4448   7.525   4.990   4.963
  956WAT      O 4449   7.405   4.665   4.916
  956WAT     H1 4450   7.391   4.752   4.952
  956WAT     H2 4451   7.317   4.630   4.901
  957WAT      O 4452   7.585   5.259   5.136
  957WAT     H1 4453   7.582   5.299   5.050
  957WAT     H2 4454   7.568   5.166   5.120
  958WAT      O 4455   7.236   4.524   3.927
  958WAT     H1 4456   7.224   4.597   3.865
  958WAT     H2 4457   7.205   4.447   3.879
  959WAT      O 4458   7.000   4.842   4.507
  959WAT     H1 4459   7.008   4.855   4.413
  959WAT     H2 4460   7.061   4.771   4.527
  960WAT      O 4461   7.125   5.012   4.148
  960WAT     H1 4462   7.084   5.026   4.063
  960WAT     H2 4463   7.214   4.983   4.128
  961WAT      O 4464   7.552   5.433   3.960
  961WAT     H1 4465   7.534   5.341   3.938
  961WAT     H2 4466   7.466   5.469   3.984
  962WAT      O 4467   7.006   4.946   4.761
  962WAT     H1 4468   7.022   4.899   4.679
  962WAT     H2 4469   7.052   4.895   4.828
  963WAT      O 4470   7.483   3.859   4.265
  963WAT     H1 4471   7.438   3.937   4.232
  963WAT     H2 4472   7.539   3.891   4.336
  964WAT      O 4473   7.912   4.145   4.825
  964WAT     H1 4474   7.865   4.166   4.906
  964WAT     H2 4475   7.871   4.064   4.795
  965WAT      O 4476   7.794   3.821   3.753
  965WAT     H1 4477   7.732   3.820   3.825
  965WAT     H2 4478   7.786   3.734   3.713
  966WAT      O 4479   7.687   3.913   4.451
  966WAT     H1 4480   7.716   4.004   4.443
  966WAT     H2 4481   7.741   3.864   4.389
  967WAT      O 4482   7.462   4.371   4.038
  967WAT     H1 4483   7.439   4.349   4.128
  967WAT     H2 4484   7.384   4.414   4.003
  968WAT      O 4485   7.706   4.461   5.104
  968WAT     H1 4486   7.696   4.367   5.089
  968WAT     H2 4487   7.790   4.483   5.065
  969WAT      O 4488   7.219   4.102   4.920
  969WAT     H1 4489   7.180   4.187   4.940
  969WAT     H2 4490   7.150   4.038   4.939
  970WAT      O 4491   7.877   4.110   5.227
  970WAT     H1 4492   7.807   4.091   5.290
  970WAT     H2 4493   7.951   4.139   5.280
  971WAT      O 4494   6.949   3.894   4.323
  971WAT     H1 4495   6.920   3.951   4.394
  971WAT     H2 4496   7.024   3.846   4.359
  972WAT      O 4497   6.968   4.289   3.444
  972WAT     H1 4498   6.960   4.383   3.458
  972WAT     H2 4499   6.933   4.274   3.356
  973WAT      O 4500   7.748   4.162   4.351
  973WAT     H1 4501   7.748   4.118   4.266
  973WAT     H2 4502   7.837   4.194   4.361
  974WAT      O 4503   7.333   4.150   4.247
  974WAT     H1 4504   7.299   4.198   4.322
  974WAT     H2 4505   7.257   4.105   4.211
  975WAT      O 4506   7.754   4.262   3.650
  975WAT     H1 4507   7.766   4.258   3.745
  975WAT     H2 4508   7.716   4.348   3.634
  976WAT      O 4509   7.655   4.493   3.590
  976WAT     H1 4510   7.598   4.448   3.527
  976WAT     H2 4511   7.726   4.529   3.536
  977WAT      O 4512   7.163   4.883   4.977
  977WAT     H1 4513   7.125   4.819   5.037
  977WAT     H2 4514   7.194   4.954   5.034
  978WAT      O 4515   7.778   4.568   4.525
  978WAT     H1 4516   7.815   4.521   4.600
  978WAT     H2 4517   7.759   4.655   4.559
  979WAT      O 4518   7.064   4.042   4.138
  979WAT     H1 4519   7.036   4.006   4.222
  979WAT     H2 4520   7.058   3.969   4.077
  980WAT      O 4521   7.557   4.472   4.757
  980WAT     H1 4522   7.527   4.560   4.780
  980WAT     H2 4523   7.652   4.478   4.761
  981WAT      O 4524   7.410   4.893   3.817
  981WAT     H1 4525   7.332   4.839   3.801
  981WAT     H2 4526   7.483   4.841   3.783
  982WAT      O 4527   8.032   3.932   3.810
  982WAT     H1 4528   7.950   3.882   3.803
  982WAT     H2 4529   8.012   4.016   3.769
  983WAT      O 4530   8.024   4.799   4.985
  983WAT     H1 4531   8.017   4.707   4.959
  983WAT     H2 4532   7.961   4.809   5.056
  984WAT      O 4533   7.414   4.859   4.181
  984WAT     H1 4534   7.466   4.779   4.175
  984WAT     H2 4535   7.369   4.853   4.265
  985WAT      O 4536   7.903   4.986   3.708
  985WAT     H1 4537   7.937   5.061   3.658
  985WAT     H2 4538   7.820   5.017   3.744
  986WAT      O 4539   7.163   4.556   4.872
  986WAT     H1 4540   7.127   4.623   4.931
  986WAT     H2 4541   7.133   4.473   4.909
  987WAT      O 4542   7.483   4.602   5.160
  987WAT     H1 4543   7.453   4.616   5.071
  987WAT     H2 4544   7.560   4.546   5.151
  988WAT      O 4545   8.017   5.082   4.960
  988WAT     H1 4546   8.018   4.988   4.938
  988WAT     H2 4547   7.946   5.090   5.024
  989WAT      O 4548   7.800   4.994   3.985
  989WAT     H1 4549   7.868   5.049   4.023
  989WAT     H2 4550   7.721   5.049   3.989
  990WAT      O 4551   7.014   4.556   3.534
  990WAT     H1 4552   7.101   4.584   3.563
  990WAT     H2 4553   6.965   4.637   3.523
  991WAT      O 4554   7.730   4.695   3.946
  991WAT     H1 4555   7.776   4.776   3.969
  991WAT     H2 4556   7.695   4.663   4.029
  992WAT      O 4557   7.960   5.246   4.669
  992WAT     H1 4558   8.025   5.266   4.737
  992WAT     H2 4559   7.997   5.170   4.624
  993WAT      O 4560   7.320   3.729   3.993
  993WAT     H1 4561   7.307   3.728   4.088
  993WAT     H2 4562   7.238   3.763   3.958
  994WAT      O 4563   7.050   5.477   3.591
  994WAT     H1 4564   7.086   5.537   3.525
  994WAT     H2 4565   7.036   5.532   3.668
  995WAT      O 4566   7.020   3.905   4.940
  995WAT     H1 4567   6.949   3.925   5.000
  995WAT     H2 4568   7.062   3.827   4.977
  996WAT      O 4569   7.049   5.304   5.038
  996WAT     H1 4570   7.060   5.210   5.024
  996WAT     H2 4571   6.984   5.330   4.973
  997WAT      O 4572   7.848   5.131   5.178
  997WAT     H1 4573   7.816   5.059   5.233
  997WAT     H2 4574   7.781   5.199   5.186
  998WAT      O 4575   7.652   5.216   3.673
  998WAT     H1 4576   7.651   5.289   3.611
  998WAT     H2 4577   7.560   5.191   3.682
  999WAT      O 4578   7.212   4.738   3.747
  999WAT     H1 4579   7.151   4.812   3.748
  999WAT     H2 4580   7.260   4.747   3.664
 1000WAT      O 4581   7.951   5.222   3.539
 1000WAT     H1 4582   7.961   5.202   3.446
 1000WAT     H2 4583   7.861   5.196   3.559
 1001WAT      O 4584   7.703   4.278   3.937
 1001WAT     H1 4585   7.632   4.325   3.981
 1001WAT     H2 4586   7.731   4.212   4.000
 1002WAT      O 4587   7.866   4.420   4.737
 1002WAT     H1 4588   7.915   4.467   4.803
 1002WAT     H2 4589   7.880   4.327   4.758
 1003WAT      O 4590   7.815   5.474   4.008
 1003WAT     H1 4591   7.840   5.470   3.916
 1003WAT     H2 4592   7.720   5.461   4.008
 1004WAT      O 4593   7.523   4.109   3.675
 1004WAT     H1 4594   7.608   4.152   3.668
 1004WAT     H2 4595   7.487   4.140   3.757
 1005WAT      O 4596   7.413   4.734   3.522
 1005WAT     H1 4597   7.490   4.723   3.578
 1005WAT     H2 4598   7.421   4.664   3.457
 1006WAT      O 4599   7.283   4.477   3.590
 1006WAT     H1 4600   7.291   4.382   3.601
 1006WAT     H2 4601   7.372   4.510   3.601
 1007WAT      O 4602   7.363   5.492   4.301
 1007WAT     H1 4603   7.436   5.437   4.328
 1007WAT     H2 4604   7.401   5.579   4.287
 1008WAT      O 4605   7.051   5.099   3.888
 1008WAT     H1 4606   6.959   5.123   3.887
 1008WAT     H2 4607   7.098   5.182   3.876
 1009WAT      O 4608   7.263   5.411   5.219
 1009WAT     H1 4609   7.344   5.443   5.261
 1009WAT     H2 4610   7.212   5.374   5.292
 1010WAT      O 4611   7.674   5.409   3.483
 1010WAT     H1 4612   7.753   5.438   3.438
 1010WAT     H2 4613   7.622   5.366   3.415
 1011WAT      O 4614   7.035   4.659   5.114
 1011WAT     H1 4615   7.086   4.601   5.171
 1011WAT     H2 4616   6.961   4.688   5.168
 1012WAT      O 4617   7.726   4.931   3.469
 1012WAT     H1 4618   7.715   4.870   3.542
 1012WAT     H2 4619   7.709   4.879   3.391
 1013WAT      O 4620   7.741   4.800   5.067
 1013WAT     H1 4621   7.664   4.857   5.059
 1013WAT     H2 4622   7.759   4.771   4.978
 1014WAT      O 4623   7.239   4.474   5.203
 1014WAT     H1 4624   7.243   4.444   5.294
 1014WAT     H2 4625   7.324   4.514   5.187
 1015WAT      O 4626   7.616   4.733   3.719
 1015WAT     H1 4627   7.659   4.717   3.804
 1015WAT     H2 4628   7.629   4.652   3.670
 1016WAT      O 4629   7.433   4.331   5.000
 1016WAT     H1 4630   7.380   4.282   4.937
 1016WAT     H2 4631   7.500   4.374   4.947
 1017WAT      O 4632   7.868   4.636   3.444
 1017WAT     H1 4633   7.920   4.564   3.407
 1017WAT     H2 4634   7.932   4.700   3.474
 1018WAT      O 4635   7.481   4.028   5.008
 1018WAT     H1 4636   7.472   3.966   4.936
 1018WAT     H2 4637   7.423   4.101   4.985
 1019WAT      O 4638   7.758   3.884   4.711
 1019WAT     H1 4639   7.713   3.886   4.627
 1019WAT     H2 4640   7.695   3.844   4.771
 1020WAT      O 4641   7.799   4.773   4.773
 1020WAT     H1 4642   7.840   4.858   4.756
 1020WAT     H2 4643   7.707   4.787   4.750
 1021WAT      O 4644   7.506   4.341   3.414
 1021WAT     H1 4645   7.486   4.255   3.450
 1021WAT     H2 4646   7.489   4.332   3.320
 1022WAT      O 4647   7.584   5.404   4.885
 1022WAT     H1 4648   7.530   5.476   4.853
 1022WAT     H2 4649   7.609   5.356   4.806
 1023WAT      O 4650   7.709   4.201   5.038
 1023WAT     H1 4651   7.768   4.170   5.106
 1023WAT     H2 4652   7.627   4.154   5.053
 1024WAT      O 4653   7.386   4.051   3.413
 1024WAT     H1 4654   7.416   4.052   3.322
 1024WAT     H2 4655   7.460   4.016   3.462
 1025WAT      O 4656   7.869   5.527   4.911
 1025WAT     H1 4657   7.862   5.618   4.942
 1025WAT     H2 4658   7.779   5.496   4.908
 1026WAT      O 4659   7.708   3.945   3.511
 1026WAT     H1 4660   7.673   3.877   3.453
 1026WAT     H2 4661   7.728   3.899   3.593
 1027WAT      O 4662   7.924   5.444   3.673
 1027WAT     H1 4663   8.014   5.478   3.675
 1027WAT     H2 4664   7.927   5.372   3.610
 1028WAT      O 4665   7.288   4.981   3.496
 1028WAT     H1 4666   7.332   5.036   3.562
 1028WAT     H2 4667   7.337   4.899   3.497
 1029WAT      O 4668   7.010   5.260   4.241
 1029WAT     H1 4669   7.043   5.173   4.218
 1029WAT     H2 4670   7.052   5.281   4.324
 1030WAT      O 4671   7.469   5.093   4.007
 1030WAT     H1 4672   7.439   5.081   4.097
 1030WAT     H2 4673   7.459   5.007   3.966
 1031WAT      O 4674   7.058   5.347   4.515
 1031WAT     H1 4675   7.015   5.365   4.598
 1031WAT     H2 4676   7.115   5.423   4.501
 1032WAT      O 4677   7.042   4.598   4.151
 1032WAT     H1 4678   6.976   4.571   4.086
 1032WAT     H2 4679   7.126   4.587   4.106
 1033WAT      O 4680   7.145   4.637   4.605
 1033WAT     H1 4681   7.182   4.628   4.693
 1033WAT     H2 4682   7.089   4.560   4.595
 1034WAT      O 4683   7.101   4.328   4.995
 1034WAT     H1 4684   7.011   4.324   5.029
 1034WAT     H2 4685   7.155   4.348   5.072
 1035WAT      O 4686   6.963   4.319   3.745
 1035WAT     H1 4687   6.873   4.345   3.728
 1035WAT     H2 4688   7.012   4.346   3.667
 1036WAT      O 4689   7.217   4.225   3.536
 1036WAT     H1 4690   7.288   4.183   3.488
 1036WAT     H2 4691   7.146   4.231   3.473
 1037WAT      O 4692   7.182   3.830   3.440
 1037WAT     H1 4693   7.254   3.884   3.472
 1037WAT     H2 4694   7.209   3.803   3.353
 1038WAT      O 4695   7.151   3.755   4.430
 1038WAT     H1 4696   7.216   3.700   4.386
 1038WAT     H2 4697   7.193   3.781   4.512
 1039WAT      O 4698   7.126   3.771   4.705
 1039WAT     H1 4699   7.092   3.816   4.781
 1039WAT     H2 4700   7.093   3.681   4.713
 1040WAT      O 4701   7.287   5.088   5.121
 1040WAT     H1 4702   7.283   5.051   5.209
 1040WAT     H2 4703   7.300   5.182   5.135
 1041WAT      O 4704   7.657   5.244   4.681
 1041WAT     H1 4705   7.633   5.270   4.593
 1041WAT     H2 4706   7.751   5.261   4.687
 1042WAT      O 4707   7.878   3.890   5.057
 1042WAT     H1 4708   7.872   3.949   5.132
 1042WAT     H2 4709   7.972   3.879   5.042
 1043WAT      O 4710   7.194   3.723   5.032
 1043WAT     H1 4711   7.248   3.705   4.956
 1043WAT     H2 4712   7.200   3.644   5.086
 1044WAT      O 4713   7.271   5.383   4.833
 1044WAT     H1 4714   7.211   5.369   4.907
 1044WAT     H2 4715   7.270   5.299   4.787
 1045WAT      O 4716   7.234   5.119   4.728
 1045WAT     H1 4717   7.161   5.057   4.721
 1045WAT     H2 4718   7.240   5.159   4.641
 1046WAT      O 4719   7.594   5.341   4.407
 1046WAT     H1 4720   7.646   5.279   4.354
 1046WAT     H2 4721   7.659   5.391   4.456
 1047WAT      O 4722   7.868   5.430   4.489
 1047WAT     H1 4723   7.897   5.404   4.402
 1047WAT     H2 4724   7.920   5.374   4.548
 1048WAT      O 4725   7.990   3.804   4.547
 1048WAT     H1 4726   7.912   3.851   4.575
 1048WAT     H2 4727   7.961   3.713   4.536
 1049WAT      O 4728   7.062   5.451   4.049
 1049WAT     H1 4729   7.046   5.388   4.119
 1049WAT     H2 4730   6.976   5.471   4.014
 1050WAT      O 4731   7.125   3.834   3.799
 1050WAT     H1 4732   7.200   3.845   3.742
 1050WAT     H2 4733   7.078   3.918   3.795
 1051WAT      O 4734   7.779   4.045   4.098
 1051WAT     H1 4735   7.697   4.008   4.064
 1051WAT     H2 4736   7.829   3.970   4.129
 1052WAT      O 4737   7.223   5.320   3.794
 1052WAT     H1 4738   7.170   5.358   3.723
 1052WAT     H2 4739   7.215   5.383   3.866
 1053WAT      O 4740   7.362   3.887   3.653
 1053WAT     H1 4741   7.415   3.808   3.641
 1053WAT     H2 4742   7.425   3.955   3.677
 1054WAT      O 4743   7.581   3.860   3.959
 1054WAT     H1 4744   7.518   3.790   3.976
 1054WAT     H2 4745   7.527   3.936   3.937
 1055WAT      O 4746   7.875   5.522   5.226
 1055WAT     H1 4747   7.968   5.498   5.230
 1055WAT     H2 4748   7.874   5.605   5.178
 1056WAT      O 4749   7.594   3.788   5.202
 1056WAT     H1 4750   7.566   3.839   5.126
 1056WAT     H2 4751   7.632   3.708   5.166
 1057WAT      O 4752   7.483   5.515   3.681
 1057WAT     H1 4753   7.556   5.487   3.626
 1057WAT     H2 4754   7.509   5.491   3.770
 1058WAT      O 4755   7.399   5.127   3.682
 1058WAT     H1 4756   7.336   5.174   3.736
 1058WAT     H2 4757   7.410   5.042   3.725
 1059WAT      O 4758   7.958   4.710   2.485
 1059WAT     H1 4759   7.880   4.662   2.514
 1059WAT     H2 4760   8.023   4.642   2.467
 1060WAT      O 4761   7.359   4.741   2.572
 1060WAT     H1 4762   7.276   4.715   2.612
 1060WAT     H2 4763   7.420   4.748   2.646
 1061WAT      O 4764   7.357   5.144   2.592
 1061WAT     H1 4765   7.388   5.055   2.574
 1061WAT     H2 4766   7.432   5.200   2.569
 1062WAT      O 4767   7.200   4.237   1.951
 1062WAT     H1 4768   7.111   4.271   1.941
 1062WAT     H2 4769   7.229   4.217   1.862
 1063WAT      O 4770   6.997   4.497   2.539
 1063WAT     H1 4771   7.054   4.420   2.539
 1063WAT     H2 4772   6.997   4.527   2.448
 1064WAT      O 4773   7.982   5.379   2.325
 1064WAT     H1 4774   7.921   5.424   2.268
 1064WAT     H2 4775   8.068   5.394   2.285
 1065WAT      O 4776   7.902   4.977   2.485
 1065WAT     H1 4777   7.895   4.883   2.469
 1065WAT     H2 4778   7.978   4.986   2.543
 1066WAT      O 4779   7.121   4.038   2.718
 1066WAT     H1 4780   7.103   3.948   2.746
 1066WAT     H2 4781   7.081   4.092   2.785
 1067WAT      O 4782   8.005   4.258   2.508
 1067WAT     H1 4783   8.042   4.171   2.497
 1067WAT     H2 4784   7.995   4.291   2.419
 1068WAT      O 4785   7.418   4.095   2.054
 1068WAT     H1 4786   7.429   4.185   2.085
 1068WAT     H2 4787   7.327   4.090   2.025
 1069WAT      O 4788   7.183   4.287   2.579
 1069WAT     H1 4789   7.251   4.314   2.641
 1069WAT     H2 4790   7.151   4.203   2.612
 1070WAT      O 4791   7.602   4.392   2.488
 1070WAT     H1 4792   7.653   4.442   2.552
 1070WAT     H2 4793   7.655   4.314   2.470
 1071WAT      O 4794   7.430   3.856   2.914
 1071WAT     H1 4795   7.431   3.908   2.834
 1071WAT     H2 4796   7.347   3.808   2.912
 1072WAT      O 4797   7.555   4.820   2.732
 1072WAT     H1 4798   7.522   4.883   2.796
 1072WAT     H2 4799   7.573   4.872   2.654
 1073WAT      O 4800   7.398   4.027   2.715
 1073WAT     H1 4801   7.433   4.111   2.685
 1073WAT     H2 4802   7.305   4.042   2.727
 1074WAT      O 4803   7.477   5.017   2.913
 1074WAT     H1 4804   7.538   5.084   2.885
 1074WAT     H2 4805   7.390   5.058   2.904
 1075WAT      O 4806   7.006   4.936   1.801
 1075WAT     H1 4807   6.968   4.985   1.728
 1075WAT     H2 4808   7.032   5.003   1.865
 1076WAT      O 4809   7.767   3.776   2.347
 1076WAT     H1 4810   7.798   3.720   2.276
 1076WAT     H2 4811   7.674   3.789   2.329
 1077WAT      O 4812   8.006   4.582   2.021
 1077WAT     H1 4813   7.913   4.576   2.044
 1077WAT     H2 4814   8.021   4.676   2.009
 1078WAT      O 4815   8.004   4.209   1.721
 1078WAT     H1 4816   7.910   4.226   1.729
 1078WAT     H2 4817   8.036   4.281   1.666
 1079WAT      O 4818   7.566   4.635   2.299
 1079WAT     H1 4819   7.526   4.564   2.250
 1079WAT     H2 4820   7.575   4.600   2.388
 1080WAT      O 4821   7.613   5.004   2.515
 1080WAT     H1 4822   7.583   4.943   2.448
 1080WAT     H2 4823   7.708   5.007   2.504
 1081WAT      O 4824   7.437   4.312   2.677
 1081WAT     H1 4825   7.493   4.323   2.600
 1081WAT     H2 4826   7.489   4.350   2.749
 1082WAT      O 4827   7.522   4.977   3.181
 1082WAT     H1 4828   7.432   5.000   3.205
 1082WAT     H2 4829   7.525   4.990   3.086
 1083WAT      O 4830   7.405   4.665   3.038
 1083WAT     H1 4831   7.391   4.752   3.075
 1083WAT     H2 4832   7.317   4.630   3.024
 1084WAT      O 4833   7.585   5.259   3.259
 1084WAT     H1 4834   7.582   5.299   3.172
 1084WAT     H2 4835   7.568   5.166   3.243
 1085WAT      O 4836   7.236   4.524   2.049
 1085WAT     H1 4837   7.224   4.597   1.988
 1085WAT     H2 4838   7.205   4.447   2.001
 1086WAT      O 4839   7.000   4.842   2.630
 1086WAT     H1 4840   7.008   4.855   2.535
 1086WAT     H2 4841   7.061   4.771   2.649
 1087WAT      O 4842   7.125   5.012   2.271
 1087WAT     H1 4843   7.084   5.026   2.185
 1087WAT     H2 4844   7.214   4.983   2.251
 1088WAT      O 4845   7.552   5.433   2.082
 1088WAT     H1 4846   7.534   5.341   2.061
 1088WAT     H2 4847   7.466   5.469   2.106
 1089WAT      O 4848   7.006   4.946   2.884
 1089WAT     H1 4849   7.022   4.899   2.802
 1089WAT     H2 4850   7.052   4.895   2.950
 1090WAT      O 4851   7.483   3.859   2.387
 1090WAT     H1 4852   7.438   3.937   2.354
 1090WAT     H2 4853   7.539   3.891   2.458
 1091WAT      O 4854   7.912   4.145   2.948
 1091WAT     H1 4855   7.865   4.166   3.029
 1091WAT     H2 4856   7.871   4.064   2.917
 1092WAT      O 4857   7.794   3.821   1.875
 1092WAT     H1 4858   7.732   3.820   1.948
 1092WAT     H2 4859   7.786   3.734   1.836
 1093WAT      O 4860   7.687   3.913   2.573
 1093WAT     H1 4861   7.716   4.004   2.565
 1093WAT     H2 4862   7.741   3.864   2.512
 1094WAT      O 4863   7.462   4.371   2.160
 1094WAT     H1 4864   7.439   4.349   2.251
 1094WAT     H2 4865   7.384   4.414   2.126
 1095WAT      O 4866   7.706   4.461   3.227
 1095WAT     H1 4867   7.696   4.367   3.212
 1095WAT     H2 4868   7.790   4.483   3.187
 1096WAT      O 4869   7.219   4.102   3.042
 1096WAT     H1 4870   7.180   4.187   3.063
 1096WAT     H2 4871   7.150   4.038   3.061
 1097WAT      O 4872   7.877   4.110   3.349
 1097WAT     H1 4873   7.807   4.091   3.413
 1097WAT     H2 4874   7.951   4.139   3.402
 1098WAT      O 4875   6.949   3.894   2.445
 1098WAT     H1 4876   6.920   3.951   2.517
 1098WAT     H2 4877   7.024   3.846   2.482
 1099WAT      O 4878   6.968   4.289   1.566
 1099WAT     H1 4879   6.960   4.383   1.581
 1099WAT     H2 4880   6.933   4.274   1.479
 1100WAT      O 4881   7.748   4.162   2.473
 1100WAT     H1 4882   7.748   4.118   2.388
 1100WAT     H2 4883   7.837   4.194   2.484
 1101WAT      O 4884   7.333   4.150   2.369
 1101WAT     H1 4885   7.299   4.198   2.445
 1101WAT     H2 4886   7.257   4.105   2.333
 1102WAT      O 4887   7.754   4.262   1.772
 1102WAT     H1 4888   7.766   4.258   1.867
 1102WAT     H2 4889   7.716   4.348   1.757
 1103WAT      O 4890   7.655   4.493   1.712
 1103WAT     H1 4891   7.598   4.448   1.649
 1103WAT     H2 4892   7.726   4.529   1.659
 1104WAT      O 4893   7.163   4.883   3.100
 1104WAT     H1 4894   7.125   4.819   3.160
 1104WAT     H2 4895   7.194   4.954   3.157
 1105WAT      O 4896   7.778   4.568   2.648
 1105WAT     H1 4897   7.815   4.521   2.722
 1105WAT     H2 4898   7.759   4.655   2.682
 1106WAT      O 4899   7.064   4.042   2.261
 1106WAT     H1 4900   7.036   4.006   2.345
 1106WAT     H2 4901   7.058   3.969   2.199
 1107WAT      O 4902   7.557   4.472   2.880
 1107WAT     H1 4903   7.527   4.560   2.902
 1107WAT     H2 4904   7.652   4.478   2.883
 1108WAT      O 4905   7.410   4.893   1.939
 1108WAT     H1 4906   7.332   4.839   1.923
 1108WAT     H2 4907   7.483   4.841   1.906
 1109WAT      O 4908   8.032   3.932   1.933
 1109WAT     H1 4909   7.950   3.882   1.925
 1109WAT     H2 4910   8.012   4.016   1.891
 1110WAT      O 4911   8.024   4.799   3.107
 1110WAT     H1 4912   8.017   4.707   3.082
 1110WAT     H2 4913   7.961   4.809   3.179
 1111WAT      O 4914   7.414   4.859   2.303
 1111WAT     H1 4915   7.466   4.779   2.298
 1111WAT     H2 4916   7.369   4.853   2.387
 1112WAT      O 4917   7.903   4.986   1.830
 1112WAT     H1 4918   7.937   5.061   1.781
 1112WAT     H2 4919   7.820   5.017   1.867
 1113WAT      O 4920   7.163   4.556   2.994
 1113WAT     H1 4921   7.127   4.623   3.053
 1113WAT     H2 4922   7.133   4.473   3.032
 1114WAT      O 4923   7.483   4.602   3.283
 1114WAT     H1 4924   7.453   4.616   3.193
 1114WAT     H2 4925   7.560   4.546   3.274
 1115WAT      O 4926   8.017   5.082   3.082
 1115WAT     H1 4927   8.018   4.988   3.061
 1115WAT     H2 4928   7.946   5.090   3.146
 1116WAT      O 4929   7.800   4.994   2.108
 1116WAT     H1 4930   7.868   5.049   2.146
 1116WAT     H2 4931   7.721   5.049   2.111
 1117WAT      O 4932   7.014   4.556   1.657
 1117WAT     H1 4933   7.101   4.584   1.685
 1117WAT     H2 4934   6.965   4.637   1.645
 1118WAT      O 4935   7.730   4.695   2.069
 1118WAT     H1 4936   7.776   4.776   2.091
 1118WAT     H2 4937   7.695   4.663   2.152
 1119WAT      O 4938   7.960   5.246   2.792
 1119WAT     H1 4939   8.025   5.266   2.859
 1119WAT     H2 4940   7.997   5.170   2.746
 1120WAT      O 4941   7.320   3.729   2.116
 1120WAT     H1 4942   7.307   3.728   2.211
 1120WAT     H2 4943   7.238   3.763   2.081
 1121WAT      O 4944   7.050   5.477   1.713
 1121WAT     H1 4945   7.086   5.537   1.648
 1121WAT     H2 4946   7.036   5.532   1.791
 1122WAT      O 4947   7.020   3.905   3.062
 1122WAT     H1 4948   6.949   3.925   3.123
 1122WAT     H2 4949   7.062   3.827   3.099
 1123WAT      O 4950   7.049   5.304   3.161
 1123WAT     H1 4951   7.060   5.210   3.147
 1123WAT     H2 4952   6.984   5.330   3.096
 1124WAT      O 4953   7.848   5.131   3.301
 1124WAT     H1 4954   7.816   5.059   3.355
 1124WAT     H2 4955   7.781   5.199   3.308
 1125WAT      O 4956   7.652   5.216   1.795
 1125WAT     H1 4957   7.651   5.289   1.734
 1125WAT     H2 4958   7.560   5.191   1.804
 1126WAT      O 4959   7.212   4.738   1.870
 1126WAT     H1 4960   7.151   4.812   1.871
 1126WAT     H2 4961   7.260   4.747   1.787
 1127WAT      O 4962   7.951   5.222   1.661
 1127WAT     H1 4963   7.961   5.202   1.568
 1127WAT     H2 4964   7.861   5.196   1.682
 1128WAT      O 4965   7.703   4.278   2.060
 1128WAT     H1 4966   7.632   4.325   2.104
 1128WAT     H2 4967   7.731   4.212   2.123
 1129WAT      O 4968   7.866   4.420   2.860
 1129WAT     H1 4969   7.915   4.467   2.926
 1129WAT     H2 4970   7.880   4.327   2.880
 1130WAT      O 4971   7.815   5.474   2.131
 1130WAT     H1 4972   7.840   5.470   2.039
 1130WAT     H2 4973   7.720   5.461   2.130
 1131WAT      O 4974   7.523   4.109   1.797
 1131WAT     H1 4975   7.608   4.152   1.790
 1131WAT     H2 4976   7.487   4.140   1.880
 1132WAT      O 4977   7.413   4.734   1.644
 1132WAT     H1 4978   7.490   4.723   1.701
 1132WAT     H2 4979   7.421   4.664   1.579
 1133WAT      O 4980   7.283   4.477   1.713
 1133WAT     H1 4981   7.291   4.382   1.724
 1133WAT     H2 4982   7.372   4.510   1.723
 1134WAT      O 4983   7.363   5.492   2.423
 1134WAT     H1 4984   7.436   5.437   2.450
 1134WAT     H2 4985   7.401   5.579   2.409
 1135WAT      O 4986   7.051   5.099   2.011
 1135WAT     H1 4987   6.959   5.123   2.010
 1135WAT     H2 4988   7.098   5.182   1.998
 1136WAT      O 4989   7.263   5.411   3.342
 1136WAT     H1 4990   7.344   5.443   3.383
 1136WAT     H2 4991   7.212   5.374   3.414
 1137WAT      O 4992   7.674   5.409   1.605
 1137WAT     H1 4993   7.753   5.438   1.560
 1137WAT     H2 4994   7.622   5.366   1.538
 1138WAT      O 4995   7.035   4.659   3.236
 1138WAT     H1 4996   7.086   4.601   3.294
 1138WAT     H2 4997   6.961   4.688   3.290
 1139WAT      O 4998   7.726   4.931   1.592
 1139WAT     H1 4999   7.715   4.870   1.664
 1139WAT     H2 5000   7.709   4.879   1.513
 1140WAT      O 5001   7.741   4.800   3.190
 1140WAT     H1 5002   7.664   4.857   3.181
 1140WAT     H2 5003   7.759   4.771   3.100
 1141WAT      O 5004   7.239   4.474   3.326
 1141WAT     H1 5005   7.243   4.444   3.417
 1141WAT     H2 5006   7.324   4.514   3.310
 1142WAT      O 5007   7.616   4.733   1.842
 1142WAT     H1 5008   7.659   4.717   1.926
 1142WAT     H2 5009   7.629   4.652   1.792
 1143WAT      O 5010   7.433   4.331   3.123
 1143WAT     H1 5011   7.380   4.282   3.060
 1143WAT     H2 5012   7.500   4.374   3.069
 1144WAT      O 5013   7.868   4.636   1.567
 1144WAT     H1 5014   7.920   4.564   1.530
 1144WAT     H2 5015   7.932   4.700   1.597
 1145WAT      O 5016   7.481   4.028   3.131
 1145WAT     H1 5017   7.472   3.966   3.058
 1145WAT     H2 5018   7.423   4.101   3.108
 1146WAT      O 5019   7.758   3.884   2.834
 1146WAT     H1 5020   7.713   3.886   2.749
 1146WAT     H2 5021   7.695   3.844   2.894
 1147WAT      O 5022   7.799   4.773   2.896
 1147WAT     H1 5023   7.840   4.858   2.879
 1147WAT     H2 5024   7.707   4.787   2.873
 1148WAT      O 5025   7.506   4.341   1.536
 1148WAT     H1 5026   7.486   4.255   1.573
 1148WAT     H2 5027   7.489   4.332   1.443
 1149WAT      O 5028   7.584   5.404   3.008
 1149WAT     H1 5029   7.530   5.476   2.976
 1149WAT     H2 5030   7.609   5.356   2.929
 1150WAT      O 5031   7.709   4.201   3.160
 1150WAT     H1 5032   7.768   4.170   3.229
 1150WAT     H2 5033   7.627   4.154   3.176
 1151WAT      O 5034   7.386   4.051   1.535
 1151WAT     H1 5035   7.416   4.052   1.444
 1151WAT     H2 5036   7.460   4.016   1.585
 1152WAT      O 5037   7.869   5.527   3.033
 1152WAT     H1 5038   7.862   5.618   3.064
 1152WAT     H2 5039   7.779   5.496   3.031
 1153WAT      O 5040   7.708   3.945   1.634
 1153WAT     H1 5041   7.673   3.877   1.576
 1153WAT     H2 5042   7.728   3.899   1.715
 1154WAT      O 5043   7.924   5.444   1.796
 1154WAT     H1 5044   8.014   5.478   1.798
 1154WAT     H2 5045   7.927   5.372   1.733
 1155WAT      O 5046   7.288   4.981   1.619
 1155WAT     H1 5047   7.332   5.036   1.684
 1155WAT     H2 5048   7.337   4.899   1.619
 1156WAT      O 5049   7.010   5.260   2.364
 1156WAT     H1 5050   7.043   5.173   2.341
 1156WAT     H2 5051   7.052   5.281   2.447
 1157WAT      O 5052   7.469   5.093   2.130
 1157WAT     H1 5053   7.439   5.081   2.220
 1157WAT     H2 5054   7.459   5.007   2.089
 1158WAT      O 5055   7.058   5.347   2.638
 1158WAT     H1 5056   7.015   5.365   2.721
 1158WAT     H2 5057   7.115   5.423   2.623
 1159WAT      O 5058   7.042   4.598   2.273
 1159WAT     H1 5059   6.976   4.571   2.209
 1159WAT     H2 5060   7.126   4.587   2.228
 1160WAT      O 5061   7.145   4.637   2.727
 1160WAT     H1 5062   7.182   4.628   2.815
 1160WAT     H2 5063   7.089   4.560   2.718
 1161WAT      O 5064   7.101   4.328   3.118
 1161WAT     H1 5065   7.011   4.324   3.152
 1161WAT     H2 5066   7.155   4.348   3.195
 1162WAT      O 5067   6.963   4.319   1.868
 1162WAT     H1 5068   6.873   4.345   1.850
 1162WAT     H2 5069   7.012   4.346   1.790
 1163WAT      O 5070   7.217   4.225   1.659
 1163WAT     H1 5071   7.288   4.183   1.610
 1163WAT     H2 5072   7.146   4.231   1.595
 1164WAT      O 5073   7.182   3.830   1.563
 1164WAT     H1 5074   7.254   3.884   1.594
 1164WAT     H2 5075   7.209   3.803   1.475
 1165WAT      O 5076   7.151   3.755   2.553
 1165WAT     H1 5077   7.216   3.700   2.509
 1165WAT     H2 5078   7.193   3.781   2.635
 1166WAT      O 5079   7.126   3.771   2.827
 1166WAT     H1 5080   7.092   3.816   2.904
 1166WAT     H2 5081   7.093   3.681   2.835
 1167WAT      O 5082   7.287   5.088   3.244
 1167WAT     H1 5083   7.283   5.051   3.332
 1167WAT     H2 5084   7.300   5.182   3.258
 1168WAT      O 5085   7.657   5.244   2.804
 1168WAT     H1 5086   7.633   5.270   2.715
 1168WAT     H2 5087   7.751   5.261   2.809
 1169WAT      O 5088   7.878   3.890   3.179
 1169WAT     H1 5089   7.872   3.949   3.254
 1169WAT     H2 5090   7.972   3.879   3.165
 1170WAT      O 5091   7.194   3.723   3.155
 1170WAT     H1 5092   7.248   3.705   3.078
 1170WAT     H2 5093   7.200   3.644   3.208
 1171WAT      O 5094   7.271   5.383   2.956
 1171WAT     H1 5095   7.211   5.369   3.030
 1171WAT     H2 5096   7.270   5.299   2.909
 1172WAT      O 5097   7.234   5.119   2.851
 1172WAT     H1 5098   7.161   5.057   2.844
 1172WAT     H2 5099   7.240   5.159   2.764
 1173WAT      O 5100   7.594   5.341   2.529
 1173WAT     H1 5101   7.646   5.279   2.477
 1173WAT     H2 5102   7.659   5.391   2.578
 1174WAT      O 5103   7.868   5.430   2.612
 1174WAT     H1 5104   7.897   5.404   2.524
 1174WAT     H2 5105   7.920   5.374   2.671
 1175WAT      O 5106   7.990   3.804   2.670
 1175WAT     H1 5107   7.912   3.851   2.698
 1175WAT     H2 5108   7.961   3.713   2.659
 1176WAT      O 5109   7.062   5.451   2.172
 1176WAT     H1 5110   7.046   5.388   2.242
 1176WAT     H2 5111   6.976   5.471   2.137
 1177WAT      O 5112   7.125   3.834   1.922
 1177WAT     H1 5113   7.200   3.845   1.865
 1177WAT     H2 5114   7.078   3.918   1.917
 1178WAT      O 5115   7.779   4.045   2.221
 1178WAT     H1 5116   7.697   4.008   2.187
 1178WAT     H2 5117   7.829   3.970   2.251
 1179WAT      O 5118   7.223   5.320   1.916
 1179WAT     H1 5119   7.170   5.358   1.846
 1179WAT     H2 5120   7.215   5.383   1.988
 1180WAT      O 5121   7.362   3.887   1.776
 1180WAT     H1 5122   7.415   3.808   1.763
 1180WAT     H2 5123   7.425   3.955   1.799
 1181WAT      O 5124   7.581   3.860   2.081
 1181WAT     H1 5125   7.518   3.790   2.098
 1181WAT     H2 5126   7.527   3.936   2.060
 1182WAT      O 5127   7.875   5.522   3.349
 1182WAT     H1 5128   7.968   5.498   3.353
 1182WAT     H2 5129   7.874   5.605   3.300
 1183WAT      O 5130   7.594   3.788   3.325
 1183WAT     H1 5131   7.566   3.839   3.249
 1183WAT     H2 5132   7.632   3.708   3.288
 1184WAT      O 5133   7.483   5.515   1.804
 1184WAT     H1 5134   7.556   5.487   1.749
 1184WAT     H2 5135   7.509   5.491   1.893
 1185WAT      O 5136   7.399   5.127   1.804
 1185WAT     H1 5137   7.336   5.174   1.859
 1185WAT     H2 5138   7.410   5.042   1.848
 1186WAT      O 5139   7.958   4.710   0.607
 1186WAT     H1 5140   7.880   4.662   0.636
 1186WAT     H2 5141   8.023   4.642   0.590
 1187WAT      O 5142   7.359   4.741   0.695
 1187WAT     H1 5143   7.276   4.715   0.735
 1187WAT     H2 5144   7.420   4.748   0.769
 1188WAT      O 5145   7.357   5.144   0.715
 1188WAT     H1 5146   7.388   5.055   0.697
 1188WAT     H2 5147   7.432   5.200   0.692
 1189WAT      O 5148   6.997   4.497   0.662
 1189WAT     H1 5149   7.054   4.420   0.662
 1189WAT     H2 5150   6.997   4.527   0.571
 1190WAT      O 5151   7.982   5.379   0.447
 1190WAT     H1 5152   7.921   5.424   0.390
 1190WAT     H2 5153   8.068   5.394   0.407
 1191WAT      O 5154   7.902   4.977   0.608
 1191WAT     H1 5155   7.895   4.883   0.592
 1191WAT     H2 5156   7.978   4.986   0.665
 1192WAT      O 5157   7.121   4.038   0.841
 1192WAT     H1 5158   7.103   3.948   0.869
 1192WAT     H2 5159   7.081   4.092   0.908
 1193WAT      O 5160   8.005   4.258   0.631
 1193WAT     H1 5161   8.042   4.171   0.619
 1193WAT     H2 5162   7.995   4.291   0.542
 1194WAT      O 5163   7.418   4.095   0.177
 1194WAT     H1 5164   7.429   4.185   0.208
 1194WAT     H2 5165   7.327   4.090   0.148
 1195WAT      O 5166   7.183   4.287   0.701
 1195WAT     H1 5167   7.251   4.314   0.763
 1195WAT     H2 5168   7.151   4.203   0.735
 1196WAT      O 5169   7.602   4.392   0.610
 1196WAT     H1 5170   7.653   4.442   0.674
 1196WAT     H2 5171   7.655   4.314   0.592
 1197WAT      O 5172   7.430   3.856   1.037
 1197WAT     H1 5173   7.431   3.908   0.956
 1197WAT     H2 5174   7.347   3.808   1.034
 1198WAT      O 5175   7.555   4.820   0.854
 1198WAT     H1 5176   7.522   4.883   0.919
 1198WAT     H2 5177   7.573   4.872   0.776
 1199WAT      O 5178   7.398   4.027   0.837
 1199WAT     H1 5179   7.433   4.111   0.808
 1199WAT     H2 5180   7.305   4.042   0.849
 1200WAT      O 5181   7.477   5.017   1.036
 1200WAT     H1 5182   7.538   5.084   1.008
 1200WAT     H2 5183   7.390   5.058   1.027
 1201WAT      O 5184   7.767   3.776   0.470
 1201WAT     H1 5185   7.798   3.720   0.398
 1201WAT     H2 5186   7.674   3.789   0.452
 1202WAT      O 5187   7.566   4.635   0.422
 1202WAT     H1 5188   7.526   4.564   0.372
 1202WAT     H2 5189   7.575   4.600   0.511
 1203WAT      O 5190   7.613   5.004   0.638
 1203WAT     H1 5191   7.583   4.943   0.570
 1203WAT     H2 5192   7.708   5.007   0.627
 1204WAT      O 5193   7.437   4.312   0.800
 1204WAT     H1 5194   7.493   4.323   0.722
 1204WAT     H2 5195   7.489   4.350   0.871
 1205WAT      O 5196   7.522   4.977   1.303
 1205WAT     H1 5197   7.432   5.000   1.328
 1205WAT     H2 5198   7.525   4.990   1.208
 1206WAT      O 5199   7.405   4.665   1.161
 1206WAT     H1 5200   7.391   4.752   1.198
 1206WAT     H2 5201   7.317   4.630   1.146
 1207WAT      O 5202   7.585   5.259   1.382
 1207WAT     H1 5203   7.582   5.299   1.295
 1207WAT     H2 5204   7.568   5.166   1.365
 1208WAT      O 5205   7.000   4.842   0.752
 1208WAT     H1 5206   7.008   4.855   0.658
 1208WAT     H2 5207   7.061   4.771   0.772
 1209WAT      O 5208   7.125   5.012   0.393
 1209WAT     H1 5209   7.084   5.026   0.308
 1209WAT     H2 5210   7.214   4.983   0.373
 1210WAT      O 5211   7.552   5.433   0.205
 1210WAT     H1 5212   7.534   5.341   0.183
 1210WAT     H2 5213   7.466   5.469   0.229
 1211WAT      O 5214   7.006   4.946   1.006
 1211WAT     H1 5215   7.022   4.899   0.925
 1211WAT     H2 5216   7.052   4.895   1.073
 1212WAT      O 5217   7.483   3.859   0.510
 1212WAT     H1 5218   7.438   3.937   0.477
 1212WAT     H2 5219   7.539   3.891   0.581
 1213WAT      O 5220   7.912   4.145   1.070
 1213WAT     H1 5221   7.865   4.166   1.152
 1213WAT     H2 5222   7.871   4.064   1.040
 1214WAT      O 5223   7.687   3.913   0.696
 1214WAT     H1 5224   7.716   4.004   0.688
 1214WAT     H2 5225   7.741   3.864   0.634
 1215WAT      O 5226   7.462   4.371   0.283
 1215WAT     H1 5227   7.439   4.349   0.373
 1215WAT     H2 5228   7.384   4.414   0.248
 1216WAT      O 5229   7.706   4.461   1.349
 1216WAT     H1 5230   7.696   4.367   1.334
 1216WAT     H2 5231   7.790   4.483   1.310
 1217WAT      O 5232   7.219   4.102   1.165
 1217WAT     H1 5233   7.180   4.187   1.185
 1217WAT     H2 5234   7.150   4.038   1.184
 1218WAT      O 5235   7.877   4.110   1.472
 1218WAT     H1 5236   7.807   4.091   1.535
 1218WAT     H2 5237   7.951   4.139   1.525
 1219WAT      O 5238   6.949   3.894   0.568
 1219WAT     H1 5239   6.920   3.951   0.639
 1219WAT     H2 5240   7.024   3.846   0.604
 1220WAT      O 5241   7.748   4.162   0.596
 1220WAT     H1 5242   7.748   4.118   0.511
 1220WAT     H2 5243   7.837   4.194   0.606
 1221WAT      O 5244   7.333   4.150   0.492
 1221WAT     H1 5245   7.299   4.198   0.567
 1221WAT     H2 5246   7.257   4.105   0.456
 1222WAT      O 5247   7.163   4.883   1.222
 1222WAT     H1 5248   7.125   4.819   1.282
 1222WAT     H2 5249   7.194   4.954   1.279
 1223WAT      O 5250   7.778   4.568   0.770
 1223WAT     H1 5251   7.815   4.521   0.845
 1223WAT     H2 5252   7.759   4.655   0.804
 1224WAT      O 5253   7.064   4.042   0.383
 1224WAT     H1 5254   7.036   4.006   0.467
 1224WAT     H2 5255   7.058   3.969   0.322
 1225WAT      O 5256   7.557   4.472   1.002
 1225WAT     H1 5257   7.527   4.560   1.025
 1225WAT     H2 5258   7.652   4.478   1.006
 1226WAT      O 5259   8.024   4.799   1.230
 1226WAT     H1 5260   8.017   4.707   1.204
 1226WAT     H2 5261   7.961   4.809   1.301
 1227WAT      O 5262   7.414   4.859   0.426
 1227WAT     H1 5263   7.466   4.779   0.420
 1227WAT     H2 5264   7.369   4.853   0.510
 1228WAT      O 5265   7.163   4.556   1.117
 1228WAT     H1 5266   7.127   4.623   1.176
 1228WAT     H2 5267   7.133   4.473   1.154
 1229WAT      O 5268   7.483   4.602   1.405
 1229WAT     H1 5269   7.453   4.616   1.316
 1229WAT     H2 5270   7.560   4.546   1.396
 1230WAT      O 5271   8.017   5.082   1.205
 1230WAT     H1 5272   8.018   4.988   1.183
 1230WAT     H2 5273   7.946   5.090   1.269
 1231WAT      O 5274   7.800   4.994   0.230
 1231WAT     H1 5275   7.868   5.049   0.268
 1231WAT     H2 5276   7.721   5.049   0.234
 1232WAT      O 5277   7.730   4.695   0.191
 1232WAT     H1 5278   7.776   4.776   0.214
 1232WAT     H2 5279   7.695   4.663   0.275
 1233WAT      O 5280   7.960   5.246   0.914
 1233WAT     H1 5281   8.025   5.266   0.982
 1233WAT     H2 5282   7.997   5.170   0.869
 1234WAT      O 5283   7.320   3.729   0.239
 1234WAT     H1 5284   7.307   3.728   0.333
 1234WAT     H2 5285   7.238   3.763   0.204
 1235WAT      O 5286   7.020   3.905   1.185
 1235WAT     H1 5287   6.949   3.925   1.245
 1235WAT     H2 5288   7.062   3.827   1.222
 1236WAT      O 5289   7.049   5.304   1.283
 1236WAT     H1 5290   7.060   5.210   1.269
 1236WAT     H2 5291   6.984   5.330   1.218
 1237WAT      O 5292   7.848   5.131   1.423
 1237WAT     H1 5293   7.816   5.059   1.478
 1237WAT     H2 5294   7.781   5.199   1.431
 1238WAT      O 5295   7.703   4.278   0.182
 1238WAT     H1 5296   7.632   4.325   0.226
 1238WAT     H2 5297   7.731   4.212   0.246
 1239WAT      O 5298   7.866   4.420   0.982
 1239WAT     H1 5299   7.915   4.467   1.049
 1239WAT     H2 5300   7.880   4.327   1.003
 1240WAT      O 5301   7.815   5.474   0.253
 1240WAT     H1 5302   7.840   5.470   0.161
 1240WAT     H2 5303   7.720   5.461   0.253
 1241WAT      O 5304   7.363   5.492   0.546
 1241WAT     H1 5305   7.436   5.437   0.573
 1241WAT     H2 5306   7.401   5.579   0.532
 1242WAT      O 5307   7.263   5.411   1.465
 1242WAT     H1 5308   7.344   5.443   1.506
 1242WAT     H2 5309   7.212   5.374   1.537
 1243WAT      O 5310   7.035   4.659   1.359
 1243WAT     H1 5311   7.086   4.601   1.416
 1243WAT     H2 5312   6.961   4.688   1.413
 1244WAT      O 5313   7.741   4.800   1.312
 1244WAT     H1 5314   7.664   4.857   1.304
 1244WAT     H2 5315   7.759   4.771   1.223
 1245WAT      O 5316   7.239   4.474   1.448
 1245WAT     H1 5317   7.243   4.444   1.539
 1245WAT     H2 5318   7.324   4.514   1.432
 1246WAT      O 5319   7.433   4.331   1.245
 1246WAT     H1 5320   7.380   4.282   1.182
 1246WAT     H2 5321   7.500   4.374   1.192
 1247WAT      O 5322   7.481   4.028   1.253
 1247WAT     H1 5323   7.472   3.966   1.181
 1247WAT     H2 5324   7.423   4.101   1.230
 1248WAT      O 5325   7.758   3.884   0.956
 1248WAT     H1 5326   7.713   3.886   0.872
 1248WAT     H2 5327   7.695   3.844   1.016
 1249WAT      O 5328   7.799   4.773   1.019
 1249WAT     H1 5329   7.840   4.858   1.001
 1249WAT     H2 5330   7.707   4.787   0.996
 1250WAT      O 5331   7.584   5.404   1.130
 1250WAT     H1 5332   7.530   5.476   1.098
 1250WAT     H2 5333   7.609   5.356   1.051
 1251WAT      O 5334   7.709   4.201   1.283
 1251WAT     H1 5335   7.768   4.170   1.351
 1251WAT     H2 5336   7.627   4.154   1.298
 1252WAT      O 5337   7.869   5.527   1.156
 1252WAT     H1 5338   7.862   5.618   1.187
 1252WAT     H2 5339   7.779   5.496   1.153
 1253WAT      O 5340   7.010   5.260   0.486
 1253WAT     H1 5341   7.043   5.173   0.463
 1253WAT     H2 5342   7.052   5.281   0.569
 1254WAT      O 5343   7.469   5.093   0.252
 1254WAT     H1 5344   7.439   5.081   0.342
 1254WAT     H2 5345   7.459   5.007   0.211
 1255WAT      O 5346   7.058   5.347   0.760
 1255WAT     H1 5347   7.015   5.365   0.843
 1255WAT     H2 5348   7.115   5.423   0.746
 1256WAT      O 5349   7.042   4.598   0.396
 1256WAT     H1 5350   6.976   4.571   0.332
 1256WAT     H2 5351   7.126   4.587   0.351
 1257WAT      O 5352   7.145   4.637   0.850
 1257WAT     H1 5353   7.182   4.628   0.938
 1257WAT     H2 5354   7.089   4.560   0.840
 1258WAT      O 5355   7.101   4.328   1.241
 1258WAT     H1 5356   7.011   4.324   1.275
 1258WAT     H2 5357   7.155   4.348   1.317
 1259WAT      O 5358   7.151   3.755   0.675
 1259WAT     H1 5359   7.216   3.700   0.631
 1259WAT     H2 5360   7.193   3.781   0.758
 1260WAT      O 5361   7.126   3.771   0.950
 1260WAT     H1 5362   7.092   3.816   1.026
 1260WAT     H2 5363   7.093   3.681   0.958
 1261WAT      O 5364   7.287   5.088   1.366
 1261WAT     H1 5365   7.283   5.051   1.454
 1261WAT     H2 5366   7.300   5.182   1.380
 1262WAT      O 5367   7.657   5.244   0.926
 1262WAT     H1 5368   7.633   5.270   0.838
 1262WAT     H2 5369   7.751   5.261   0.932
 1263WAT      O 5370   7.878   3.890   1.302
 1263WAT     H1 5371   7.872   3.949   1.377
 1263WAT     H2 5372   7.972   3.879   1.287
 1264WAT      O 5373   7.194   3.723   1.277
 1264WAT     H1 5374   7.248   3.705   1.201
 1264WAT     H2 5375   7.200   3.644   1.331
 1265WAT      O 5376   7.271   5.383   1.078
 1265WAT     H1 5377   7.211   5.369   1.152
 1265WAT     H2 5378   7.270   5.299   1.032
 1266WAT      O 5379   7.234   5.119   0.973
 1266WAT     H1 5380   7.161   5.057   0.967
 1266WAT     H2 5381   7.240   5.159   0.886
 1267WAT      O 5382   7.594   5.341   0.652
 1267WAT     H1 5383   7.646   5.279   0.599
 1267WAT     H2 5384   7.659   5.391   0.701
 1268WAT      O 5385   7.868   5.430   0.734
 1268WAT     H1 5386   7.897   5.404   0.647
 1268WAT     H2 5387   7.920   5.374   0.794
 1269WAT      O 5388   7.990   3.804   0.792
 1269WAT     H1 5389   7.912   3.851   0.820
 1269WAT     H2 5390   7.961   3.713   0.782
 1270WAT      O 5391   7.062   5.451   0.294
 1270WAT     H1 5392   7.046   5.388   0.364
 1270WAT     H2 5393   6.976   5.471   0.259
 1271WAT      O 5394   7.779   4.045   0.344
 1271WAT     H1 5395   7.697   4.008   0.310
 1271WAT     H2 5396   7.829   3.970   0.374
 1272WAT      O 5397   7.581   3.860   0.204
 1272WAT     H1 5398   7.518   3.790   0.221
 1272WAT     H2 5399   7.527   3.936   0.182
 1273WAT      O 5400   7.875   5.522   1.471
 1273WAT     H1 5401   7.968   5.498   1.476
 1273WAT     H2 5402   7.874   5.605   1.423
 1274WAT      O 5403   7.594   3.788   1.448
 1274WAT     H1 5404   7.566   3.839   1.371
 1274WAT     H2 5405   7.632   3.708   1.411
 1275WAT      O 5406   7.958   2.832   6.240
 1275WAT     H1 5407   7.880   2.784   6.269
 1275WAT     H2 5408   8.023   2.764   6.222
 1276WAT      O 5409   7.359   2.863   6.327
 1276WAT     H1 5410   7.276   2.838   6.367
 1276WAT     H2 5411   7.420   2.870   6.401
 1277WAT      O 5412   7.357   3.267   6.347
 1277WAT     H1 5413   7.388   3.178   6.329
 1277WAT     H2 5414   7.432   3.322   6.324
 1278WAT      O 5415   7.200   2.359   5.706
 1278WAT     H1 5416   7.111   2.393   5.696
 1278WAT     H2 5417   7.229   2.339   5.617
 1279WAT      O 5418   6.997   2.619   6.294
 1279WAT     H1 5419   7.054   2.543   6.294
 1279WAT     H2 5420   6.997   2.649   6.203
 1280WAT      O 5421   7.982   3.501   6.080
 1280WAT     H1 5422   7.921   3.547   6.023
 1280WAT     H2 5423   8.068   3.517   6.039
 1281WAT      O 5424   7.902   3.100   6.240
 1281WAT     H1 5425   7.895   3.006   6.224
 1281WAT     H2 5426   7.978   3.109   6.297
 1282WAT      O 5427   7.121   2.160   6.473
 1282WAT     H1 5428   7.103   2.070   6.501
 1282WAT     H2 5429   7.081   2.215   6.540
 1283WAT      O 5430   8.005   2.380   6.263
 1283WAT     H1 5431   8.042   2.293   6.252
 1283WAT     H2 5432   7.995   2.414   6.174
 1284WAT      O 5433   7.418   2.218   5.809
 1284WAT     H1 5434   7.429   2.308   5.840
 1284WAT     H2 5435   7.327   2.213   5.780
 1285WAT      O 5436   7.183   2.410   6.334
 1285WAT     H1 5437   7.251   2.436   6.396
 1285WAT     H2 5438   7.151   2.326   6.367
 1286WAT      O 5439   7.602   2.514   6.242
 1286WAT     H1 5440   7.653   2.564   6.306
 1286WAT     H2 5441   7.655   2.437   6.225
 1287WAT      O 5442   7.555   2.942   6.487
 1287WAT     H1 5443   7.522   3.005   6.551
 1287WAT     H2 5444   7.573   2.995   6.409
 1288WAT      O 5445   7.398   2.150   6.470
 1288WAT     H1 5446   7.433   2.234   6.440
 1288WAT     H2 5447   7.305   2.164   6.481
 1289WAT      O 5448   7.006   3.058   5.556
 1289WAT     H1 5449   6.968   3.107   5.483
 1289WAT     H2 5450   7.032   3.125   5.619
 1290WAT      O 5451   7.767   1.898   6.102
 1290WAT     H1 5452   7.798   1.843   6.031
 1290WAT     H2 5453   7.674   1.912   6.084
 1291WAT      O 5454   8.006   2.705   5.776
 1291WAT     H1 5455   7.913   2.698   5.799
 1291WAT     H2 5456   8.021   2.799   5.764
 1292WAT      O 5457   8.004   2.332   5.475
 1292WAT     H1 5458   7.910   2.348   5.484
 1292WAT     H2 5459   8.036   2.404   5.421
 1293WAT      O 5460   7.566   2.758   6.054
 1293WAT     H1 5461   7.526   2.686   6.004
 1293WAT     H2 5462   7.575   2.723   6.143
 1294WAT      O 5463   7.613   3.126   6.270
 1294WAT     H1 5464   7.583   3.066   6.202
 1294WAT     H2 5465   7.708   3.130   6.259
 1295WAT      O 5466   7.437   2.435   6.432
 1295WAT     H1 5467   7.493   2.446   6.354
 1295WAT     H2 5468   7.489   2.472   6.504
 1296WAT      O 5469   7.236   2.647   5.804
 1296WAT     H1 5470   7.224   2.720   5.743
 1296WAT     H2 5471   7.205   2.570   5.756
 1297WAT      O 5472   7.000   2.964   6.385
 1297WAT     H1 5473   7.008   2.978   6.290
 1297WAT     H2 5474   7.061   2.893   6.404
 1298WAT      O 5475   7.125   3.134   6.026
 1298WAT     H1 5476   7.084   3.148   5.940
 1298WAT     H2 5477   7.214   3.106   6.005
 1299WAT      O 5478   7.552   3.556   5.837
 1299WAT     H1 5479   7.534   3.464   5.816
 1299WAT     H2 5480   7.466   3.591   5.861
 1300WAT      O 5481   7.483   1.981   6.142
 1300WAT     H1 5482   7.438   2.059   6.109
 1300WAT     H2 5483   7.539   2.014   6.213
 1301WAT      O 5484   7.794   1.943   5.630
 1301WAT     H1 5485   7.732   1.943   5.703
 1301WAT     H2 5486   7.786   1.857   5.591
 1302WAT      O 5487   7.687   2.036   6.328
 1302WAT     H1 5488   7.716   2.126   6.320
 1302WAT     H2 5489   7.741   1.987   6.267
 1303WAT      O 5490   7.462   2.494   5.915
 1303WAT     H1 5491   7.439   2.472   6.006
 1303WAT     H2 5492   7.384   2.537   5.881
 1304WAT      O 5493   6.949   2.017   6.200
 1304WAT     H1 5494   6.920   2.074   6.272
 1304WAT     H2 5495   7.024   1.969   6.237
 1305WAT      O 5496   6.968   2.411   5.321
 1305WAT     H1 5497   6.960   2.505   5.336
 1305WAT     H2 5498   6.933   2.397   5.233
 1306WAT      O 5499   7.748   2.285   6.228
 1306WAT     H1 5500   7.748   2.240   6.143
 1306WAT     H2 5501   7.837   2.317   6.239
 1307WAT      O 5502   7.333   2.273   6.124
 1307WAT     H1 5503   7.299   2.321   6.200
 1307WAT     H2 5504   7.257   2.227   6.088
 1308WAT      O 5505   7.754   2.385   5.527
 1308WAT     H1 5506   7.766   2.381   5.622
 1308WAT     H2 5507   7.716   2.471   5.512
 1309WAT      O 5508   7.655   2.616   5.467
 1309WAT     H1 5509   7.598   2.571   5.404
 1309WAT     H2 5510   7.726   2.652   5.414
 1310WAT      O 5511   7.778   2.691   6.403
 1310WAT     H1 5512   7.815   2.643   6.477
 1310WAT     H2 5513   7.759   2.778   6.437
 1311WAT      O 5514   7.064   2.165   6.016
 1311WAT     H1 5515   7.036   2.129   6.099
 1311WAT     H2 5516   7.058   2.092   5.954
 1312WAT      O 5517   7.410   3.015   5.694
 1312WAT     H1 5518   7.332   2.961   5.678
 1312WAT     H2 5519   7.483   2.963   5.660
 1313WAT      O 5520   8.032   2.054   5.688
 1313WAT     H1 5521   7.950   2.004   5.680
 1313WAT     H2 5522   8.012   2.138   5.646
 1314WAT      O 5523   7.414   2.982   6.058
 1314WAT     H1 5524   7.466   2.902   6.053
 1314WAT     H2 5525   7.369   2.976   6.142
 1315WAT      O 5526   7.903   3.109   5.585
 1315WAT     H1 5527   7.937   3.183   5.536
 1315WAT     H2 5528   7.820   3.140   5.622
 1316WAT      O 5529   7.800   3.117   5.862
 1316WAT     H1 5530   7.868   3.172   5.901
 1316WAT     H2 5531   7.721   3.171   5.866
 1317WAT      O 5532   7.014   2.679   5.412
 1317WAT     H1 5533   7.101   2.707   5.440
 1317WAT     H2 5534   6.965   2.760   5.400
 1318WAT      O 5535   7.730   2.817   5.824
 1318WAT     H1 5536   7.776   2.898   5.846
 1318WAT     H2 5537   7.695   2.786   5.907
 1319WAT      O 5538   7.960   3.368   6.547
 1319WAT     H1 5539   8.025   3.389   6.614
 1319WAT     H2 5540   7.997   3.292   6.501
 1320WAT      O 5541   7.320   1.852   5.871
 1320WAT     H1 5542   7.307   1.851   5.966
 1320WAT     H2 5543   7.238   1.886   5.836
 1321WAT      O 5544   7.050   3.600   5.468
 1321WAT     H1 5545   7.086   3.660   5.403
 1321WAT     H2 5546   7.036   3.654   5.546
 1322WAT      O 5547   7.652   3.338   5.550
 1322WAT     H1 5548   7.651   3.411   5.488
 1322WAT     H2 5549   7.560   3.313   5.559
 1323WAT      O 5550   7.212   2.860   5.624
 1323WAT     H1 5551   7.151   2.934   5.625
 1323WAT     H2 5552   7.260   2.869   5.542
 1324WAT      O 5553   7.951   3.344   5.416
 1324WAT     H1 5554   7.961   3.324   5.323
 1324WAT     H2 5555   7.861   3.319   5.437
 1325WAT      O 5556   7.703   2.400   5.814
 1325WAT     H1 5557   7.632   2.447   5.859
 1325WAT     H2 5558   7.731   2.334   5.878
 1326WAT      O 5559   7.815   3.596   5.886
 1326WAT     H1 5560   7.840   3.593   5.793
 1326WAT     H2 5561   7.720   3.584   5.885
 1327WAT      O 5562   7.523   2.231   5.552
 1327WAT     H1 5563   7.608   2.275   5.545
 1327WAT     H2 5564   7.487   2.262   5.635
 1328WAT      O 5565   7.413   2.856   5.399
 1328WAT     H1 5566   7.490   2.845   5.456
 1328WAT     H2 5567   7.421   2.787   5.334
 1329WAT      O 5568   7.283   2.600   5.468
 1329WAT     H1 5569   7.291   2.505   5.479
 1329WAT     H2 5570   7.372   2.633   5.478
 1330WAT      O 5571   7.363   3.615   6.178
 1330WAT     H1 5572   7.436   3.560   6.205
 1330WAT     H2 5573   7.401   3.701   6.164
 1331WAT      O 5574   7.051   3.221   5.765
 1331WAT     H1 5575   6.959   3.246   5.764
 1331WAT     H2 5576   7.098   3.304   5.753
 1332WAT      O 5577   7.674   3.532   5.360
 1332WAT     H1 5578   7.753   3.561   5.315
 1332WAT     H2 5579   7.622   3.489   5.292
 1333WAT      O 5580   7.726   3.054   5.347
 1333WAT     H1 5581   7.715   2.992   5.419
 1333WAT     H2 5582   7.709   3.002   5.268
 1334WAT      O 5583   7.616   2.856   5.597
 1334WAT     H1 5584   7.659   2.839   5.681
 1334WAT     H2 5585   7.629   2.775   5.547
 1335WAT      O 5586   7.868   2.758   5.322
 1335WAT     H1 5587   7.920   2.687   5.285
 1335WAT     H2 5588   7.932   2.822   5.352
 1336WAT      O 5589   7.758   2.006   6.589
 1336WAT     H1 5590   7.713   2.009   6.504
 1336WAT     H2 5591   7.695   1.967   6.648
 1337WAT      O 5592   7.799   2.896   6.651
 1337WAT     H1 5593   7.840   2.980   6.634
 1337WAT     H2 5594   7.707   2.910   6.628
 1338WAT      O 5595   7.506   2.463   5.291
 1338WAT     H1 5596   7.486   2.377   5.327
 1338WAT     H2 5597   7.489   2.455   5.198
 1339WAT      O 5598   7.386   2.173   5.290
 1339WAT     H1 5599   7.416   2.174   5.199
 1339WAT     H2 5600   7.460   2.138   5.340
 1340WAT      O 5601   7.708   2.068   5.389
 1340WAT     H1 5602   7.673   2.000   5.331
 1340WAT     H2 5603   7.728   2.022   5.470
 1341WAT      O 5604   7.924   3.567   5.551
 1341WAT     H1 5605   8.014   3.600   5.553
 1341WAT     H2 5606   7.927   3.494   5.488
 1342WAT      O 5607   7.288   3.104   5.373
 1342WAT     H1 5608   7.332   3.158   5.439
 1342WAT     H2 5609   7.337   3.021   5.374
 1343WAT      O 5610   7.010   3.383   6.119
 1343WAT     H1 5611   7.043   3.296   6.095
 1343WAT     H2 5612   7.052   3.403   6.202
 1344WAT      O 5613   7.469   3.216   5.885
 1344WAT     H1 5614   7.439   3.203   5.975
 1344WAT     H2 5615   7.459   3.130   5.844
 1345WAT      O 5616   7.058   3.469   6.392
 1345WAT     H1 5617   7.015   3.487   6.476
 1345WAT     H2 5618   7.115   3.545   6.378
 1346WAT      O 5619   7.042   2.721   6.028
 1346WAT     H1 5620   6.976   2.694   5.964
 1346WAT     H2 5621   7.126   2.710   5.983
 1347WAT      O 5622   7.145   2.759   6.482
 1347WAT     H1 5623   7.182   2.750   6.570
 1347WAT     H2 5624   7.089   2.683   6.472
 1348WAT      O 5625   6.963   2.442   5.623
 1348WAT     H1 5626   6.873   2.468   5.605
 1348WAT     H2 5627   7.012   2.469   5.545
 1349WAT      O 5628   7.217   2.347   5.414
 1349WAT     H1 5629   7.288   2.305   5.365
 1349WAT     H2 5630   7.146   2.354   5.350
 1350WAT      O 5631   7.182   1.953   5.318
 1350WAT     H1 5632   7.254   2.007   5.349
 1350WAT     H2 5633   7.209   1.925   5.230
 1351WAT      O 5634   7.151   1.878   6.308
 1351WAT     H1 5635   7.216   1.823   6.264
 1351WAT     H2 5636   7.193   1.903   6.390
 1352WAT      O 5637   7.657   3.366   6.559
 1352WAT     H1 5638   7.633   3.393   6.470
 1352WAT     H2 5639   7.751   3.383   6.564
 1353WAT      O 5640   7.234   3.242   6.606
 1353WAT     H1 5641   7.161   3.180   6.599
 1353WAT     H2 5642   7.240   3.281   6.519
 1354WAT      O 5643   7.594   3.463   6.284
 1354WAT     H1 5644   7.646   3.402   6.232
 1354WAT     H2 5645   7.659   3.513   6.333
 1355WAT      O 5646   7.868   3.552   6.367
 1355WAT     H1 5647   7.897   3.527   6.279
 1355WAT     H2 5648   7.920   3.497   6.426
 1356WAT      O 5649   7.990   1.926   6.425
 1356WAT     H1 5650   7.912   1.974   6.453
 1356WAT     H2 5651   7.961   1.836   6.414
 1357WAT      O 5652   7.062   3.573   5.927
 1357WAT     H1 5653   7.046   3.510   5.996
 1357WAT     H2 5654   6.976   3.594   5.892
 1358WAT      O 5655   7.125   1.957   5.677
 1358WAT     H1 5656   7.200   1.968   5.620
 1358WAT     H2 5657   7.078   2.040   5.672
 1359WAT      O 5658   7.779   2.168   5.976
 1359WAT     H1 5659   7.697   2.131   5.942
 1359WAT     H2 5660   7.829   2.092   6.006
 1360WAT      O 5661   7.223   3.443   5.671
 1360WAT     H1 5662   7.170   3.481   5.601
 1360WAT     H2 5663   7.215   3.505   5.743
 1361WAT      O 5664   7.362   2.009   5.531
 1361WAT     H1 5665   7.415   1.931   5.518
 1361WAT     H2 5666   7.425   2.077   5.554
 1362WAT      O 5667   7.581   1.983   5.836
 1362WAT     H1 5668   7.518   1.913   5.853
 1362WAT     H2 5669   7.527   2.059   5.815
 1363WAT      O 5670   7.483   3.638   5.559
 1363WAT     H1 5671   7.556   3.609   5.504
 1363WAT     H2 5672   7.509   3.614   5.648
 1364WAT      O 5673   7.399   3.249   5.559
 1364WAT     H1 5674   7.336   3.296   5.614
 1364WAT     H2 5675   7.410   3.165   5.602
 1365WAT      O 5676   7.958   2.832   4.362
 1365WAT     H1 5677   7.880   2.784   4.391
 1365WAT     H2 5678   8.023   2.764   4.345
 1366WAT      O 5679   7.359   2.863   4.450
 1366WAT     H1 5680   7.276   2.838   4.490
 1366WAT     H2 5681   7.420   2.870   4.523
 1367WAT      O 5682   7.357   3.267   4.469
 1367WAT     H1 5683   7.388   3.178   4.452
 1367WAT     H2 5684   7.432   3.322   4.447
 1368WAT      O 5685   7.200   2.359   3.828
 1368WAT     H1 5686   7.111   2.393   3.818
 1368WAT     H2 5687   7.229   2.339   3.739
 1369WAT      O 5688   6.997   2.619   4.417
 1369WAT     H1 5689   7.054   2.543   4.417
 1369WAT     H2 5690   6.997   2.649   4.326
 1370WAT      O 5691   7.982   3.501   4.202
 1370WAT     H1 5692   7.921   3.547   4.145
 1370WAT     H2 5693   8.068   3.517   4.162
 1371WAT      O 5694   7.902   3.100   4.363
 1371WAT     H1 5695   7.895   3.006   4.347
 1371WAT     H2 5696   7.978   3.109   4.420
 1372WAT      O 5697   7.121   2.160   4.595
 1372WAT     H1 5698   7.103   2.070   4.623
 1372WAT     H2 5699   7.081   2.215   4.663
 1373WAT      O 5700   8.005   2.380   4.386
 1373WAT     H1 5701   8.042   2.293   4.374
 1373WAT     H2 5702   7.995   2.414   4.296
 1374WAT      O 5703   7.418   2.218   3.932
 1374WAT     H1 5704   7.429   2.308   3.962
 1374WAT     H2 5705   7.327   2.213   3.903
 1375WAT      O 5706   7.183   2.410   4.456
 1375WAT     H1 5707   7.251   2.436   4.518
 1375WAT     H2 5708   7.151   2.326   4.490
 1376WAT      O 5709   7.602   2.514   4.365
 1376WAT     H1 5710   7.653   2.564   4.429
 1376WAT     H2 5711   7.655   2.437   4.347
 1377WAT      O 5712   7.430   1.978   4.792
 1377WAT     H1 5713   7.431   2.030   4.711
 1377WAT     H2 5714   7.347   1.931   4.789
 1378WAT      O 5715   7.555   2.942   4.609
 1378WAT     H1 5716   7.522   3.005   4.674
 1378WAT     H2 5717   7.573   2.995   4.531
 1379WAT      O 5718   7.398   2.150   4.592
 1379WAT     H1 5719   7.433   2.234   4.563
 1379WAT     H2 5720   7.305   2.164   4.604
 1380WAT      O 5721   7.477   3.139   4.791
 1380WAT     H1 5722   7.538   3.207   4.763
 1380WAT     H2 5723   7.390   3.180   4.782
 1381WAT      O 5724   7.006   3.058   3.679
 1381WAT     H1 5725   6.968   3.107   3.606
 1381WAT     H2 5726   7.032   3.125   3.742
 1382WAT      O 5727   7.767   1.898   4.225
 1382WAT     H1 5728   7.798   1.843   4.153
 1382WAT     H2 5729   7.674   1.912   4.206
 1383WAT      O 5730   8.006   2.705   3.898
 1383WAT     H1 5731   7.913   2.698   3.921
 1383WAT     H2 5732   8.021   2.799   3.887
 1384WAT      O 5733   8.004   2.332   3.598
 1384WAT     H1 5734   7.910   2.348   3.607
 1384WAT     H2 5735   8.036   2.404   3.543
 1385WAT      O 5736   7.566   2.758   4.177
 1385WAT     H1 5737   7.526   2.686   4.127
 1385WAT     H2 5738   7.575   2.723   4.265
 1386WAT      O 5739   7.613   3.126   4.393
 1386WAT     H1 5740   7.583   3.066   4.325
 1386WAT     H2 5741   7.708   3.130   4.382
 1387WAT      O 5742   7.437   2.435   4.555
 1387WAT     H1 5743   7.493   2.446   4.477
 1387WAT     H2 5744   7.489   2.472   4.626
 1388WAT      O 5745   7.522   3.100   5.058
 1388WAT     H1 5746   7.432   3.122   5.083
 1388WAT     H2 5747   7.525   3.112   4.963
 1389WAT      O 5748   7.405   2.787   4.916
 1389WAT     H1 5749   7.391   2.874   4.952
 1389WAT     H2 5750   7.317   2.753   4.901
 1390WAT      O 5751   7.585   3.381   5.136
 1390WAT     H1 5752   7.582   3.422   5.050
 1390WAT     H2 5753   7.568   3.288   5.120
 1391WAT      O 5754   7.236   2.647   3.927
 1391WAT     H1 5755   7.224   2.720   3.865
 1391WAT     H2 5756   7.205   2.570   3.879
 1392WAT      O 5757   7.000   2.964   4.507
 1392WAT     H1 5758   7.008   2.978   4.413
 1392WAT     H2 5759   7.061   2.893   4.527
 1393WAT      O 5760   7.125   3.134   4.148
 1393WAT     H1 5761   7.084   3.148   4.063
 1393WAT     H2 5762   7.214   3.106   4.128
 1394WAT      O 5763   7.552   3.556   3.960
 1394WAT     H1 5764   7.534   3.464   3.938
 1394WAT     H2 5765   7.466   3.591   3.984
 1395WAT      O 5766   7.006   3.068   4.761
 1395WAT     H1 5767   7.022   3.021   4.679
 1395WAT     H2 5768   7.052   3.017   4.828
 1396WAT      O 5769   7.483   1.981   4.265
 1396WAT     H1 5770   7.438   2.059   4.232
 1396WAT     H2 5771   7.539   2.014   4.336
 1397WAT      O 5772   7.912   2.268   4.825
 1397WAT     H1 5773   7.865   2.289   4.906
 1397WAT     H2 5774   7.871   2.187   4.795
 1398WAT      O 5775   7.794   1.943   3.753
 1398WAT     H1 5776   7.732   1.943   3.825
 1398WAT     H2 5777   7.786   1.857   3.713
 1399WAT      O 5778   7.687   2.036   4.451
 1399WAT     H1 5779   7.716   2.126   4.443
 1399WAT     H2 5780   7.741   1.987   4.389
 1400WAT      O 5781   7.462   2.494   4.038
 1400WAT     H1 5782   7.439   2.472   4.128
 1400WAT     H2 5783   7.384   2.537   4.003
 1401WAT      O 5784   7.706   2.584   5.104
 1401WAT     H1 5785   7.696   2.489   5.089
 1401WAT     H2 5786   7.790   2.606   5.065
 1402WAT      O 5787   7.219   2.225   4.920
 1402WAT     H1 5788   7.180   2.309   4.940
 1402WAT     H2 5789   7.150   2.161   4.939
 1403WAT      O 5790   7.877   2.233   5.227
 1403WAT     H1 5791   7.807   2.214   5.290
 1403WAT     H2 5792   7.951   2.261   5.280
 1404WAT      O 5793   6.949   2.017   4.323
 1404WAT     H1 5794   6.920   2.074   4.394
 1404WAT     H2 5795   7.024   1.969   4.359
 1405WAT      O 5796   6.968   2.411   3.444
 1405WAT     H1 5797   6.960   2.505   3.458
 1405WAT     H2 5798   6.933   2.397   3.356
 1406WAT      O 5799   7.748   2.285   4.351
 1406WAT     H1 5800   7.748   2.240   4.266
 1406WAT     H2 5801   7.837   2.317   4.361
 1407WAT      O 5802   7.333   2.273   4.247
 1407WAT     H1 5803   7.299   2.321   4.322
 1407WAT     H2 5804   7.257   2.227   4.211
 1408WAT      O 5805   7.754   2.385   3.650
 1408WAT     H1 5806   7.766   2.381   3.745
 1408WAT     H2 5807   7.716   2.471   3.634
 1409WAT      O 5808   7.655   2.616   3.590
 1409WAT     H1 5809   7.598   2.571   3.527
 1409WAT     H2 5810   7.726   2.652   3.536
 1410WAT      O 5811   7.163   3.006   4.977
 1410WAT     H1 5812   7.125   2.942   5.037
 1410WAT     H2 5813   7.194   3.076   5.034
 1411WAT      O 5814   7.778   2.691   4.525
 1411WAT     H1 5815   7.815   2.643   4.600
 1411WAT     H2 5816   7.759   2.778   4.559
 1412WAT      O 5817   7.064   2.165   4.138
 1412WAT     H1 5818   7.036   2.129   4.222
 1412WAT     H2 5819   7.058   2.092   4.077
 1413WAT      O 5820   7.557   2.595   4.757
 1413WAT     H1 5821   7.527   2.683   4.780
 1413WAT     H2 5822   7.652   2.601   4.761
 1414WAT      O 5823   7.410   3.015   3.817
 1414WAT     H1 5824   7.332   2.961   3.801
 1414WAT     H2 5825   7.483   2.963   3.783
 1415WAT      O 5826   8.032   2.054   3.810
 1415WAT     H1 5827   7.950   2.004   3.803
 1415WAT     H2 5828   8.012   2.138   3.769
 1416WAT      O 5829   8.024   2.922   4.985
 1416WAT     H1 5830   8.017   2.830   4.959
 1416WAT     H2 5831   7.961   2.932   5.056
 1417WAT      O 5832   7.414   2.982   4.181
 1417WAT     H1 5833   7.466   2.902   4.175
 1417WAT     H2 5834   7.369   2.976   4.265
 1418WAT      O 5835   7.903   3.109   3.708
 1418WAT     H1 5836   7.937   3.183   3.658
 1418WAT     H2 5837   7.820   3.140   3.744
 1419WAT      O 5838   7.163   2.679   4.872
 1419WAT     H1 5839   7.127   2.745   4.931
 1419WAT     H2 5840   7.133   2.595   4.909
 1420WAT      O 5841   7.483   2.724   5.160
 1420WAT     H1 5842   7.453   2.739   5.071
 1420WAT     H2 5843   7.560   2.669   5.151
 1421WAT      O 5844   8.017   3.204   4.960
 1421WAT     H1 5845   8.018   3.111   4.938
 1421WAT     H2 5846   7.946   3.213   5.024
 1422WAT      O 5847   7.800   3.117   3.985
 1422WAT     H1 5848   7.868   3.172   4.023
 1422WAT     H2 5849   7.721   3.171   3.989
 1423WAT      O 5850   7.014   2.679   3.534
 1423WAT     H1 5851   7.101   2.707   3.563
 1423WAT     H2 5852   6.965   2.760   3.523
 1424WAT      O 5853   7.730   2.817   3.946
 1424WAT     H1 5854   7.776   2.898   3.969
 1424WAT     H2 5855   7.695   2.786   4.029
 1425WAT      O 5856   7.960   3.368   4.669
 1425WAT     H1 5857   8.025   3.389   4.737
 1425WAT     H2 5858   7.997   3.292   4.624
 1426WAT      O 5859   7.320   1.852   3.993
 1426WAT     H1 5860   7.307   1.851   4.088
 1426WAT     H2 5861   7.238   1.886   3.958
 1427WAT      O 5862   7.050   3.600   3.591
 1427WAT     H1 5863   7.086   3.660   3.525
 1427WAT     H2 5864   7.036   3.654   3.668
 1428WAT      O 5865   7.020   2.028   4.940
 1428WAT     H1 5866   6.949   2.048   5.000
 1428WAT     H2 5867   7.062   1.950   4.977
 1429WAT      O 5868   7.049   3.426   5.038
 1429WAT     H1 5869   7.060   3.332   5.024
 1429WAT     H2 5870   6.984   3.453   4.973
 1430WAT      O 5871   7.848   3.254   5.178
 1430WAT     H1 5872   7.816   3.182   5.233
 1430WAT     H2 5873   7.781   3.321   5.186
 1431WAT      O 5874   7.652   3.338   3.673
 1431WAT     H1 5875   7.651   3.411   3.611
 1431WAT     H2 5876   7.560   3.313   3.682
 1432WAT      O 5877   7.212   2.860   3.747
 1432WAT     H1 5878   7.151   2.934   3.748
 1432WAT     H2 5879   7.260   2.869   3.664
 1433WAT      O 5880   7.951   3.344   3.539
 1433WAT     H1 5881   7.961   3.324   3.446
 1433WAT     H2 5882   7.861   3.319   3.559
 1434WAT      O 5883   7.703   2.400   3.937
 1434WAT     H1 5884   7.632   2.447   3.981
 1434WAT     H2 5885   7.731   2.334   4.000
 1435WAT      O 5886   7.866   2.542   4.737
 1435WAT     H1 5887   7.915   2.590   4.803
 1435WAT     H2 5888   7.880   2.450   4.758
 1436WAT      O 5889   7.815   3.596   4.008
 1436WAT     H1 5890   7.840   3.593   3.916
 1436WAT     H2 5891   7.720   3.584   4.008
 1437WAT      O 5892   7.523   2.231   3.675
 1437WAT     H1 5893   7.608   2.275   3.668
 1437WAT     H2 5894   7.487   2.262   3.757
 1438WAT      O 5895   7.413   2.856   3.522
 1438WAT     H1 5896   7.490   2.845   3.578
 1438WAT     H2 5897   7.421   2.787   3.457
 1439WAT      O 5898   7.283   2.600   3.590
 1439WAT     H1 5899   7.291   2.505   3.601
 1439WAT     H2 5900   7.372   2.633   3.601
 1440WAT      O 5901   7.363   3.615   4.301
 1440WAT     H1 5902   7.436   3.560   4.328
 1440WAT     H2 5903   7.401   3.701   4.287
 1441WAT      O 5904   7.051   3.221   3.888
 1441WAT     H1 5905   6.959   3.246   3.887
 1441WAT     H2 5906   7.098   3.304   3.876
 1442WAT      O 5907   7.263   3.533   5.219
 1442WAT     H1 5908   7.344   3.565   5.261
 1442WAT     H2 5909   7.212   3.497   5.292
 1443WAT      O 5910   7.674   3.532   3.483
 1443WAT     H1 5911   7.753   3.561   3.438
 1443WAT     H2 5912   7.622   3.489   3.415
 1444WAT      O 5913   7.035   2.782   5.114
 1444WAT     H1 5914   7.086   2.724   5.171
 1444WAT     H2 5915   6.961   2.810   5.168
 1445WAT      O 5916   7.726   3.054   3.469
 1445WAT     H1 5917   7.715   2.992   3.542
 1445WAT     H2 5918   7.709   3.002   3.391
 1446WAT      O 5919   7.741   2.923   5.067
 1446WAT     H1 5920   7.664   2.979   5.059
 1446WAT     H2 5921   7.759   2.893   4.978
 1447WAT      O 5922   7.239   2.596   5.203
 1447WAT     H1 5923   7.243   2.566   5.294
 1447WAT     H2 5924   7.324   2.636   5.187
 1448WAT      O 5925   7.616   2.856   3.719
 1448WAT     H1 5926   7.659   2.839   3.804
 1448WAT     H2 5927   7.629   2.775   3.670
 1449WAT      O 5928   7.433   2.454   5.000
 1449WAT     H1 5929   7.380   2.405   4.937
 1449WAT     H2 5930   7.500   2.497   4.947
 1450WAT      O 5931   7.868   2.758   3.444
 1450WAT     H1 5932   7.920   2.687   3.407
 1450WAT     H2 5933   7.932   2.822   3.474
 1451WAT      O 5934   7.481   2.151   5.008
 1451WAT     H1 5935   7.472   2.089   4.936
 1451WAT     H2 5936   7.423   2.223   4.985
 1452WAT      O 5937   7.758   2.006   4.711
 1452WAT     H1 5938   7.713   2.009   4.627
 1452WAT     H2 5939   7.695   1.967   4.771
 1453WAT      O 5940   7.799   2.896   4.773
 1453WAT     H1 5941   7.840   2.980   4.756
 1453WAT     H2 5942   7.707   2.910   4.750
 1454WAT      O 5943   7.506   2.463   3.414
 1454WAT     H1 5944   7.486   2.377   3.450
 1454WAT     H2 5945   7.489   2.455   3.320
 1455WAT      O 5946   7.584   3.526   4.885
 1455WAT     H1 5947   7.530   3.599   4.853
 1455WAT     H2 5948   7.609   3.479   4.806
 1456WAT      O 5949   7.709   2.323   5.038
 1456WAT     H1 5950   7.768   2.292   5.106
 1456WAT     H2 5951   7.627   2.276   5.053
 1457WAT      O 5952   7.386   2.173   3.413
 1457WAT     H1 5953   7.416   2.174   3.322
 1457WAT     H2 5954   7.460   2.138   3.462
 1458WAT      O 5955   7.869   3.650   4.911
 1458WAT     H1 5956   7.862   3.740   4.942
 1458WAT     H2 5957   7.779   3.618   4.908
 1459WAT      O 5958   7.708   2.068   3.511
 1459WAT     H1 5959   7.673   2.000   3.453
 1459WAT     H2 5960   7.728   2.022   3.593
 1460WAT      O 5961   7.924   3.567   3.673
 1460WAT     H1 5962   8.014   3.600   3.675
 1460WAT     H2 5963   7.927   3.494   3.610
 1461WAT      O 5964   7.288   3.104   3.496
 1461WAT     H1 5965   7.332   3.158   3.562
 1461WAT     H2 5966   7.337   3.021   3.497
 1462WAT      O 5967   7.010   3.383   4.241
 1462WAT     H1 5968   7.043   3.296   4.218
 1462WAT     H2 5969   7.052   3.403   4.324
 1463WAT      O 5970   7.469   3.216   4.007
 1463WAT     H1 5971   7.439   3.203   4.097
 1463WAT     H2 5972   7.459   3.130   3.966
 1464WAT      O 5973   7.058   3.469   4.515
 1464WAT     H1 5974   7.015   3.487   4.598
 1464WAT     H2 5975   7.115   3.545   4.501
 1465WAT      O 5976   7.042   2.721   4.151
 1465WAT     H1 5977   6.976   2.694   4.086
 1465WAT     H2 5978   7.126   2.710   4.106
 1466WAT      O 5979   7.145   2.759   4.605
 1466WAT     H1 5980   7.182   2.750   4.693
 1466WAT     H2 5981   7.089   2.683   4.595
 1467WAT      O 5982   7.101   2.450   4.995
 1467WAT     H1 5983   7.011   2.447   5.029
 1467WAT     H2 5984   7.155   2.470   5.072
 1468WAT      O 5985   6.963   2.442   3.745
 1468WAT     H1 5986   6.873   2.468   3.728
 1468WAT     H2 5987   7.012   2.469   3.667
 1469WAT      O 5988   7.217   2.347   3.536
 1469WAT     H1 5989   7.288   2.305   3.488
 1469WAT     H2 5990   7.146   2.354   3.473
 1470WAT      O 5991   7.182   1.953   3.440
 1470WAT     H1 5992   7.254   2.007   3.472
 1470WAT     H2 5993   7.209   1.925   3.353
 1471WAT      O 5994   7.151   1.878   4.430
 1471WAT     H1 5995   7.216   1.823   4.386
 1471WAT     H2 5996   7.193   1.903   4.512
 1472WAT      O 5997   7.126   1.893   4.705
 1472WAT     H1 5998   7.092   1.939   4.781
 1472WAT     H2 5999   7.093   1.804   4.713
 1473WAT      O 6000   7.287   3.210   5.121
 1473WAT     H1 6001   7.283   3.173   5.209
 1473WAT     H2 6002   7.300   3.304   5.135
 1474WAT      O 6003   7.657   3.366   4.681
 1474WAT     H1 6004   7.633   3.393   4.593
 1474WAT     H2 6005   7.751   3.383   4.687
 1475WAT      O 6006   7.878   2.012   5.057
 1475WAT     H1 6007   7.872   2.072   5.132
 1475WAT     H2 6008   7.972   2.002   5.042
 1476WAT      O 6009   7.194   1.846   5.032
 1476WAT     H1 6010   7.248   1.828   4.956
 1476WAT     H2 6011   7.200   1.767   5.086
 1477WAT      O 6012   7.271   3.505   4.833
 1477WAT     H1 6013   7.211   3.492   4.907
 1477WAT     H2 6014   7.270   3.421   4.787
 1478WAT      O 6015   7.234   3.242   4.728
 1478WAT     H1 6016   7.161   3.180   4.721
 1478WAT     H2 6017   7.240   3.281   4.641
 1479WAT      O 6018   7.594   3.463   4.407
 1479WAT     H1 6019   7.646   3.402   4.354
 1479WAT     H2 6020   7.659   3.513   4.456
 1480WAT      O 6021   7.868   3.552   4.489
 1480WAT     H1 6022   7.897   3.527   4.402
 1480WAT     H2 6023   7.920   3.497   4.548
 1481WAT      O 6024   7.990   1.926   4.547
 1481WAT     H1 6025   7.912   1.974   4.575
 1481WAT     H2 6026   7.961   1.836   4.536
 1482WAT      O 6027   7.062   3.573   4.049
 1482WAT     H1 6028   7.046   3.510   4.119
 1482WAT     H2 6029   6.976   3.594   4.014
 1483WAT      O 6030   7.125   1.957   3.799
 1483WAT     H1 6031   7.200   1.968   3.742
 1483WAT     H2 6032   7.078   2.040   3.795
 1484WAT      O 6033   7.779   2.168   4.098
 1484WAT     H1 6034   7.697   2.131   4.064
 1484WAT     H2 6035   7.829   2.092   4.129
 1485WAT      O 6036   7.223   3.443   3.794
 1485WAT     H1 6037   7.170   3.481   3.723
 1485WAT     H2 6038   7.215   3.505   3.866
 1486WAT      O 6039   7.362   2.009   3.653
 1486WAT     H1 6040   7.415   1.931   3.641
 1486WAT     H2 6041   7.425   2.077   3.677
 1487WAT      O 6042   7.581   1.983   3.959
 1487WAT     H1 6043   7.518   1.913   3.976
 1487WAT     H2 6044   7.527   2.059   3.937
 1488WAT      O 6045   7.875   3.644   5.226
 1488WAT     H1 6046   7.968   3.621   5.230
 1488WAT     H2 6047   7.874   3.727   5.178
 1489WAT      O 6048   7.594   1.911   5.202
 1489WAT     H1 6049   7.566   1.961   5.126
 1489WAT     H2 6050   7.632   1.831   5.166
 1490WAT      O 6051   7.483   3.638   3.681
 1490WAT     H1 6052   7.556   3.609   3.626
 1490WAT     H2 6053   7.509   3.614   3.770
 1491WAT      O 6054   7.399   3.249   3.682
 1491WAT     H1 6055   7.336   3.296   3.736
 1491WAT     H2 6056   7.410   3.165   3.725
 1492WAT      O 6057   7.958   2.832   2.485
 1492WAT     H1 6058   7.880   2.784   2.514
 1492WAT     H2 6059   8.023   2.764   2.467
 1493WAT      O 6060   7.359   2.863   2.572
 1493WAT     H1 6061   7.276   2.838   2.612
 1493WAT     H2 6062   7.420   2.870   2.646
 1494WAT      O 6063   7.357   3.267   2.592
 1494WAT     H1 6064   7.388   3.178   2.574
 1494WAT     H2 6065   7.432   3.322   2.569
 1495WAT      O 6066   7.200   2.359   1.951
 1495WAT     H1 6067   7.111   2.393   1.941
 1495WAT     H2 6068   7.229   2.339   1.862
 1496WAT      O 6069   6.997   2.619   2.539
 1496WAT     H1 6070   7.054   2.543   2.539
 1496WAT     H2 6071   6.997   2.649   2.448
 1497WAT      O 6072   7.982   3.501   2.325
 1497WAT     H1 6073   7.921   3.547   2.268
 1497WAT     H2 6074   8.068   3.517   2.285
 1498WAT      O 6075   7.902   3.100   2.485
 1498WAT     H1 6076   7.895   3.006   2.469
 1498WAT     H2 6077   7.978   3.109   2.543
 1499WAT      O 6078   7.121   2.160   2.718
 1499WAT     H1 6079   7.103   2.070   2.746
 1499WAT     H2 6080   7.081   2.215   2.785
 1500WAT      O 6081   8.005   2.380   2.508
 1500WAT     H1 6082   8.042   2.293   2.497
 1500WAT     H2 6083   7.995   2.414   2.419
 1501WAT      O 6084   7.418   2.218   2.054
 1501WAT     H1 6085   7.429   2.308   2.085
 1501WAT     H2 6086   7.327   2.213   2.025
 1502WAT      O 6087   7.183   2.410   2.579
 1502WAT     H1 6088   7.251   2.436   2.641
 1502WAT     H2 6089   7.151   2.326   2.612
 1503WAT      O 6090   7.602   2.514   2.488
 1503WAT     H1 6091   7.653   2.564   2.552
 1503WAT     H2 6092   7.655   2.437   2.470
 1504WAT      O 6093   7.430   1.978   2.914
 1504WAT     H1 6094   7.431   2.030   2.834
 1504WAT     H2 6095   7.347   1.931   2.912
 1505WAT      O 6096   7.555   2.942   2.732
 1505WAT     H1 6097   7.522   3.005   2.796
 1505WAT     H2 6098   7.573   2.995   2.654
 1506WAT      O 6099   7.398   2.150   2.715
 1506WAT     H1 6100   7.433   2.234   2.685
 1506WAT     H2 6101   7.305   2.164   2.727
 1507WAT      O 6102   7.477   3.139   2.913
 1507WAT     H1 6103   7.538   3.207   2.885
 1507WAT     H2 6104   7.390   3.180   2.904
 1508WAT      O 6105   7.006   3.058   1.801
 1508WAT     H1 6106   6.968   3.107   1.728
 1508WAT     H2 6107   7.032   3.125   1.865
 1509WAT      O 6108   7.767   1.898   2.347
 1509WAT     H1 6109   7.798   1.843   2.276
 1509WAT     H2 6110   7.674   1.912   2.329
 1510WAT      O 6111   8.006   2.705   2.021
 1510WAT     H1 6112   7.913   2.698   2.044
 1510WAT     H2 6113   8.021   2.799   2.009
 1511WAT      O 6114   8.004   2.332   1.721
 1511WAT     H1 6115   7.910   2.348   1.729
 1511WAT     H2 6116   8.036   2.404   1.666
 1512WAT      O 6117   7.566   2.758   2.299
 1512WAT     H1 6118   7.526   2.686   2.250
 1512WAT     H2 6119   7.575   2.723   2.388
 1513WAT      O 6120   7.613   3.126   2.515
 1513WAT     H1 6121   7.583   3.066   2.448
 1513WAT     H2 6122   7.708   3.130   2.504
 1514WAT      O 6123   7.437   2.435   2.677
 1514WAT     H1 6124   7.493   2.446   2.600
 1514WAT     H2 6125   7.489   2.472   2.749
 1515WAT      O 6126   7.522   3.100   3.181
 1515WAT     H1 6127   7.432   3.122   3.205
 1515WAT     H2 6128   7.525   3.112   3.086
 1516WAT      O 6129   7.405   2.787   3.038
 1516WAT     H1 6130   7.391   2.874   3.075
 1516WAT     H2 6131   7.317   2.753   3.024
 1517WAT      O 6132   7.585   3.381   3.259
 1517WAT     H1 6133   7.582   3.422   3.172
 1517WAT     H2 6134   7.568   3.288   3.243
 1518WAT      O 6135   7.236   2.647   2.049
 1518WAT     H1 6136   7.224   2.720   1.988
 1518WAT     H2 6137   7.205   2.570   2.001
 1519WAT      O 6138   7.000   2.964   2.630
 1519WAT     H1 6139   7.008   2.978   2.535
 1519WAT     H2 6140   7.061   2.893   2.649
 1520WAT      O 6141   7.125   3.134   2.271
 1520WAT     H1 6142   7.084   3.148   2.185
 1520WAT     H2 6143   7.214   3.106   2.251
 1521WAT      O 6144   7.552   3.556   2.082
 1521WAT     H1 6145   7.534   3.464   2.061
 1521WAT     H2 6146   7.466   3.591   2.106
 1522WAT      O 6147   7.006   3.068   2.884
 1522WAT     H1 6148   7.022   3.021   2.802
 1522WAT     H2 6149   7.052   3.017   2.950
 1523WAT      O 6150   7.483   1.981   2.387
 1523WAT     H1 6151   7.438   2.059   2.354
 1523WAT     H2 6152   7.539   2.014   2.458
 1524WAT      O 6153   7.912   2.268   2.948
 1524WAT     H1 6154   7.865   2.289   3.029
 1524WAT     H2 6155   7.871   2.187   2.917
 1525WAT      O 6156   7.794   1.943   1.875
 1525WAT     H1 6157   7.732   1.943   1.948
 1525WAT     H2 6158   7.786   1.857   1.836
 1526WAT      O 6159   7.687   2.036   2.573
 1526WAT     H1 6160   7.716   2.126   2.565
 1526WAT     H2 6161   7.741   1.987   2.512
 1527WAT      O 6162   7.462   2.494   2.160
 1527WAT     H1 6163   7.439   2.472   2.251
 1527WAT     H2 6164   7.384   2.537   2.126
 1528WAT      O 6165   7.706   2.584   3.227
 1528WAT     H1 6166   7.696   2.489   3.212
 1528WAT     H2 6167   7.790   2.606   3.187
 1529WAT      O 6168   7.219   2.225   3.042
 1529WAT     H1 6169   7.180   2.309   3.063
 1529WAT     H2 6170   7.150   2.161   3.061
 1530WAT      O 6171   7.877   2.233   3.349
 1530WAT     H1 6172   7.807   2.214   3.413
 1530WAT     H2 6173   7.951   2.261   3.402
 1531WAT      O 6174   6.949   2.017   2.445
 1531WAT     H1 6175   6.920   2.074   2.517
 1531WAT     H2 6176   7.024   1.969   2.482
 1532WAT      O 6177   6.968   2.411   1.566
 1532WAT     H1 6178   6.960   2.505   1.581
 1532WAT     H2 6179   6.933   2.397   1.479
 1533WAT      O 6180   7.748   2.285   2.473
 1533WAT     H1 6181   7.748   2.240   2.388
 1533WAT     H2 6182   7.837   2.317   2.484
 1534WAT      O 6183   7.333   2.273   2.369
 1534WAT     H1 6184   7.299   2.321   2.445
 1534WAT     H2 6185   7.257   2.227   2.333
 1535WAT      O 6186   7.754   2.385   1.772
 1535WAT     H1 6187   7.766   2.381   1.867
 1535WAT     H2 6188   7.716   2.471   1.757
 1536WAT      O 6189   7.655   2.616   1.712
 1536WAT     H1 6190   7.598   2.571   1.649
 1536WAT     H2 6191   7.726   2.652   1.659
 1537WAT      O 6192   7.163   3.006   3.100
 1537WAT     H1 6193   7.125   2.942   3.160
 1537WAT     H2 6194   7.194   3.076   3.157
 1538WAT      O 6195   7.778   2.691   2.648
 1538WAT     H1 6196   7.815   2.643   2.722
 1538WAT     H2 6197   7.759   2.778   2.682
 1539WAT      O 6198   7.064   2.165   2.261
 1539WAT     H1 6199   7.036   2.129   2.345
 1539WAT     H2 6200   7.058   2.092   2.199
 1540WAT      O 6201   7.557   2.595   2.880
 1540WAT     H1 6202   7.527   2.683   2.902
 1540WAT     H2 6203   7.652   2.601   2.883
 1541WAT      O 6204   7.410   3.015   1.939
 1541WAT     H1 6205   7.332   2.961   1.923
 1541WAT     H2 6206   7.483   2.963   1.906
 1542WAT      O 6207   8.032   2.054   1.933
 1542WAT     H1 6208   7.950   2.004   1.925
 1542WAT     H2 6209   8.012   2.138   1.891
 1543WAT      O 6210   8.024   2.922   3.107
 1543WAT     H1 6211   8.017   2.830   3.082
 1543WAT     H2 6212   7.961   2.932   3.179
 1544WAT      O 6213   7.414   2.982   2.303
 1544WAT     H1 6214   7.466   2.902   2.298
 1544WAT     H2 6215   7.369   2.976   2.387
 1545WAT      O 6216   7.903   3.109   1.830
 1545WAT     H1 6217   7.937   3.183   1.781
 1545WAT     H2 6218   7.820   3.140   1.867
 1546WAT      O 6219   7.163   2.679   2.994
 1546WAT     H1 6220   7.127   2.745   3.053
 1546WAT     H2 6221   7.133   2.595   3.032
 1547WAT      O 6222   7.483   2.724   3.283
 1547WAT     H1 6223   7.453   2.739   3.193
 1547WAT     H2 6224   7.560   2.669   3.274
 1548WAT      O 6225   8.017   3.204   3.082
 1548WAT     H1 6226   8.018   3.111   3.061
 1548WAT     H2 6227   7.946   3.213   3.146
 1549WAT      O 6228   7.800   3.117   2.108
 1549WAT     H1 6229   7.868   3.172   2.146
 1549WAT     H2 6230   7.721   3.171   2.111
 1550WAT      O 6231   7.014   2.679   1.657
 1550WAT     H1 6232   7.101   2.707   1.685
 1550WAT     H2 6233   6.965   2.760   1.645
 1551WAT      O 6234   7.730   2.817   2.069
 1551WAT     H1 6235   7.776   2.898   2.091
 1551WAT     H2 6236   7.695   2.786   2.152
 1552WAT      O 6237   7.960   3.368   2.792
 1552WAT     H1 6238   8.025   3.389   2.859
 1552WAT     H2 6239   7.997   3.292   2.746
 1553WAT      O 6240   7.320   1.852   2.116
 1553WAT     H1 6241   7.307   1.851   2.211
 1553WAT     H2 6242   7.238   1.886   2.081
 1554WAT      O 6243   7.050   3.600   1.713
 1554WAT     H1 6244   7.086   3.660   1.648
 1554WAT     H2 6245   7.036   3.654   1.791
 1555WAT      O 6246   7.020   2.028   3.062
 1555WAT     H1 6247   6.949   2.048   3.123
 1555WAT     H2 6248   7.062   1.950   3.099
 1556WAT      O 6249   7.049   3.426   3.161
 1556WAT     H1 6250   7.060   3.332   3.147
 1556WAT     H2 6251   6.984   3.453   3.096
 1557WAT      O 6252   7.848   3.254   3.301
 1557WAT     H1 6253   7.816   3.182   3.355
 1557WAT     H2 6254   7.781   3.321   3.308
 1558WAT      O 6255   7.652   3.338   1.795
 1558WAT     H1 6256   7.651   3.411   1.734
 1558WAT     H2 6257   7.560   3.313   1.804
 1559WAT      O 6258   7.212   2.860   1.870
 1559WAT     H1 6259   7.151   2.934   1.871
 1559WAT     H2 6260   7.260   2.869   1.787
 1560WAT      O 6261   7.951   3.344   1.661
 1560WAT     H1 6262   7.961   3.324   1.568
 1560WAT     H2 6263   7.861   3.319   1.682
 1561WAT      O 6264   7.703   2.400   2.060
 1561WAT     H1 6265   7.632   2.447   2.104
 1561WAT     H2 6266   7.731   2.334   2.123
 1562WAT      O 6267   7.866   2.542   2.860
 1562WAT     H1 6268   7.915   2.590   2.926
 1562WAT     H2 6269   7.880   2.450   2.880
 1563WAT      O 6270   7.815   3.596   2.131
 1563WAT     H1 6271   7.840   3.593   2.039
 1563WAT     H2 6272   7.720   3.584   2.130
 1564WAT      O 6273   7.523   2.231   1.797
 1564WAT     H1 6274   7.608   2.275   1.790
 1564WAT     H2 6275   7.487   2.262   1.880
 1565WAT      O 6276   7.413   2.856   1.644
 1565WAT     H1 6277   7.490   2.845   1.701
 1565WAT     H2 6278   7.421   2.787   1.579
 1566WAT      O 6279   7.283   2.600   1.713
 1566WAT     H1 6280   7.291   2.505   1.724
 1566WAT     H2 6281   7.372   2.633   1.723
 1567WAT      O 6282   7.363   3.615   2.423
 1567WAT     H1 6283   7.436   3.560   2.450
 1567WAT     H2 6284   7.401   3.701   2.409
 1568WAT      O 6285   7.051   3.221   2.011
 1568WAT     H1 6286   6.959   3.246   2.010
 1568WAT     H2 6287   7.098   3.304   1.998
 1569WAT      O 6288   7.263   3.533   3.342
 1569WAT     H1 6289   7.344   3.565   3.383
 1569WAT     H2 6290   7.212   3.497   3.414
 1570WAT      O 6291   7.674   3.532   1.605
 1570WAT     H1 6292   7.753   3.561   1.560
 1570WAT     H2 6293   7.622   3.489   1.538
 1571WAT      O 6294   7.035   2.782   3.236
 1571WAT     H1 6295   7.086   2.724   3.294
 1571WAT     H2 6296   6.961   2.810   3.290
 1572WAT      O 6297   7.726   3.054   1.592
 1572WAT     H1 6298   7.715   2.992   1.664
 1572WAT     H2 6299   7.709   3.002   1.513
 1573WAT      O 6300   7.741   2.923   3.190
 1573WAT     H1 6301   7.664   2.979   3.181
 1573WAT     H2 6302   7.759   2.893   3.100
 1574WAT      O 6303   7.239   2.596   3.326
 1574WAT     H1 6304   7.243   2.566   3.417
 1574WAT     H2 6305   7.324   2.636   3.310
 1575WAT      O 6306   7.616   2.856   1.842
 1575WAT     H1 6307   7.659   2.839   1.926
 1575WAT     H2 6308   7.629   2.775   1.792
 1576WAT      O 6309   7.433   2.454   3.123
 1576WAT     H1 6310   7.380   2.405   3.060
 1576WAT     H2 6311   7.500   2.497   3.069
 1577WAT      O 6312   7.868   2.758   1.567
 1577WAT     H1 6313   7.920   2.687   1.530
 1577WAT     H2 6314   7.932   2.822   1.597
 1578WAT      O 6315   7.481   2.151   3.131
 1578WAT     H1 6316   7.472   2.089   3.058
 1578WAT     H2 6317   7.423   2.223   3.108
 1579WAT      O 6318   7.758   2.006   2.834
 1579WAT     H1 6319   7.713   2.009   2.749
 1579WAT     H2 6320   7.695   1.967   2.894
 1580WAT      O 6321   7.799   2.896   2.896
 1580WAT     H1 6322   7.840   2.980   2.879
 1580WAT     H2 6323   7.707   2.910   2.873
 1581WAT      O 6324   7.506   2.463   1.536
 1581WAT     H1 6325   7.486   2.377   1.573
 1581WAT     H2 6326   7.489   2.455   1.443
 1582WAT      O 6327   7.584   3.526   3.008
 1582WAT     H1 6328   7.530   3.599   2.976
 1582WAT     H2 6329   7.609   3.479   2.929
 1583WAT      O 6330   7.709   2.323   3.160
 1583WAT     H1 6331   7.768   2.292   3.229
 1583WAT     H2 6332   7.627   2.276   3.176
 1584WAT      O 6333   7.386   2.173   1.535
 1584WAT     H1 6334   7.416   2.174   1.444
 1584WAT     H2 6335   7.460   2.138   1.585
 1585WAT      O 6336   7.869   3.650   3.033
 1585WAT     H1 6337   7.862   3.740   3.064
 1585WAT     H2 6338   7.779   3.618   3.031
 1586WAT      O 6339   7.708   2.068   1.634
 1586WAT     H1 6340   7.673   2.000   1.576
 1586WAT     H2 6341   7.728   2.022   1.715
 1587WAT      O 6342   7.924   3.567   1.796
 1587WAT     H1 6343   8.014   3.600   1.798
 1587WAT     H2 6344   7.927   3.494   1.733
 1588WAT      O 6345   7.288   3.104   1.619
 1588WAT     H1 6346   7.332   3.158   1.684
 1588WAT     H2 6347   7.337   3.021   1.619
 1589WAT      O 6348   7.010   3.383   2.364
 1589WAT     H1 6349   7.043   3.296   2.341
 1589WAT     H2 6350   7.052   3.403   2.447
 1590WAT      O 6351   7.469   3.216   2.130
 1590WAT     H1 6352   7.439   3.203   2.220
 1590WAT     H2 6353   7.459   3.130   2.089
 1591WAT      O 6354   7.058   3.469   2.638
 1591WAT     H1 6355   7.015   3.487   2.721
 1591WAT     H2 6356   7.115   3.545   2.623
 1592WAT      O 6357   7.042   2.721   2.273
 1592WAT     H1 6358   6.976   2.694   2.209
 1592WAT     H2 6359   7.126   2.710   2.228
 1593WAT      O 6360   7.145   2.759   2.727
 1593WAT     H1 6361   7.182   2.750   2.815
 1593WAT     H2 6362   7.089   2.683   2.718
 1594WAT      O 6363   7.101   2.450   3.118
 1594WAT     H1 6364   7.011   2.447   3.152
 1594WAT     H2 6365   7.155   2.470   3.195
 1595WAT      O 6366   6.963   2.442   1.868
 1595WAT     H1 6367   6.873   2.468   1.850
 1595WAT     H2 6368   7.012   2.469   1.790
 1596WAT      O 6369   7.217   2.347   1.659
 1596WAT     H1 6370   7.288   2.305   1.610
 1596WAT     H2 6371   7.146   2.354   1.595
 1597WAT      O 6372   7.182   1.953   1.563
 1597WAT     H1 6373   7.254   2.007   1.594
 1597WAT     H2 6374   7.209   1.925   1.475
 1598WAT      O 6375   7.151   1.878   2.553
 1598WAT     H1 6376   7.216   1.823   2.509
 1598WAT     H2 6377   7.193   1.903   2.635
 1599WAT      O 6378   7.126   1.893   2.827
 1599WAT     H1 6379   7.092   1.939   2.904
 1599WAT     H2 6380   7.093   1.804   2.835
 1600WAT      O 6381   7.287   3.210   3.244
 1600WAT     H1 6382   7.283   3.173   3.332
 1600WAT     H2 6383   7.300   3.304   3.258
 1601WAT      O 6384   7.657   3.366   2.804
 1601WAT     H1 6385   7.633   3.393   2.715
 1601WAT     H2 6386   7.751   3.383   2.809
 1602WAT      O 6387   7.878   2.012   3.179
 1602WAT     H1 6388   7.872   2.072   3.254
 1602WAT     H2 6389   7.972   2.002   3.165
 1603WAT      O 6390   7.194   1.846   3.155
 1603WAT     H1 6391   7.248   1.828   3.078
 1603WAT     H2 6392   7.200   1.767   3.208
 1604WAT      O 6393   7.271   3.505   2.956
 1604WAT     H1 6394   7.211   3.492   3.030
 1604WAT     H2 6395   7.270   3.421   2.909
 1605WAT      O 6396   7.234   3.242   2.851
 1605WAT     H1 6397   7.161   3.180   2.844
 1605WAT     H2 6398   7.240   3.281   2.764
 1606WAT      O 6399   7.594   3.463   2.529
 1606WAT     H1 6400   7.646   3.402   2.477
 1606WAT     H2 6401   7.659   3.513   2.578
 1607WAT      O 6402   7.868   3.552   2.612
 1607WAT     H1 6403   7.897   3.527   2.524
 1607WAT     H2 6404   7.920   3.497   2.671
 1608WAT      O 6405   7.990   1.926   2.670
 1608WAT     H1 6406   7.912   1.974   2.698
 1608WAT     H2 6407   7.961   1.836   2.659
 1609WAT      O 6408   7.062   3.573   2.172
 1609WAT     H1 6409   7.046   3.510   2.242
 1609WAT     H2 6410   6.976   3.594   2.137
 1610WAT      O 6411   7.125   1.957   1.922
 1610WAT     H1 6412   7.200   1.968   1.865
 1610WAT     H2 6413   7.078   2.040   1.917
 1611WAT      O 6414   7.779   2.168   2.221
 1611WAT     H1 6415   7.697   2.131   2.187
 1611WAT     H2 6416   7.829   2.092   2.251
 1612WAT      O 6417   7.223   3.443   1.916
 1612WAT     H1 6418   7.170   3.481   1.846
 1612WAT     H2 6419   7.215   3.505   1.988
 1613WAT      O 6420   7.362   2.009   1.776
 1613WAT     H1 6421   7.415   1.931   1.763
 1613WAT     H2 6422   7.425   2.077   1.799
 1614WAT      O 6423   7.581   1.983   2.081
 1614WAT     H1 6424   7.518   1.913   2.098
 1614WAT     H2 6425   7.527   2.059   2.060
 1615WAT      O 6426   7.875   3.644   3.349
 1615WAT     H1 6427   7.968   3.621   3.353
 1615WAT     H2 6428   7.874   3.727   3.300
 1616WAT      O 6429   7.594   1.911   3.325
 1616WAT     H1 6430   7.566   1.961   3.249
 1616WAT     H2 6431   7.632   1.831   3.288
 1617WAT      O 6432   7.483   3.638   1.804
 1617WAT     H1 6433   7.556   3.609   1.749
 1617WAT     H2 6434   7.509   3.614   1.893
 1618WAT      O 6435   7.399   3.249   1.804
 1618WAT     H1 6436   7.336   3.296   1.859
 1618WAT     H2 6437   7.410   3.165   1.848
 1619WAT      O 6438   7.958   2.832   0.607
 1619WAT     H1 6439   7.880   2.784   0.636
 1619WAT     H2 6440   8.023   2.764   0.590
 1620WAT      O 6441   7.359   2.863   0.695
 1620WAT     H1 6442   7.276   2.838   0.735
 1620WAT     H2 6443   7.420   2.870   0.769
 1621WAT      O 6444   7.357   3.267   0.715
 1621WAT     H1 6445   7.388   3.178   0.697
 1621WAT     H2 6446   7.432   3.322   0.692
 1622WAT      O 6447   6.997   2.619   0.662
 1622WAT     H1 6448   7.054   2.543   0.662
 1622WAT     H2 6449   6.997   2.649   0.571
 1623WAT      O 6450   7.982   3.501   0.447
 1623WAT     H1 6451   7.921   3.547   0.390
 1623WAT     H2 6452   8.068   3.517   0.407
 1624WAT      O 6453   7.902   3.100   0.608
 1624WAT     H1 6454   7.895   3.006   0.592
 1624WAT     H2 6455   7.978   3.109   0.665
 1625WAT      O 6456   7.121   2.160   0.841
 1625WAT     H1 6457   7.103   2.070   0.869
 1625WAT     H2 6458   7.081   2.215   0.908
 1626WAT      O 6459   8.005   2.380   0.631
 1626WAT     H1 6460   8.042   2.293   0.619
 1626WAT     H2 6461   7.995   2.414   0.542
 1627WAT      O 6462   7.418   2.218   0.177
 1627WAT     H1 6463   7.429   2.308   0.208
 1627WAT     H2 6464   7.327   2.213   0.148
 1628WAT      O 6465   7.183   2.410   0.701
 1628WAT     H1 6466   7.251   2.436   0.763
 1628WAT     H2 6467   7.151   2.326   0.735
 1629WAT      O 6468   7.602   2.514   0.610
 1629WAT     H1 6469   7.653   2.564   0.674
 1629WAT     H2 6470   7.655   2.437   0.592
 1630WAT      O 6471   7.430   1.978   1.037
 1630WAT     H1 6472   7.431   2.030   0.956
 1630WAT     H2 6473   7.347   1.931   1.034
 1631WAT      O 6474   7.555   2.942   0.854
 1631WAT     H1 6475   7.522   3.005   0.919
 1631WAT     H2 6476   7.573   2.995   0.776
 1632WAT      O 6477   7.398   2.150   0.837
 1632WAT     H1 6478   7.433   2.234   0.808
 1632WAT     H2 6479   7.305   2.164   0.849
 1633WAT      O 6480   7.477   3.139   1.036
 1633WAT     H1 6481   7.538   3.207   1.008
 1633WAT     H2 6482   7.390   3.180   1.027
 1634WAT      O 6483   7.767   1.898   0.470
 1634WAT     H1 6484   7.798   1.843   0.398
 1634WAT     H2 6485   7.674   1.912   0.452
 1635WAT      O 6486   7.566   2.758   0.422
 1635WAT     H1 6487   7.526   2.686   0.372
 1635WAT     H2 6488   7.575   2.723   0.511
 1636WAT      O 6489   7.613   3.126   0.638
 1636WAT     H1 6490   7.583   3.066   0.570
 1636WAT     H2 6491   7.708   3.130   0.627
 1637WAT      O 6492   7.437   2.435   0.800
 1637WAT     H1 6493   7.493   2.446   0.722
 1637WAT     H2 6494   7.489   2.472   0.871
 1638WAT      O 6495   7.522   3.100   1.303
 1638WAT     H1 6496   7.432   3.122   1.328
 1638WAT     H2 6497   7.525   3.112   1.208
 1639WAT      O 6498   7.405   2.787   1.161
 1639WAT     H1 6499   7.391   2.874   1.198
 1639WAT     H2 6500   7.317   2.753   1.146
 1640WAT      O 6501   7.585   3.381   1.382
 1640WAT     H1 6502   7.582   3.422   1.295
 1640WAT     H2 6503   7.568   3.288   1.365
 1641WAT      O 6504   7.000   2.964   0.752
 1641WAT     H1 6505   7.008   2.978   0.658
 1641WAT     H2 6506   7.061   2.893   0.772
 1642WAT      O 6507   7.125   3.134   0.393
 1642WAT     H1 6508   7.084   3.148   0.308
 1642WAT     H2 6509   7.214   3.106   0.373
 1643WAT      O 6510   7.552   3.556   0.205
 1643WAT     H1 6511   7.534   3.464   0.183
 1643WAT     H2 6512   7.466   3.591   0.229
 1644WAT      O 6513   7.006   3.068   1.006
 1644WAT     H1 6514   7.022   3.021   0.925
 1644WAT     H2 6515   7.052   3.017   1.073
 1645WAT      O 6516   7.483   1.981   0.510
 1645WAT     H1 6517   7.438   2.059   0.477
 1645WAT     H2 6518   7.539   2.014   0.581
 1646WAT      O 6519   7.912   2.268   1.070
 1646WAT     H1 6520   7.865   2.289   1.152
 1646WAT     H2 6521   7.871   2.187   1.040
 1647WAT      O 6522   7.687   2.036   0.696
 1647WAT     H1 6523   7.716   2.126   0.688
 1647WAT     H2 6524   7.741   1.987   0.634
 1648WAT      O 6525   7.462   2.494   0.283
 1648WAT     H1 6526   7.439   2.472   0.373
 1648WAT     H2 6527   7.384   2.537   0.248
 1649WAT      O 6528   7.706   2.584   1.349
 1649WAT     H1 6529   7.696   2.489   1.334
 1649WAT     H2 6530   7.790   2.606   1.310
 1650WAT      O 6531   7.219   2.225   1.165
 1650WAT     H1 6532   7.180   2.309   1.185
 1650WAT     H2 6533   7.150   2.161   1.184
 1651WAT      O 6534   7.877   2.233   1.472
 1651WAT     H1 6535   7.807   2.214   1.535
 1651WAT     H2 6536   7.951   2.261   1.525
 1652WAT      O 6537   6.949   2.017   0.568
 1652WAT     H1 6538   6.920   2.074   0.639
 1652WAT     H2 6539   7.024   1.969   0.604
 1653WAT      O 6540   7.748   2.285   0.596
 1653WAT     H1 6541   7.748   2.240   0.511
 1653WAT     H2 6542   7.837   2.317   0.606
 1654WAT      O 6543   7.333   2.273   0.492
 1654WAT     H1 6544   7.299   2.321   0.567
 1654WAT     H2 6545   7.257   2.227   0.456
 1655WAT      O 6546   7.163   3.006   1.222
 1655WAT     H1 6547   7.125   2.942   1.282
 1655WAT     H2 6548   7.194   3.076   1.279
 1656WAT      O 6549   7.778   2.691   0.770
 1656WAT     H1 6550   7.815   2.643   0.845
 1656WAT     H2 6551   7.759   2.778   0.804
 1657WAT      O 6552   7.064   2.165   0.383
 1657WAT     H1 6553   7.036   2.129   0.467
 1657WAT     H2 6554   7.058   2.092   0.322
 1658WAT      O 6555   7.557   2.595   1.002
 1658WAT     H1 6556   7.527   2.683   1.025
 1658WAT     H2 6557   7.652   2.601   1.006
 1659WAT      O 6558   8.024   2.922   1.230
 1659WAT     H1 6559   8.017   2.830   1.204
 1659WAT     H2 6560   7.961   2.932   1.301
 1660WAT      O 6561   7.414   2.982   0.426
 1660WAT     H1 6562   7.466   2.902   0.420
 1660WAT     H2 6563   7.369   2.976   0.510
 1661WAT      O 6564   7.163   2.679   1.117
 1661WAT     H1 6565   7.127   2.745   1.176
 1661WAT     H2 6566   7.133   2.595   1.154
 1662WAT      O 6567   7.483   2.724   1.405
 1662WAT     H1 6568   7.453   2.739   1.316
 1662WAT     H2 6569   7.560   2.669   1.396
 1663WAT      O 6570   8.017   3.204   1.205
 1663WAT     H1 6571   8.018   3.111   1.183
 1663WAT     H2 6572   7.946   3.213   1.269
 1664WAT      O 6573   7.800   3.117   0.230
 1664WAT     H1 6574   7.868   3.172   0.268
 1664WAT     H2 6575   7.721   3.171   0.234
 1665WAT      O 6576   7.730   2.817   0.191
 1665WAT     H1 6577   7.776   2.898   0.214
 1665WAT     H2 6578   7.695   2.786   0.275
 1666WAT      O 6579   7.960   3.368   0.914
 1666WAT     H1 6580   8.025   3.389   0.982
 1666WAT     H2 6581   7.997   3.292   0.869
 1667WAT      O 6582   7.320   1.852   0.239
 1667WAT     H1 6583   7.307   1.851   0.333
 1667WAT     H2 6584   7.238   1.886   0.204
 1668WAT      O 6585   7.020   2.028   1.185
 1668WAT     H1 6586   6.949   2.048   1.245
 1668WAT     H2 6587   7.062   1.950   1.222
 1669WAT      O 6588   7.049   3.426   1.283
 1669WAT     H1 6589   7.060   3.332   1.269
 1669WAT     H2 6590   6.984   3.453   1.218
 1670WAT      O 6591   7.848   3.254   1.423
 1670WAT     H1 6592   7.816   3.182   1.478
 1670WAT     H2 6593   7.781   3.321   1.431
 1671WAT      O 6594   7.703   2.400   0.182
 1671WAT     H1 6595   7.632   2.447   0.226
 1671WAT     H2 6596   7.731   2.334   0.246
 1672WAT      O 6597   7.866   2.542   0.982
 1672WAT     H1 6598   7.915   2.590   1.049
 1672WAT     H2 6599   7.880   2.450   1.003
 1673WAT      O 6600   7.815   3.596   0.253
 1673WAT     H1 6601   7.840   3.593   0.161
 1673WAT     H2 6602   7.720   3.584   0.253
 1674WAT      O 6603   7.363   3.615   0.546
 1674WAT     H1 6604   7.436   3.560   0.573
 1674WAT     H2 6605   7.401   3.701   0.532
 1675WAT      O 6606   7.263   3.533   1.465
 1675WAT     H1 6607   7.344   3.565   1.506
 1675WAT     H2 6608   7.212   3.497   1.537
 1676WAT      O 6609   7.035   2.782   1.359
 1676WAT     H1 6610   7.086   2.724   1.416
 1676WAT     H2 6611   6.961   2.810   1.413
 1677WAT      O 6612   7.741   2.923   1.312
 1677WAT     H1 6613   7.664   2.979   1.304
 1677WAT     H2 6614   7.759   2.893   1.223
 1678WAT      O 6615   7.239   2.596   1.448
 1678WAT     H1 6616   7.243   2.566   1.539
 1678WAT     H2 6617   7.324   2.636   1.432
 1679WAT      O 6618   7.433   2.454   1.245
 1679WAT     H1 6619   7.380   2.405   1.182
 1679WAT     H2 6620   7.500   2.497   1.192
 1680WAT      O 6621   7.481   2.151   1.253
 1680WAT     H1 6622   7.472   2.089   1.181
 1680WAT     H2 6623   7.423   2.223   1.230
 1681WAT      O 6624   7.758   2.006   0.956
 1681WAT     H1 6625   7.713   2.009   0.872
 1681WAT     H2 6626   7.695   1.967   1.016
 1682WAT      O 6627   7.799   2.896   1.019
 1682WAT     H1 6628   7.840   2.980   1.001
 1682WAT     H2 6629   7.707   2.910   0.996
 1683WAT      O 6630   7.584   3.526   1.130
 1683WAT     H1 6631   7.530   3.599   1.098
 1683WAT     H2 6632   7.609   3.479   1.051
 1684WAT      O 6633   7.709   2.323   1.283
 1684WAT     H1 6634   7.768   2.292   1.351
 1684WAT     H2 6635   7.627   2.276   1.298
 1685WAT      O 6636   7.869   3.650   1.156
 1685WAT     H1 6637   7.862   3.740   1.187
 1685WAT     H2 6638   7.779   3.618   1.153
 1686WAT      O 6639   7.010   3.383   0.486
 1686WAT     H1 6640   7.043   3.296   0.463
 1686WAT     H2 6641   7.052   3.403   0.569
 1687WAT      O 6642   7.469   3.216   0.252
 1687WAT     H1 6643   7.439   3.203   0.342
 1687WAT     H2 6644   7.459   3.130   0.211
 1688WAT      O 6645   7.058   3.469   0.760
 1688WAT     H1 6646   7.015   3.487   0.843
 1688WAT     H2 6647   7.115   3.545   0.746
 1689WAT      O 6648   7.042   2.721   0.396
 1689WAT     H1 6649   6.976   2.694   0.332
 1689WAT     H2 6650   7.126   2.710   0.351
 1690WAT      O 6651   7.145   2.759   0.850
 1690WAT     H1 6652   7.182   2.750   0.938
 1690WAT     H2 6653   7.089   2.683   0.840
 1691WAT      O 6654   7.101   2.450   1.241
 1691WAT     H1 6655   7.011   2.447   1.275
 1691WAT     H2 6656   7.155   2.470   1.317
 1692WAT      O 6657   7.151   1.878   0.675
 1692WAT     H1 6658   7.216   1.823   0.631
 1692WAT     H2 6659   7.193   1.903   0.758
 1693WAT      O 6660   7.126   1.893   0.950
 1693WAT     H1 6661   7.092   1.939   1.026
 1693WAT     H2 6662   7.093   1.804   0.958
 1694WAT      O 6663   7.287   3.210   1.366
 1694WAT     H1 6664   7.283   3.173   1.454
 1694WAT     H2 6665   7.300   3.304   1.380
 1695WAT      O 6666   7.657   3.366   0.926
 1695WAT     H1 6667   7.633   3.393   0.838
 1695WAT     H2 6668   7.751   3.383   0.932
 1696WAT      O 6669   7.878   2.012   1.302
 1696WAT     H1 6670   7.872   2.072   1.377
 1696WAT     H2 6671   7.972   2.002   1.287
 1697WAT      O 6672   7.194   1.846   1.277
 1697WAT     H1 6673   7.248   1.828   1.201
 1697WAT     H2 6674   7.200   1.767   1.331
 1698WAT      O 6675   7.271   3.505   1.078
 1698WAT     H1 6676   7.211   3.492   1.152
 1698WAT     H2 6677   7.270   3.421   1.032
 1699WAT      O 6678   7.234   3.242   0.973
 1699WAT     H1 6679   7.161   3.180   0.967
 1699WAT     H2 6680   7.240   3.281   0.886
 1700WAT      O 6681   7.594   3.463   0.652
 1700WAT     H1 6682   7.646   3.402   0.599
 1700WAT     H2 6683   7.659   3.513   0.701
 1701WAT      O 6684   7.868   3.552   0.734
 1701WAT     H1 6685   7.897   3.527   0.647
 1701WAT     H2 6686   7.920   3.497   0.794
 1702WAT      O 6687   7.990   1.926   0.792
 1702WAT     H1 6688   7.912   1.974   0.820
 1702WAT     H2 6689   7.961   1.836   0.782
 1703WAT      O 6690   7.062   3.573   0.294
 1703WAT     H1 6691   7.046   3.510   0.364
 1703WAT     H2 6692   6.976   3.594   0.259
 1704WAT      O 6693   7.779   2.168   0.344
 1704WAT     H1 6694   7.697   2.131   0.310
 1704WAT     H2 6695   7.829   2.092   0.374
 1705WAT      O 6696   7.581   1.983   0.204
 1705WAT     H1 6697   7.518   1.913   0.221
 1705WAT     H2 6698   7.527   2.059   0.182
 1706WAT      O 6699   7.875   3.644   1.471
 1706WAT     H1 6700   7.968   3.621   1.476
 1706WAT     H2 6701   7.874   3.727   1.423
 1707WAT      O 6702   7.594   1.911   1.448
 1707WAT     H1 6703   7.566   1.961   1.371
 1707WAT     H2 6704   7.632   1.831   1.411
 1708WAT      O 6705   7.958   0.955   6.240
 1708WAT     H1 6706   7.880   0.907   6.269
 1708WAT     H2 6707   8.023   0.887   6.222
 1709WAT      O 6708   7.359   0.986   6.327
 1709WAT     H1 6709   7.276   0.960   6.367
 1709WAT     H2 6710   7.420   0.993   6.401
 1710WAT      O 6711   7.357   1.389   6.347
 1710WAT     H1 6712   7.388   1.300   6.329
 1710WAT     H2 6713   7.432   1.445   6.324
 1711WAT      O 6714   7.200   0.482   5.706
 1711WAT     H1 6715   7.111   0.516   5.696
 1711WAT     H2 6716   7.229   0.462   5.617
 1712WAT      O 6717   6.997   0.742   6.294
 1712WAT     H1 6718   7.054   0.665   6.294
 1712WAT     H2 6719   6.997   0.772   6.203
 1713WAT      O 6720   7.982   1.624   6.080
 1713WAT     H1 6721   7.921   1.669   6.023
 1713WAT     H2 6722   8.068   1.639   6.039
 1714WAT      O 6723   7.902   1.222   6.240
 1714WAT     H1 6724   7.895   1.128   6.224
 1714WAT     H2 6725   7.978   1.231   6.297
 1715WAT      O 6726   7.121   0.283   6.473
 1715WAT     H1 6727   7.103   0.193   6.501
 1715WAT     H2 6728   7.081   0.337   6.540
 1716WAT      O 6729   8.005   0.503   6.263
 1716WAT     H1 6730   8.042   0.416   6.252
 1716WAT     H2 6731   7.995   0.537   6.174
 1717WAT      O 6732   7.418   0.340   5.809
 1717WAT     H1 6733   7.429   0.430   5.840
 1717WAT     H2 6734   7.327   0.335   5.780
 1718WAT      O 6735   7.183   0.532   6.334
 1718WAT     H1 6736   7.251   0.559   6.396
 1718WAT     H2 6737   7.151   0.448   6.367
 1719WAT      O 6738   7.602   0.637   6.242
 1719WAT     H1 6739   7.653   0.687   6.306
 1719WAT     H2 6740   7.655   0.559   6.225
 1720WAT      O 6741   7.555   1.065   6.487
 1720WAT     H1 6742   7.522   1.128   6.551
 1720WAT     H2 6743   7.573   1.118   6.409
 1721WAT      O 6744   7.398   0.272   6.470
 1721WAT     H1 6745   7.433   0.357   6.440
 1721WAT     H2 6746   7.305   0.287   6.481
 1722WAT      O 6747   7.006   1.181   5.556
 1722WAT     H1 6748   6.968   1.230   5.483
 1722WAT     H2 6749   7.032   1.248   5.619
 1723WAT      O 6750   8.006   0.827   5.776
 1723WAT     H1 6751   7.913   0.821   5.799
 1723WAT     H2 6752   8.021   0.921   5.764
 1724WAT      O 6753   8.004   0.455   5.475
 1724WAT     H1 6754   7.910   0.471   5.484
 1724WAT     H2 6755   8.036   0.526   5.421
 1725WAT      O 6756   7.566   0.880   6.054
 1725WAT     H1 6757   7.526   0.809   6.004
 1725WAT     H2 6758   7.575   0.846   6.143
 1726WAT      O 6759   7.613   1.249   6.270
 1726WAT     H1 6760   7.583   1.188   6.202
 1726WAT     H2 6761   7.708   1.253   6.259
 1727WAT      O 6762   7.437   0.558   6.432
 1727WAT     H1 6763   7.493   0.568   6.354
 1727WAT     H2 6764   7.489   0.595   6.504
 1728WAT      O 6765   7.236   0.770   5.804
 1728WAT     H1 6766   7.224   0.842   5.743
 1728WAT     H2 6767   7.205   0.693   5.756
 1729WAT      O 6768   7.000   1.087   6.385
 1729WAT     H1 6769   7.008   1.100   6.290
 1729WAT     H2 6770   7.061   1.016   6.404
 1730WAT      O 6771   7.125   1.257   6.026
 1730WAT     H1 6772   7.084   1.271   5.940
 1730WAT     H2 6773   7.214   1.228   6.005
 1731WAT      O 6774   7.552   1.678   5.837
 1731WAT     H1 6775   7.534   1.586   5.816
 1731WAT     H2 6776   7.466   1.714   5.861
 1732WAT      O 6777   7.462   0.616   5.915
 1732WAT     H1 6778   7.439   0.595   6.006
 1732WAT     H2 6779   7.384   0.659   5.881
 1733WAT      O 6780   6.968   0.534   5.321
 1733WAT     H1 6781   6.960   0.628   5.336
 1733WAT     H2 6782   6.933   0.519   5.233
 1734WAT      O 6783   7.748   0.407   6.228
 1734WAT     H1 6784   7.748   0.363   6.143
 1734WAT     H2 6785   7.837   0.439   6.239
 1735WAT      O 6786   7.333   0.395   6.124
 1735WAT     H1 6787   7.299   0.443   6.200
 1735WAT     H2 6788   7.257   0.350   6.088
 1736WAT      O 6789   7.754   0.507   5.527
 1736WAT     H1 6790   7.766   0.503   5.622
 1736WAT     H2 6791   7.716   0.593   5.512
 1737WAT      O 6792   7.655   0.738   5.467
 1737WAT     H1 6793   7.598   0.693   5.404
 1737WAT     H2 6794   7.726   0.774   5.414
 1738WAT      O 6795   7.778   0.813   6.403
 1738WAT     H1 6796   7.815   0.766   6.477
 1738WAT     H2 6797   7.759   0.901   6.437
 1739WAT      O 6798   7.064   0.288   6.016
 1739WAT     H1 6799   7.036   0.251   6.099
 1739WAT     H2 6800   7.058   0.214   5.954
 1740WAT      O 6801   7.410   1.138   5.694
 1740WAT     H1 6802   7.332   1.084   5.678
 1740WAT     H2 6803   7.483   1.086   5.660
 1741WAT      O 6804   8.032   0.177   5.688
 1741WAT     H1 6805   7.950   0.127   5.680
 1741WAT     H2 6806   8.012   0.261   5.646
 1742WAT      O 6807   7.414   1.105   6.058
 1742WAT     H1 6808   7.466   1.024   6.053
 1742WAT     H2 6809   7.369   1.098   6.142
 1743WAT      O 6810   7.903   1.231   5.585
 1743WAT     H1 6811   7.937   1.306   5.536
 1743WAT     H2 6812   7.820   1.263   5.622
 1744WAT      O 6813   7.800   1.239   5.862
 1744WAT     H1 6814   7.868   1.294   5.901
 1744WAT     H2 6815   7.721   1.294   5.866
 1745WAT      O 6816   7.014   0.801   5.412
 1745WAT     H1 6817   7.101   0.829   5.440
 1745WAT     H2 6818   6.965   0.882   5.400
 1746WAT      O 6819   7.730   0.940   5.824
 1746WAT     H1 6820   7.776   1.021   5.846
 1746WAT     H2 6821   7.695   0.908   5.907
 1747WAT      O 6822   7.960   1.491   6.547
 1747WAT     H1 6823   8.025   1.512   6.614
 1747WAT     H2 6824   7.997   1.415   6.501
 1748WAT      O 6825   7.050   1.722   5.468
 1748WAT     H1 6826   7.086   1.782   5.403
 1748WAT     H2 6827   7.036   1.777   5.546
 1749WAT      O 6828   7.652   1.461   5.550
 1749WAT     H1 6829   7.651   1.534   5.488
 1749WAT     H2 6830   7.560   1.436   5.559
 1750WAT      O 6831   7.212   0.983   5.624
 1750WAT     H1 6832   7.151   1.057   5.625
 1750WAT     H2 6833   7.260   0.992   5.542
 1751WAT      O 6834   7.951   1.467   5.416
 1751WAT     H1 6835   7.961   1.447   5.323
 1751WAT     H2 6836   7.861   1.442   5.437
 1752WAT      O 6837   7.703   0.523   5.814
 1752WAT     H1 6838   7.632   0.570   5.859
 1752WAT     H2 6839   7.731   0.457   5.878
 1753WAT      O 6840   7.815   1.719   5.886
 1753WAT     H1 6841   7.840   1.715   5.793
 1753WAT     H2 6842   7.720   1.706   5.885
 1754WAT      O 6843   7.523   0.354   5.552
 1754WAT     H1 6844   7.608   0.397   5.545
 1754WAT     H2 6845   7.487   0.385   5.635
 1755WAT      O 6846   7.413   0.979   5.399
 1755WAT     H1 6847   7.490   0.968   5.456
 1755WAT     H2 6848   7.421   0.909   5.334
 1756WAT      O 6849   7.283   0.722   5.468
 1756WAT     H1 6850   7.291   0.627   5.479
 1756WAT     H2 6851   7.372   0.755   5.478
 1757WAT      O 6852   7.363   1.737   6.178
 1757WAT     H1 6853   7.436   1.682   6.205
 1757WAT     H2 6854   7.401   1.824   6.164
 1758WAT      O 6855   7.051   1.344   5.765
 1758WAT     H1 6856   6.959   1.368   5.764
 1758WAT     H2 6857   7.098   1.427   5.753
 1759WAT      O 6858   7.674   1.654   5.360
 1759WAT     H1 6859   7.753   1.683   5.315
 1759WAT     H2 6860   7.622   1.611   5.292
 1760WAT      O 6861   7.726   1.177   5.347
 1760WAT     H1 6862   7.715   1.115   5.419
 1760WAT     H2 6863   7.709   1.124   5.268
 1761WAT      O 6864   7.616   0.979   5.597
 1761WAT     H1 6865   7.659   0.962   5.681
 1761WAT     H2 6866   7.629   0.898   5.547
 1762WAT      O 6867   7.868   0.881   5.322
 1762WAT     H1 6868   7.920   0.809   5.285
 1762WAT     H2 6869   7.932   0.945   5.352
 1763WAT      O 6870   7.799   1.018   6.651
 1763WAT     H1 6871   7.840   1.103   6.634
 1763WAT     H2 6872   7.707   1.032   6.628
 1764WAT      O 6873   7.506   0.586   5.291
 1764WAT     H1 6874   7.486   0.500   5.327
 1764WAT     H2 6875   7.489   0.577   5.198
 1765WAT      O 6876   7.386   0.296   5.290
 1765WAT     H1 6877   7.416   0.297   5.199
 1765WAT     H2 6878   7.460   0.261   5.340
 1766WAT      O 6879   7.924   1.689   5.551
 1766WAT     H1 6880   8.014   1.723   5.553
 1766WAT     H2 6881   7.927   1.617   5.488
 1767WAT      O 6882   7.288   1.226   5.373
 1767WAT     H1 6883   7.332   1.281   5.439
 1767WAT     H2 6884   7.337   1.144   5.374
 1768WAT      O 6885   7.010   1.505   6.119
 1768WAT     H1 6886   7.043   1.418   6.095
 1768WAT     H2 6887   7.052   1.526   6.202
 1769WAT      O 6888   7.469   1.338   5.885
 1769WAT     H1 6889   7.439   1.326   5.975
 1769WAT     H2 6890   7.459   1.252   5.844
 1770WAT      O 6891   7.058   1.592   6.392
 1770WAT     H1 6892   7.015   1.610   6.476
 1770WAT     H2 6893   7.115   1.668   6.378
 1771WAT      O 6894   7.042   0.843   6.028
 1771WAT     H1 6895   6.976   0.816   5.964
 1771WAT     H2 6896   7.126   0.832   5.983
 1772WAT      O 6897   7.145   0.882   6.482
 1772WAT     H1 6898   7.182   0.873   6.570
 1772WAT     H2 6899   7.089   0.805   6.472
 1773WAT      O 6900   6.963   0.564   5.623
 1773WAT     H1 6901   6.873   0.590   5.605
 1773WAT     H2 6902   7.012   0.591   5.545
 1774WAT      O 6903   7.217   0.470   5.414
 1774WAT     H1 6904   7.288   0.428   5.365
 1774WAT     H2 6905   7.146   0.477   5.350
 1775WAT      O 6906   7.657   1.489   6.559
 1775WAT     H1 6907   7.633   1.515   6.470
 1775WAT     H2 6908   7.751   1.506   6.564
 1776WAT      O 6909   7.234   1.364   6.606
 1776WAT     H1 6910   7.161   1.302   6.599
 1776WAT     H2 6911   7.240   1.404   6.519
 1777WAT      O 6912   7.594   1.586   6.284
 1777WAT     H1 6913   7.646   1.525   6.232
 1777WAT     H2 6914   7.659   1.636   6.333
 1778WAT      O 6915   7.868   1.675   6.367
 1778WAT     H1 6916   7.897   1.649   6.279
 1778WAT     H2 6917   7.920   1.620   6.426
 1779WAT      O 6918   7.062   1.696   5.927
 1779WAT     H1 6919   7.046   1.633   5.996
 1779WAT     H2 6920   6.976   1.717   5.892
 1780WAT      O 6921   7.779   0.291   5.976
 1780WAT     H1 6922   7.697   0.253   5.942
 1780WAT     H2 6923   7.829   0.215   6.006
 1781WAT      O 6924   7.223   1.565   5.671
 1781WAT     H1 6925   7.170   1.603   5.601
 1781WAT     H2 6926   7.215   1.628   5.743
 1782WAT      O 6927   7.483   1.760   5.559
 1782WAT     H1 6928   7.556   1.732   5.504
 1782WAT     H2 6929   7.509   1.736   5.648
 1783WAT      O 6930   7.399   1.372   5.559
 1783WAT     H1 6931   7.336   1.419   5.614
 1783WAT     H2 6932   7.410   1.287   5.602
 1784WAT      O 6933   7.958   0.955   4.362
 1784WAT     H1 6934   7.880   0.907   4.391
 1784WAT     H2 6935   8.023   0.887   4.345
 1785WAT      O 6936   7.359   0.986   4.450
 1785WAT     H1 6937   7.276   0.960   4.490
 1785WAT     H2 6938   7.420   0.993   4.523
 1786WAT      O 6939   7.357   1.389   4.469
 1786WAT     H1 6940   7.388   1.300   4.452
 1786WAT     H2 6941   7.432   1.445   4.447
 1787WAT      O 6942   7.200   0.482   3.828
 1787WAT     H1 6943   7.111   0.516   3.818
 1787WAT     H2 6944   7.229   0.462   3.739
 1788WAT      O 6945   6.997   0.742   4.417
 1788WAT     H1 6946   7.054   0.665   4.417
 1788WAT     H2 6947   6.997   0.772   4.326
 1789WAT      O 6948   7.982   1.624   4.202
 1789WAT     H1 6949   7.921   1.669   4.145
 1789WAT     H2 6950   8.068   1.639   4.162
 1790WAT      O 6951   7.902   1.222   4.363
 1790WAT     H1 6952   7.895   1.128   4.347
 1790WAT     H2 6953   7.978   1.231   4.420
 1791WAT      O 6954   7.121   0.283   4.595
 1791WAT     H1 6955   7.103   0.193   4.623
 1791WAT     H2 6956   7.081   0.337   4.663
 1792WAT      O 6957   8.005   0.503   4.386
 1792WAT     H1 6958   8.042   0.416   4.374
 1792WAT     H2 6959   7.995   0.537   4.296
 1793WAT      O 6960   7.418   0.340   3.932
 1793WAT     H1 6961   7.429   0.430   3.962
 1793WAT     H2 6962   7.327   0.335   3.903
 1794WAT      O 6963   7.183   0.532   4.456
 1794WAT     H1 6964   7.251   0.559   4.518
 1794WAT     H2 6965   7.151   0.448   4.490
 1795WAT      O 6966   7.602   0.637   4.365
 1795WAT     H1 6967   7.653   0.687   4.429
 1795WAT     H2 6968   7.655   0.559   4.347
 1796WAT      O 6969   7.555   1.065   4.609
 1796WAT     H1 6970   7.522   1.128   4.674
 1796WAT     H2 6971   7.573   1.118   4.531
 1797WAT      O 6972   7.398   0.272   4.592
 1797WAT     H1 6973   7.433   0.357   4.563
 1797WAT     H2 6974   7.305   0.287   4.604
 1798WAT      O 6975   7.477   1.262   4.791
 1798WAT     H1 6976   7.538   1.329   4.763
 1798WAT     H2 6977   7.390   1.303   4.782
 1799WAT      O 6978   7.006   1.181   3.679
 1799WAT     H1 6979   6.968   1.230   3.606
 1799WAT     H2 6980   7.032   1.248   3.742
 1800WAT      O 6981   8.006   0.827   3.898
 1800WAT     H1 6982   7.913   0.821   3.921
 1800WAT     H2 6983   8.021   0.921   3.887
 1801WAT      O 6984   8.004   0.455   3.598
 1801WAT     H1 6985   7.910   0.471   3.607
 1801WAT     H2 6986   8.036   0.526   3.543
 1802WAT      O 6987   7.566   0.880   4.177
 1802WAT     H1 6988   7.526   0.809   4.127
 1802WAT     H2 6989   7.575   0.846   4.265
 1803WAT      O 6990   7.613   1.249   4.393
 1803WAT     H1 6991   7.583   1.188   4.325
 1803WAT     H2 6992   7.708   1.253   4.382
 1804WAT      O 6993   7.437   0.558   4.555
 1804WAT     H1 6994   7.493   0.568   4.477
 1804WAT     H2 6995   7.489   0.595   4.626
 1805WAT      O 6996   7.522   1.223   5.058
 1805WAT     H1 6997   7.432   1.245   5.083
 1805WAT     H2 6998   7.525   1.235   4.963
 1806WAT      O 6999   7.405   0.910   4.916
 1806WAT     H1 7000   7.391   0.997   4.952
 1806WAT     H2 7001   7.317   0.875   4.901
 1807WAT      O 7002   7.585   1.504   5.136
 1807WAT     H1 7003   7.582   1.544   5.050
 1807WAT     H2 7004   7.568   1.411   5.120
 1808WAT      O 7005   7.236   0.770   3.927
 1808WAT     H1 7006   7.224   0.842   3.865
 1808WAT     H2 7007   7.205   0.693   3.879
 1809WAT      O 7008   7.000   1.087   4.507
 1809WAT     H1 7009   7.008   1.100   4.413
 1809WAT     H2 7010   7.061   1.016   4.527
 1810WAT      O 7011   7.125   1.257   4.148
 1810WAT     H1 7012   7.084   1.271   4.063
 1810WAT     H2 7013   7.214   1.228   4.128
 1811WAT      O 7014   7.552   1.678   3.960
 1811WAT     H1 7015   7.534   1.586   3.938
 1811WAT     H2 7016   7.466   1.714   3.984
 1812WAT      O 7017   7.006   1.191   4.761
 1812WAT     H1 7018   7.022   1.144   4.679
 1812WAT     H2 7019   7.052   1.140   4.828
 1813WAT      O 7020   7.912   0.391   4.825
 1813WAT     H1 7021   7.865   0.411   4.906
 1813WAT     H2 7022   7.871   0.309   4.795
 1814WAT      O 7023   7.462   0.616   4.038
 1814WAT     H1 7024   7.439   0.595   4.128
 1814WAT     H2 7025   7.384   0.659   4.003
 1815WAT      O 7026   7.706   0.706   5.104
 1815WAT     H1 7027   7.696   0.612   5.089
 1815WAT     H2 7028   7.790   0.728   5.065
 1816WAT      O 7029   7.219   0.347   4.920
 1816WAT     H1 7030   7.180   0.432   4.940
 1816WAT     H2 7031   7.150   0.283   4.939
 1817WAT      O 7032   7.877   0.356   5.227
 1817WAT     H1 7033   7.807   0.336   5.290
 1817WAT     H2 7034   7.951   0.384   5.280
 1818WAT      O 7035   6.968   0.534   3.444
 1818WAT     H1 7036   6.960   0.628   3.458
 1818WAT     H2 7037   6.933   0.519   3.356
 1819WAT      O 7038   7.748   0.407   4.351
 1819WAT     H1 7039   7.748   0.363   4.266
 1819WAT     H2 7040   7.837   0.439   4.361
 1820WAT      O 7041   7.333   0.395   4.247
 1820WAT     H1 7042   7.299   0.443   4.322
 1820WAT     H2 7043   7.257   0.350   4.211
 1821WAT      O 7044   7.754   0.507   3.650
 1821WAT     H1 7045   7.766   0.503   3.745
 1821WAT     H2 7046   7.716   0.593   3.634
 1822WAT      O 7047   7.655   0.738   3.590
 1822WAT     H1 7048   7.598   0.693   3.527
 1822WAT     H2 7049   7.726   0.774   3.536
 1823WAT      O 7050   7.163   1.128   4.977
 1823WAT     H1 7051   7.125   1.064   5.037
 1823WAT     H2 7052   7.194   1.199   5.034
 1824WAT      O 7053   7.778   0.813   4.525
 1824WAT     H1 7054   7.815   0.766   4.600
 1824WAT     H2 7055   7.759   0.901   4.559
 1825WAT      O 7056   7.064   0.288   4.138
 1825WAT     H1 7057   7.036   0.251   4.222
 1825WAT     H2 7058   7.058   0.214   4.077
 1826WAT      O 7059   7.557   0.717   4.757
 1826WAT     H1 7060   7.527   0.805   4.780
 1826WAT     H2 7061   7.652   0.723   4.761
 1827WAT      O 7062   7.410   1.138   3.817
 1827WAT     H1 7063   7.332   1.084   3.801
 1827WAT     H2 7064   7.483   1.086   3.783
 1828WAT      O 7065   8.032   0.177   3.810
 1828WAT     H1 7066   7.950   0.127   3.803
 1828WAT     H2 7067   8.012   0.261   3.769
 1829WAT      O 7068   8.024   1.045   4.985
 1829WAT     H1 7069   8.017   0.952   4.959
 1829WAT     H2 7070   7.961   1.054   5.056
 1830WAT      O 7071   7.414   1.105   4.181
 1830WAT     H1 7072   7.466   1.024   4.175
 1830WAT     H2 7073   7.369   1.098   4.265
 1831WAT      O 7074   7.903   1.231   3.708
 1831WAT     H1 7075   7.937   1.306   3.658
 1831WAT     H2 7076   7.820   1.263   3.744
 1832WAT      O 7077   7.163   0.801   4.872
 1832WAT     H1 7078   7.127   0.868   4.931
 1832WAT     H2 7079   7.133   0.718   4.909
 1833WAT      O 7080   7.483   0.847   5.160
 1833WAT     H1 7081   7.453   0.862   5.071
 1833WAT     H2 7082   7.560   0.791   5.151
 1834WAT      O 7083   8.017   1.327   4.960
 1834WAT     H1 7084   8.018   1.234   4.938
 1834WAT     H2 7085   7.946   1.335   5.024
 1835WAT      O 7086   7.800   1.239   3.985
 1835WAT     H1 7087   7.868   1.294   4.023
 1835WAT     H2 7088   7.721   1.294   3.989
 1836WAT      O 7089   7.014   0.801   3.534
 1836WAT     H1 7090   7.101   0.829   3.563
 1836WAT     H2 7091   6.965   0.882   3.523
 1837WAT      O 7092   7.730   0.940   3.946
 1837WAT     H1 7093   7.776   1.021   3.969
 1837WAT     H2 7094   7.695   0.908   4.029
 1838WAT      O 7095   7.960   1.491   4.669
 1838WAT     H1 7096   8.025   1.512   4.737
 1838WAT     H2 7097   7.997   1.415   4.624
 1839WAT      O 7098   7.050   1.722   3.591
 1839WAT     H1 7099   7.086   1.782   3.525
 1839WAT     H2 7100   7.036   1.777   3.668
 1840WAT      O 7101   7.049   1.549   5.038
 1840WAT     H1 7102   7.060   1.455   5.024
 1840WAT     H2 7103   6.984   1.575   4.973
 1841WAT      O 7104   7.848   1.376   5.178
 1841WAT     H1 7105   7.816   1.304   5.233
 1841WAT     H2 7106   7.781   1.444   5.186
 1842WAT      O 7107   7.652   1.461   3.673
 1842WAT     H1 7108   7.651   1.534   3.611
 1842WAT     H2 7109   7.560   1.436   3.682
 1843WAT      O 7110   7.212   0.983   3.747
 1843WAT     H1 7111   7.151   1.057   3.748
 1843WAT     H2 7112   7.260   0.992   3.664
 1844WAT      O 7113   7.951   1.467   3.539
 1844WAT     H1 7114   7.961   1.447   3.446
 1844WAT     H2 7115   7.861   1.442   3.559
 1845WAT      O 7116   7.703   0.523   3.937
 1845WAT     H1 7117   7.632   0.570   3.981
 1845WAT     H2 7118   7.731   0.457   4.000
 1846WAT      O 7119   7.866   0.665   4.737
 1846WAT     H1 7120   7.915   0.712   4.803
 1846WAT     H2 7121   7.880   0.572   4.758
 1847WAT      O 7122   7.815   1.719   4.008
 1847WAT     H1 7123   7.840   1.715   3.916
 1847WAT     H2 7124   7.720   1.706   4.008
 1848WAT      O 7125   7.523   0.354   3.675
 1848WAT     H1 7126   7.608   0.397   3.668
 1848WAT     H2 7127   7.487   0.385   3.757
 1849WAT      O 7128   7.413   0.979   3.522
 1849WAT     H1 7129   7.490   0.968   3.578
 1849WAT     H2 7130   7.421   0.909   3.457
 1850WAT      O 7131   7.283   0.722   3.590
 1850WAT     H1 7132   7.291   0.627   3.601
 1850WAT     H2 7133   7.372   0.755   3.601
 1851WAT      O 7134   7.363   1.737   4.301
 1851WAT     H1 7135   7.436   1.682   4.328
 1851WAT     H2 7136   7.401   1.824   4.287
 1852WAT      O 7137   7.051   1.344   3.888
 1852WAT     H1 7138   6.959   1.368   3.887
 1852WAT     H2 7139   7.098   1.427   3.876
 1853WAT      O 7140   7.263   1.656   5.219
 1853WAT     H1 7141   7.344   1.688   5.261
 1853WAT     H2 7142   7.212   1.620   5.292
 1854WAT      O 7143   7.674   1.654   3.483
 1854WAT     H1 7144   7.753   1.683   3.438
 1854WAT     H2 7145   7.622   1.611   3.415
 1855WAT      O 7146   7.035   0.904   5.114
 1855WAT     H1 7147   7.086   0.846   5.171
 1855WAT     H2 7148   6.961   0.933   5.168
 1856WAT      O 7149   7.726   1.177   3.469
 1856WAT     H1 7150   7.715   1.115   3.542
 1856WAT     H2 7151   7.709   1.124   3.391
 1857WAT      O 7152   7.741   1.045   5.067
 1857WAT     H1 7153   7.664   1.102   5.059
 1857WAT     H2 7154   7.759   1.016   4.978
 1858WAT      O 7155   7.239   0.719   5.203
 1858WAT     H1 7156   7.243   0.689   5.294
 1858WAT     H2 7157   7.324   0.759   5.187
 1859WAT      O 7158   7.616   0.979   3.719
 1859WAT     H1 7159   7.659   0.962   3.804
 1859WAT     H2 7160   7.629   0.898   3.670
 1860WAT      O 7161   7.433   0.577   5.000
 1860WAT     H1 7162   7.380   0.527   4.937
 1860WAT     H2 7163   7.500   0.619   4.947
 1861WAT      O 7164   7.868   0.881   3.444
 1861WAT     H1 7165   7.920   0.809   3.407
 1861WAT     H2 7166   7.932   0.945   3.474
 1862WAT      O 7167   7.481   0.273   5.008
 1862WAT     H1 7168   7.472   0.211   4.936
 1862WAT     H2 7169   7.423   0.346   4.985
 1863WAT      O 7170   7.799   1.018   4.773
 1863WAT     H1 7171   7.840   1.103   4.756
 1863WAT     H2 7172   7.707   1.032   4.750
 1864WAT      O 7173   7.506   0.586   3.414
 1864WAT     H1 7174   7.486   0.500   3.450
 1864WAT     H2 7175   7.489   0.577   3.320
 1865WAT      O 7176   7.584   1.649   4.885
 1865WAT     H1 7177   7.530   1.721   4.853
 1865WAT     H2 7178   7.609   1.601   4.806
 1866WAT      O 7179   7.709   0.446   5.038
 1866WAT     H1 7180   7.768   0.415   5.106
 1866WAT     H2 7181   7.627   0.399   5.053
 1867WAT      O 7182   7.386   0.296   3.413
 1867WAT     H1 7183   7.416   0.297   3.322
 1867WAT     H2 7184   7.460   0.261   3.462
 1868WAT      O 7185   7.869   1.773   4.911
 1868WAT     H1 7186   7.862   1.863   4.942
 1868WAT     H2 7187   7.779   1.741   4.908
 1869WAT      O 7188   7.924   1.689   3.673
 1869WAT     H1 7189   8.014   1.723   3.675
 1869WAT     H2 7190   7.927   1.617   3.610
 1870WAT      O 7191   7.288   1.226   3.496
 1870WAT     H1 7192   7.332   1.281   3.562
 1870WAT     H2 7193   7.337   1.144   3.497
 1871WAT      O 7194   7.010   1.505   4.241
 1871WAT     H1 7195   7.043   1.418   4.218
 1871WAT     H2 7196   7.052   1.526   4.324
 1872WAT      O 7197   7.469   1.338   4.007
 1872WAT     H1 7198   7.439   1.326   4.097
 1872WAT     H2 7199   7.459   1.252   3.966
 1873WAT      O 7200   7.058   1.592   4.515
 1873WAT     H1 7201   7.015   1.610   4.598
 1873WAT     H2 7202   7.115   1.668   4.501
 1874WAT      O 7203   7.042   0.843   4.151
 1874WAT     H1 7204   6.976   0.816   4.086
 1874WAT     H2 7205   7.126   0.832   4.106
 1875WAT      O 7206   7.145   0.882   4.605
 1875WAT     H1 7207   7.182   0.873   4.693
 1875WAT     H2 7208   7.089   0.805   4.595
 1876WAT      O 7209   7.101   0.573   4.995
 1876WAT     H1 7210   7.011   0.569   5.029
 1876WAT     H2 7211   7.155   0.593   5.072
 1877WAT      O 7212   6.963   0.564   3.745
 1877WAT     H1 7213   6.873   0.590   3.728
 1877WAT     H2 7214   7.012   0.591   3.667
 1878WAT      O 7215   7.217   0.470   3.536
 1878WAT     H1 7216   7.288   0.428   3.488
 1878WAT     H2 7217   7.146   0.477   3.473
 1879WAT      O 7218   7.287   1.333   5.121
 1879WAT     H1 7219   7.283   1.296   5.209
 1879WAT     H2 7220   7.300   1.427   5.135
 1880WAT      O 7221   7.657   1.489   4.681
 1880WAT     H1 7222   7.633   1.515   4.593
 1880WAT     H2 7223   7.751   1.506   4.687
 1881WAT      O 7224   7.271   1.628   4.833
 1881WAT     H1 7225   7.211   1.615   4.907
 1881WAT     H2 7226   7.270   1.544   4.787
 1882WAT      O 7227   7.234   1.364   4.728
 1882WAT     H1 7228   7.161   1.302   4.721
 1882WAT     H2 7229   7.240   1.404   4.641
 1883WAT      O 7230   7.594   1.586   4.407
 1883WAT     H1 7231   7.646   1.525   4.354
 1883WAT     H2 7232   7.659   1.636   4.456
 1884WAT      O 7233   7.868   1.675   4.489
 1884WAT     H1 7234   7.897   1.649   4.402
 1884WAT     H2 7235   7.920   1.620   4.548
 1885WAT      O 7236   7.062   1.696   4.049
 1885WAT     H1 7237   7.046   1.633   4.119
 1885WAT     H2 7238   6.976   1.717   4.014
 1886WAT      O 7239   7.779   0.291   4.098
 1886WAT     H1 7240   7.697   0.253   4.064
 1886WAT     H2 7241   7.829   0.215   4.129
 1887WAT      O 7242   7.223   1.565   3.794
 1887WAT     H1 7243   7.170   1.603   3.723
 1887WAT     H2 7244   7.215   1.628   3.866
 1888WAT      O 7245   7.875   1.767   5.226
 1888WAT     H1 7246   7.968   1.743   5.230
 1888WAT     H2 7247   7.874   1.850   5.178
 1889WAT      O 7248   7.483   1.760   3.681
 1889WAT     H1 7249   7.556   1.732   3.626
 1889WAT     H2 7250   7.509   1.736   3.770
 1890WAT      O 7251   7.399   1.372   3.682
 1890WAT     H1 7252   7.336   1.419   3.736
 1890WAT     H2 7253   7.410   1.287   3.725
 1891WAT      O 7254   7.958   0.955   2.485
 1891WAT     H1 7255   7.880   0.907   2.514
 1891WAT     H2 7256   8.023   0.887   2.467
 1892WAT      O 7257   7.359   0.986   2.572
 1892WAT     H1 7258   7.276   0.960   2.612
 1892WAT     H2 7259   7.420   0.993   2.646
 1893WAT      O 7260   7.357   1.389   2.592
 1893WAT     H1 7261   7.388   1.300   2.574
 1893WAT     H2 7262   7.432   1.445   2.569
 1894WAT      O 7263   7.200   0.482   1.951
 1894WAT     H1 7264   7.111   0.516   1.941
 1894WAT     H2 7265   7.229   0.462   1.862
 1895WAT      O 7266   6.997   0.742   2.539
 1895WAT     H1 7267   7.054   0.665   2.539
 1895WAT     H2 7268   6.997   0.772   2.448
 1896WAT      O 7269   7.982   1.624   2.325
 1896WAT     H1 7270   7.921   1.669   2.268
 1896WAT     H2 7271   8.068   1.639   2.285
 1897WAT      O 7272   7.902   1.222   2.485
 1897WAT     H1 7273   7.895   1.128   2.469
 1897WAT     H2 7274   7.978   1.231   2.543
 1898WAT      O 7275   7.121   0.283   2.718
 1898WAT     H1 7276   7.103   0.193   2.746
 1898WAT     H2 7277   7.081   0.337   2.785
 1899WAT      O 7278   8.005   0.503   2.508
 1899WAT     H1 7279   8.042   0.416   2.497
 1899WAT     H2 7280   7.995   0.537   2.419
 1900WAT      O 7281   7.418   0.340   2.054
 1900WAT     H1 7282   7.429   0.430   2.085
 1900WAT     H2 7283   7.327   0.335   2.025
 1901WAT      O 7284   7.183   0.532   2.579
 1901WAT     H1 7285   7.251   0.559   2.641
 1901WAT     H2 7286   7.151   0.448   2.612
 1902WAT      O 7287   7.602   0.637   2.488
 1902WAT     H1 7288   7.653   0.687   2.552
 1902WAT     H2 7289   7.655   0.559   2.470
 1903WAT      O 7290   7.555   1.065   2.732
 1903WAT     H1 7291   7.522   1.128   2.796
 1903WAT     H2 7292   7.573   1.118   2.654
 1904WAT      O 7293   7.398   0.272   2.715
 1904WAT     H1 7294   7.433   0.357   2.685
 1904WAT     H2 7295   7.305   0.287   2.727
 1905WAT      O 7296   7.477   1.262   2.913
 1905WAT     H1 7297   7.538   1.329   2.885
 1905WAT     H2 7298   7.390   1.303   2.904
 1906WAT      O 7299   7.006   1.181   1.801
 1906WAT     H1 7300   6.968   1.230   1.728
 1906WAT     H2 7301   7.032   1.248   1.865
 1907WAT      O 7302   8.006   0.827   2.021
 1907WAT     H1 7303   7.913   0.821   2.044
 1907WAT     H2 7304   8.021   0.921   2.009
 1908WAT      O 7305   8.004   0.455   1.721
 1908WAT     H1 7306   7.910   0.471   1.729
 1908WAT     H2 7307   8.036   0.526   1.666
 1909WAT      O 7308   7.566   0.880   2.299
 1909WAT     H1 7309   7.526   0.809   2.250
 1909WAT     H2 7310   7.575   0.846   2.388
 1910WAT      O 7311   7.613   1.249   2.515
 1910WAT     H1 7312   7.583   1.188   2.448
 1910WAT     H2 7313   7.708   1.253   2.504
 1911WAT      O 7314   7.437   0.558   2.677
 1911WAT     H1 7315   7.493   0.568   2.600
 1911WAT     H2 7316   7.489   0.595   2.749
 1912WAT      O 7317   7.522   1.223   3.181
 1912WAT     H1 7318   7.432   1.245   3.205
 1912WAT     H2 7319   7.525   1.235   3.086
 1913WAT      O 7320   7.405   0.910   3.038
 1913WAT     H1 7321   7.391   0.997   3.075
 1913WAT     H2 7322   7.317   0.875   3.024
 1914WAT      O 7323   7.585   1.504   3.259
 1914WAT     H1 7324   7.582   1.544   3.172
 1914WAT     H2 7325   7.568   1.411   3.243
 1915WAT      O 7326   7.236   0.770   2.049
 1915WAT     H1 7327   7.224   0.842   1.988
 1915WAT     H2 7328   7.205   0.693   2.001
 1916WAT      O 7329   7.000   1.087   2.630
 1916WAT     H1 7330   7.008   1.100   2.535
 1916WAT     H2 7331   7.061   1.016   2.649
 1917WAT      O 7332   7.125   1.257   2.271
 1917WAT     H1 7333   7.084   1.271   2.185
 1917WAT     H2 7334   7.214   1.228   2.251
 1918WAT      O 7335   7.552   1.678   2.082
 1918WAT     H1 7336   7.534   1.586   2.061
 1918WAT     H2 7337   7.466   1.714   2.106
 1919WAT      O 7338   7.006   1.191   2.884
 1919WAT     H1 7339   7.022   1.144   2.802
 1919WAT     H2 7340   7.052   1.140   2.950
 1920WAT      O 7341   7.912   0.391   2.948
 1920WAT     H1 7342   7.865   0.411   3.029
 1920WAT     H2 7343   7.871   0.309   2.917
 1921WAT      O 7344   7.462   0.616   2.160
 1921WAT     H1 7345   7.439   0.595   2.251
 1921WAT     H2 7346   7.384   0.659   2.126
 1922WAT      O 7347   7.706   0.706   3.227
 1922WAT     H1 7348   7.696   0.612   3.212
 1922WAT     H2 7349   7.790   0.728   3.187
 1923WAT      O 7350   7.219   0.347   3.042
 1923WAT     H1 7351   7.180   0.432   3.063
 1923WAT     H2 7352   7.150   0.283   3.061
 1924WAT      O 7353   7.877   0.356   3.349
 1924WAT     H1 7354   7.807   0.336   3.413
 1924WAT     H2 7355   7.951   0.384   3.402
 1925WAT      O 7356   6.968   0.534   1.566
 1925WAT     H1 7357   6.960   0.628   1.581
 1925WAT     H2 7358   6.933   0.519   1.479
 1926WAT      O 7359   7.748   0.407   2.473
 1926WAT     H1 7360   7.748   0.363   2.388
 1926WAT     H2 7361   7.837   0.439   2.484
 1927WAT      O 7362   7.333   0.395   2.369
 1927WAT     H1 7363   7.299   0.443   2.445
 1927WAT     H2 7364   7.257   0.350   2.333
 1928WAT      O 7365   7.754   0.507   1.772
 1928WAT     H1 7366   7.766   0.503   1.867
 1928WAT     H2 7367   7.716   0.593   1.757
 1929WAT      O 7368   7.655   0.738   1.712
 1929WAT     H1 7369   7.598   0.693   1.649
 1929WAT     H2 7370   7.726   0.774   1.659
 1930WAT      O 7371   7.163   1.128   3.100
 1930WAT     H1 7372   7.125   1.064   3.160
 1930WAT     H2 7373   7.194   1.199   3.157
 1931WAT      O 7374   7.778   0.813   2.648
 1931WAT     H1 7375   7.815   0.766   2.722
 1931WAT     H2 7376   7.759   0.901   2.682
 1932WAT      O 7377   7.064   0.288   2.261
 1932WAT     H1 7378   7.036   0.251   2.345
 1932WAT     H2 7379   7.058   0.214   2.199
 1933WAT      O 7380   7.557   0.717   2.880
 1933WAT     H1 7381   7.527   0.805   2.902
 1933WAT     H2 7382   7.652   0.723   2.883
 1934WAT      O 7383   7.410   1.138   1.939
 1934WAT     H1 7384   7.332   1.084   1.923
 1934WAT     H2 7385   7.483   1.086   1.906
 1935WAT      O 7386   8.032   0.177   1.933
 1935WAT     H1 7387   7.950   0.127   1.925
 1935WAT     H2 7388   8.012   0.261   1.891
 1936WAT      O 7389   8.024   1.045   3.107
 1936WAT     H1 7390   8.017   0.952   3.082
 1936WAT     H2 7391   7.961   1.054   3.179
 1937WAT      O 7392   7.414   1.105   2.303
 1937WAT     H1 7393   7.466   1.024   2.298
 1937WAT     H2 7394   7.369   1.098   2.387
 1938WAT      O 7395   7.903   1.231   1.830
 1938WAT     H1 7396   7.937   1.306   1.781
 1938WAT     H2 7397   7.820   1.263   1.867
 1939WAT      O 7398   7.163   0.801   2.994
 1939WAT     H1 7399   7.127   0.868   3.053
 1939WAT     H2 7400   7.133   0.718   3.032
 1940WAT      O 7401   7.483   0.847   3.283
 1940WAT     H1 7402   7.453   0.862   3.193
 1940WAT     H2 7403   7.560   0.791   3.274
 1941WAT      O 7404   8.017   1.327   3.082
 1941WAT     H1 7405   8.018   1.234   3.061
 1941WAT     H2 7406   7.946   1.335   3.146
 1942WAT      O 7407   7.800   1.239   2.108
 1942WAT     H1 7408   7.868   1.294   2.146
 1942WAT     H2 7409   7.721   1.294   2.111
 1943WAT      O 7410   7.014   0.801   1.657
 1943WAT     H1 7411   7.101   0.829   1.685
 1943WAT     H2 7412   6.965   0.882   1.645
 1944WAT      O 7413   7.730   0.940   2.069
 1944WAT     H1 7414   7.776   1.021   2.091
 1944WAT     H2 7415   7.695   0.908   2.152
 1945WAT      O 7416   7.960   1.491   2.792
 1945WAT     H1 7417   8.025   1.512   2.859
 1945WAT     H2 7418   7.997   1.415   2.746
 1946WAT      O 7419   7.050   1.722   1.713
 1946WAT     H1 7420   7.086   1.782   1.648
 1946WAT     H2 7421   7.036   1.777   1.791
 1947WAT      O 7422   7.049   1.549   3.161
 1947WAT     H1 7423   7.060   1.455   3.147
 1947WAT     H2 7424   6.984   1.575   3.096
 1948WAT      O 7425   7.848   1.376   3.301
 1948WAT     H1 7426   7.816   1.304   3.355
 1948WAT     H2 7427   7.781   1.444   3.308
 1949WAT      O 7428   7.652   1.461   1.795
 1949WAT     H1 7429   7.651   1.534   1.734
 1949WAT     H2 7430   7.560   1.436   1.804
 1950WAT      O 7431   7.212   0.983   1.870
 1950WAT     H1 7432   7.151   1.057   1.871
 1950WAT     H2 7433   7.260   0.992   1.787
 1951WAT      O 7434   7.951   1.467   1.661
 1951WAT     H1 7435   7.961   1.447   1.568
 1951WAT     H2 7436   7.861   1.442   1.682
 1952WAT      O 7437   7.703   0.523   2.060
 1952WAT     H1 7438   7.632   0.570   2.104
 1952WAT     H2 7439   7.731   0.457   2.123
 1953WAT      O 7440   7.866   0.665   2.860
 1953WAT     H1 7441   7.915   0.712   2.926
 1953WAT     H2 7442   7.880   0.572   2.880
 1954WAT      O 7443   7.815   1.719   2.131
 1954WAT     H1 7444   7.840   1.715   2.039
 1954WAT     H2 7445   7.720   1.706   2.130
 1955WAT      O 7446   7.523   0.354   1.797
 1955WAT     H1 7447   7.608   0.397   1.790
 1955WAT     H2 7448   7.487   0.385   1.880
 1956WAT      O 7449   7.413   0.979   1.644
 1956WAT     H1 7450   7.490   0.968   1.701
 1956WAT     H2 7451   7.421   0.909   1.579
 1957WAT      O 7452   7.283   0.722   1.713
 1957WAT     H1 7453   7.291   0.627   1.724
 1957WAT     H2 7454   7.372   0.755   1.723
 1958WAT      O 7455   7.363   1.737   2.423
 1958WAT     H1 7456   7.436   1.682   2.450
 1958WAT     H2 7457   7.401   1.824   2.409
 1959WAT      O 7458   7.051   1.344   2.011
 1959WAT     H1 7459   6.959   1.368   2.010
 1959WAT     H2 7460   7.098   1.427   1.998
 1960WAT      O 7461   7.263   1.656   3.342
 1960WAT     H1 7462   7.344   1.688   3.383
 1960WAT     H2 7463   7.212   1.620   3.414
 1961WAT      O 7464   7.674   1.654   1.605
 1961WAT     H1 7465   7.753   1.683   1.560
 1961WAT     H2 7466   7.622   1.611   1.538
 1962WAT      O 7467   7.035   0.904   3.236
 1962WAT     H1 7468   7.086   0.846   3.294
 1962WAT     H2 7469   6.961   0.933   3.290
 1963WAT      O 7470   7.726   1.177   1.592
 1963WAT     H1 7471   7.715   1.115   1.664
 1963WAT     H2 7472   7.709   1.124   1.513
 1964WAT      O 7473   7.741   1.045   3.190
 1964WAT     H1 7474   7.664   1.102   3.181
 1964WAT     H2 7475   7.759   1.016   3.100
 1965WAT      O 7476   7.239   0.719   3.326
 1965WAT     H1 7477   7.243   0.689   3.417
 1965WAT     H2 7478   7.324   0.759   3.310
 1966WAT      O 7479   7.616   0.979   1.842
 1966WAT     H1 7480   7.659   0.962   1.926
 1966WAT     H2 7481   7.629   0.898   1.792
 1967WAT      O 7482   7.433   0.577   3.123
 1967WAT     H1 7483   7.380   0.527   3.060
 1967WAT     H2 7484   7.500   0.619   3.069
 1968WAT      O 7485   7.868   0.881   1.567
 1968WAT     H1 7486   7.920   0.809   1.530
 1968WAT     H2 7487   7.932   0.945   1.597
 1969WAT      O 7488   7.481   0.273   3.131
 1969WAT     H1 7489   7.472   0.211   3.058
 1969WAT     H2 7490   7.423   0.346   3.108
 1970WAT      O 7491   7.799   1.018   2.896
 1970WAT     H1 7492   7.840   1.103   2.879
 1970WAT     H2 7493   7.707   1.032   2.873
 1971WAT      O 7494   7.506   0.586   1.536
 1971WAT     H1 7495   7.486   0.500   1.573
 1971WAT     H2 7496   7.489   0.577   1.443
 1972WAT      O 7497   7.584   1.649   3.008
 1972WAT     H1 7498   7.530   1.721   2.976
 1972WAT     H2 7499   7.609   1.601   2.929
 1973WAT      O 7500   7.709   0.446   3.160
 1973WAT     H1 7501   7.768   0.415   3.229
 1973WAT     H2 7502   7.627   0.399   3.176
 1974WAT      O 7503   7.386   0.296   1.535
 1974WAT     H1 7504   7.416   0.297   1.444
 1974WAT     H2 7505   7.460   0.261   1.585
 1975WAT      O 7506   7.869   1.773   3.033
 1975WAT     H1 7507   7.862   1.863   3.064
 1975WAT     H2 7508   7.779   1.741   3.031
 1976WAT      O 7509   7.924   1.689   1.796
 1976WAT     H1 7510   8.014   1.723   1.798
 1976WAT     H2 7511   7.927   1.617   1.733
 1977WAT      O 7512   7.288   1.226   1.619
 1977WAT     H1 7513   7.332   1.281   1.684
 1977WAT     H2 7514   7.337   1.144   1.619
 1978WAT      O 7515   7.010   1.505   2.364
 1978WAT     H1 7516   7.043   1.418   2.341
 1978WAT     H2 7517   7.052   1.526   2.447
 1979WAT      O 7518   7.469   1.338   2.130
 1979WAT     H1 7519   7.439   1.326   2.220
 1979WAT     H2 7520   7.459   1.252   2.089
 1980WAT      O 7521   7.058   1.592   2.638
 1980WAT     H1 7522   7.015   1.610   2.721
 1980WAT     H2 7523   7.115   1.668   2.623
 1981WAT      O 7524   7.042   0.843   2.273
 1981WAT     H1 7525   6.976   0.816   2.209
 1981WAT     H2 7526   7.126   0.832   2.228
 1982WAT      O 7527   7.145   0.882   2.727
 1982WAT     H1 7528   7.182   0.873   2.815
 1982WAT     H2 7529   7.089   0.805   2.718
 1983WAT      O 7530   7.101   0.573   3.118
 1983WAT     H1 7531   7.011   0.569   3.152
 1983WAT     H2 7532   7.155   0.593   3.195
 1984WAT      O 7533   6.963   0.564   1.868
 1984WAT     H1 7534   6.873   0.590   1.850
 1984WAT     H2 7535   7.012   0.591   1.790
 1985WAT      O 7536   7.217   0.470   1.659
 1985WAT     H1 7537   7.288   0.428   1.610
 1985WAT     H2 7538   7.146   0.477   1.595
 1986WAT      O 7539   7.287   1.333   3.244
 1986WAT     H1 7540   7.283   1.296   3.332
 1986WAT     H2 7541   7.300   1.427   3.258
 1987WAT      O 7542   7.657   1.489   2.804
 1987WAT     H1 7543   7.633   1.515   2.715
 1987WAT     H2 7544   7.751   1.506   2.809
 1988WAT      O 7545   7.271   1.628   2.956
 1988WAT     H1 7546   7.211   1.615   3.030
 1988WAT     H2 7547   7.270   1.544   2.909
 1989WAT      O 7548   7.234   1.364   2.851
 1989WAT     H1 7549   7.161   1.302   2.844
 1989WAT     H2 7550   7.240   1.404   2.764
 1990WAT      O 7551   7.594   1.586   2.529
 1990WAT     H1 7552   7.646   1.525   2.477
 1990WAT     H2 7553   7.659   1.636   2.578
 1991WAT      O 7554   7.868   1.675   2.612
 1991WAT     H1 7555   7.897   1.649   2.524
 1991WAT     H2 7556   7.920   1.620   2.671
 1992WAT      O 7557   7.062   1.696   2.172
 1992WAT     H1 7558   7.046   1.633   2.242
 1992WAT     H2 7559   6.976   1.717   2.137
 1993WAT      O 7560   7.779   0.291   2.221
 1993WAT     H1 7561   7.697   0.253   2.187
 1993WAT     H2 7562   7.829   0.215   2.251
 1994WAT      O 7563   7.223   1.565   1.916
 1994WAT     H1 7564   7.170   1.603   1.846
 1994WAT     H2 7565   7.215   1.628   1.988
 1995WAT      O 7566   7.875   1.767   3.349
 1995WAT     H1 7567   7.968   1.743   3.353
 1995WAT     H2 7568   7.874   1.850   3.300
 1996WAT      O 7569   7.483   1.760   1.804
 1996WAT     H1 7570   7.556   1.732   1.749
 1996WAT     H2 7571   7.509   1.736   1.893
 1997WAT      O 7572   7.399   1.372   1.804
 1997WAT     H1 7573   7.336   1.419   1.859
 1997WAT     H2 7574   7.410   1.287   1.848
 1998WAT      O 7575   7.958   0.955   0.607
 1998WAT     H1 7576   7.880   0.907   0.636
 1998WAT     H2 7577   8.023   0.887   0.590
 1999WAT      O 7578   7.359   0.986   0.695
 1999WAT     H1 7579   7.276   0.960   0.735
 1999WAT     H2 7580   7.420   0.993   0.769
 2000WAT      O 7581   7.357   1.389   0.715
 2000WAT     H1 7582   7.388   1.300   0.697
 2000WAT     H2 7583   7.432   1.445   0.692
 2001WAT      O 7584   6.997   0.742   0.662
 2001WAT     H1 7585   7.054   0.665   0.662
 2001WAT     H2 7586   6.997   0.772   0.571
 2002WAT      O 7587   7.982   1.624   0.447
 2002WAT     H1 7588   7.921   1.669   0.390
 2002WAT     H2 7589   8.068   1.639   0.407
 2003WAT      O 7590   7.902   1.222   0.608
 2003WAT     H1 7591   7.895   1.128   0.592
 2003WAT     H2 7592   7.978   1.231   0.665
 2004WAT      O 7593   7.121   0.283   0.841
 2004WAT     H1 7594   7.103   0.193   0.869
 2004WAT     H2 7595   7.081   0.337   0.908
 2005WAT      O 7596   8.005   0.503   0.631
 2005WAT     H1 7597   8.042   0.416   0.619
 2005WAT     H2 7598   7.995   0.537   0.542
 2006WAT      O 7599   7.418   0.340   0.177
 2006WAT     H1 7600   7.429   0.430   0.208
 2006WAT     H2 7601   7.327   0.335   0.148
 2007WAT      O 7602   7.183   0.532   0.701
 2007WAT     H1 7603   7.251   0.559   0.763
 2007WAT     H2 7604   7.151   0.448   0.735
 2008WAT      O 7605   7.602   0.637   0.610
 2008WAT     H1 7606   7.653   0.687   0.674
 2008WAT     H2 7607   7.655   0.559   0.592
 2009WAT      O 7608   7.555   1.065   0.854
 2009WAT     H1 7609   7.522   1.128   0.919
 2009WAT     H2 7610   7.573   1.118   0.776
 2010WAT      O 7611   7.398   0.272   0.837
 2010WAT     H1 7612   7.433   0.357   0.808
 2010WAT     H2 7613   7.305   0.287   0.849
 2011WAT      O 7614   7.477   1.262   1.036
 2011WAT     H1 7615   7.538   1.329   1.008
 2011WAT     H2 7616   7.390   1.303   1.027
 2012WAT      O 7617   7.566   0.880   0.422
 2012WAT     H1 7618   7.526   0.809   0.372
 2012WAT     H2 7619   7.575   0.846   0.511
 2013WAT      O 7620   7.613   1.249   0.638
 2013WAT     H1 7621   7.583   1.188   0.570
 2013WAT     H2 7622   7.708   1.253   0.627
 2014WAT      O 7623   7.437   0.558   0.800
 2014WAT     H1 7624   7.493   0.568   0.722
 2014WAT     H2 7625   7.489   0.595   0.871
 2015WAT      O 7626   7.522   1.223   1.303
 2015WAT     H1 7627   7.432   1.245   1.328
 2015WAT     H2 7628   7.525   1.235   1.208
 2016WAT      O 7629   7.405   0.910   1.161
 2016WAT     H1 7630   7.391   0.997   1.198
 2016WAT     H2 7631   7.317   0.875   1.146
 2017WAT      O 7632   7.585   1.504   1.382
 2017WAT     H1 7633   7.582   1.544   1.295
 2017WAT     H2 7634   7.568   1.411   1.365
 2018WAT      O 7635   7.000   1.087   0.752
 2018WAT     H1 7636   7.008   1.100   0.658
 2018WAT     H2 7637   7.061   1.016   0.772
 2019WAT      O 7638   7.125   1.257   0.393
 2019WAT     H1 7639   7.084   1.271   0.308
 2019WAT     H2 7640   7.214   1.228   0.373
 2020WAT      O 7641   7.552   1.678   0.205
 2020WAT     H1 7642   7.534   1.586   0.183
 2020WAT     H2 7643   7.466   1.714   0.229
 2021WAT      O 7644   7.006   1.191   1.006
 2021WAT     H1 7645   7.022   1.144   0.925
 2021WAT     H2 7646   7.052   1.140   1.073
 2022WAT      O 7647   7.912   0.391   1.070
 2022WAT     H1 7648   7.865   0.411   1.152
 2022WAT     H2 7649   7.871   0.309   1.040
 2023WAT      O 7650   7.462   0.616   0.283
 2023WAT     H1 7651   7.439   0.595   0.373
 2023WAT     H2 7652   7.384   0.659   0.248
 2024WAT      O 7653   7.706   0.706   1.349
 2024WAT     H1 7654   7.696   0.612   1.334
 2024WAT     H2 7655   7.790   0.728   1.310
 2025WAT      O 7656   7.219   0.347   1.165
 2025WAT     H1 7657   7.180   0.432   1.185
 2025WAT     H2 7658   7.150   0.283   1.184
 2026WAT      O 7659   7.877   0.356   1.472
 2026WAT     H1 7660   7.807   0.336   1.535
 2026WAT     H2 7661   7.951   0.384   1.525
 2027WAT      O 7662   7.748   0.407   0.596
 2027WAT     H1 7663   7.748   0.363   0.511
 2027WAT     H2 7664   7.837   0.439   0.606
 2028WAT      O 7665   7.333   0.395   0.492
 2028WAT     H1 7666   7.299   0.443   0.567
 2028WAT     H2 7667   7.257   0.350   0.456
 2029WAT      O 7668   7.163   1.128   1.222
 2029WAT     H1 7669   7.125   1.064   1.282
 2029WAT     H2 7670   7.194   1.199   1.279
 2030WAT      O 7671   7.778   0.813   0.770
 2030WAT     H1 7672   7.815   0.766   0.845
 2030WAT     H2 7673   7.759   0.901   0.804
 2031WAT      O 7674   7.064   0.288   0.383
 2031WAT     H1 7675   7.036   0.251   0.467
 2031WAT     H2 7676   7.058   0.214   0.322
 2032WAT      O 7677   7.557   0.717   1.002
 2032WAT     H1 7678   7.527   0.805   1.025
 2032WAT     H2 7679   7.652   0.723   1.006
 2033WAT      O 7680   8.024   1.045   1.230
 2033WAT     H1 7681   8.017   0.952   1.204
 2033WAT     H2 7682   7.961   1.054   1.301
 2034WAT      O 7683   7.414   1.105   0.426
 2034WAT     H1 7684   7.466   1.024   0.420
 2034WAT     H2 7685   7.369   1.098   0.510
 2035WAT      O 7686   7.163   0.801   1.117
 2035WAT     H1 7687   7.127   0.868   1.176
 2035WAT     H2 7688   7.133   0.718   1.154
 2036WAT      O 7689   7.483   0.847   1.405
 2036WAT     H1 7690   7.453   0.862   1.316
 2036WAT     H2 7691   7.560   0.791   1.396
 2037WAT      O 7692   8.017   1.327   1.205
 2037WAT     H1 7693   8.018   1.234   1.183
 2037WAT     H2 7694   7.946   1.335   1.269
 2038WAT      O 7695   7.800   1.239   0.230
 2038WAT     H1 7696   7.868   1.294   0.268
 2038WAT     H2 7697   7.721   1.294   0.234
 2039WAT      O 7698   7.730   0.940   0.191
 2039WAT     H1 7699   7.776   1.021   0.214
 2039WAT     H2 7700   7.695   0.908   0.275
 2040WAT      O 7701   7.960   1.491   0.914
 2040WAT     H1 7702   8.025   1.512   0.982
 2040WAT     H2 7703   7.997   1.415   0.869
 2041WAT      O 7704   7.049   1.549   1.283
 2041WAT     H1 7705   7.060   1.455   1.269
 2041WAT     H2 7706   6.984   1.575   1.218
 2042WAT      O 7707   7.848   1.376   1.423
 2042WAT     H1 7708   7.816   1.304   1.478
 2042WAT     H2 7709   7.781   1.444   1.431
 2043WAT      O 7710   7.703   0.523   0.182
 2043WAT     H1 7711   7.632   0.570   0.226
 2043WAT     H2 7712   7.731   0.457   0.246
 2044WAT      O 7713   7.866   0.665   0.982
 2044WAT     H1 7714   7.915   0.712   1.049
 2044WAT     H2 7715   7.880   0.572   1.003
 2045WAT      O 7716   7.815   1.719   0.253
 2045WAT     H1 7717   7.840   1.715   0.161
 2045WAT     H2 7718   7.720   1.706   0.253
 2046WAT      O 7719   7.363   1.737   0.546
 2046WAT     H1 7720   7.436   1.682   0.573
 2046WAT     H2 7721   7.401   1.824   0.532
 2047WAT      O 7722   7.263   1.656   1.465
 2047WAT     H1 7723   7.344   1.688   1.506
 2047WAT     H2 7724   7.212   1.620   1.537
 2048WAT      O 7725   7.035   0.904   1.359
 2048WAT     H1 7726   7.086   0.846   1.416
 2048WAT     H2 7727   6.961   0.933   1.413
 2049WAT      O 7728   7.741   1.045   1.312
 2049WAT     H1 7729   7.664   1.102   1.304
 2049WAT     H2 7730   7.759   1.016   1.223
 2050WAT      O 7731   7.239   0.719   1.448
 2050WAT     H1 7732   7.243   0.689   1.539
 2050WAT     H2 7733   7.324   0.759   1.432
 2051WAT      O 7734   7.433   0.577   1.245
 2051WAT     H1 7735   7.380   0.527   1.182
 2051WAT     H2 7736   7.500   0.619   1.192
 2052WAT      O 7737   7.481   0.273   1.253
 2052WAT     H1 7738   7.472   0.211   1.181
 2052WAT     H2 7739   7.423   0.346   1.230
 2053WAT      O 7740   7.799   1.018   1.019
 2053WAT     H1 7741   7.840   1.103   1.001
 2053WAT     H2 7742   7.707   1.032   0.996
 2054WAT      O 7743   7.584   1.649   1.130
 2054WAT     H1 7744   7.530   1.721   1.098
 2054WAT     H2 7745   7.609   1.601   1.051
 2055WAT      O 7746   7.709   0.446   1.283
 2055WAT     H1 7747   7.768   0.415   1.351
 2055WAT     H2 7748   7.627   0.399   1.298
 2056WAT      O 7749   7.869   1.773   1.156
 2056WAT     H1 7750   7.862   1.863   1.187
 2056WAT     H2 7751   7.779   1.741   1.153
 2057WAT      O 7752   7.010   1.505   0.486
 2057WAT     H1 7753   7.043   1.418   0.463
 2057WAT     H2 7754   7.052   1.526   0.569
 2058WAT      O 7755   7.469   1.338   0.252
 2058WAT     H1 7756   7.439   1.326   0.342
 2058WAT     H2 7757   7.459   1.252   0.211
 2059WAT      O 7758   7.058   1.592   0.760
 2059WAT     H1 7759   7.015   1.610   0.843
 2059WAT     H2 7760   7.115   1.668   0.746
 2060WAT      O 7761   7.042   0.843   0.396
 2060WAT     H1 7762   6.976   0.816   0.332
 2060WAT     H2 7763   7.126   0.832   0.351
 2061WAT      O 7764   7.145   0.882   0.850
 2061WAT     H1 7765   7.182   0.873   0.938
 2061WAT     H2 7766   7.089   0.805   0.840
 2062WAT      O 7767   7.101   0.573   1.241
 2062WAT     H1 7768   7.011   0.569   1.275
 2062WAT     H2 7769   7.155   0.593   1.317
 2063WAT      O 7770   7.287   1.333   1.366
 2063WAT     H1 7771   7.283   1.296   1.454
 2063WAT     H2 7772   7.300   1.427   1.380
 2064WAT      O 7773   7.657   1.489   0.926
 2064WAT     H1 7774   7.633   1.515   0.838
 2064WAT     H2 7775   7.751   1.506   0.932
 2065WAT      O 7776   7.271   1.628   1.078
 2065WAT     H1 7777   7.211   1.615   1.152
 2065WAT     H2 7778   7.270   1.544   1.032
 2066WAT      O 7779   7.234   1.364   0.973
 2066WAT     H1 7780   7.161   1.302   0.967
 2066WAT     H2 7781   7.240   1.404   0.886
 2067WAT      O 7782   7.594   1.586   0.652
 2067WAT     H1 7783   7.646   1.525   0.599
 2067WAT     H2 7784   7.659   1.636   0.701
 2068WAT      O 7785   7.868   1.675   0.734
 2068WAT     H1 7786   7.897   1.649   0.647
 2068WAT     H2 7787   7.920   1.620   0.794
 2069WAT      O 7788   7.062   1.696   0.294
 2069WAT     H1 7789   7.046   1.633   0.364
 2069WAT     H2 7790   6.976   1.717   0.259
 2070WAT      O 7791   7.779   0.291   0.344
 2070WAT     H1 7792   7.697   0.253   0.310
 2070WAT     H2 7793   7.829   0.215   0.374
 2071WAT      O 7794   7.875   1.767   1.471
 2071WAT     H1 7795   7.968   1.743   1.476
 2071WAT     H2 7796   7.874   1.850   1.423
 2072WAT      O 7797   6.267   8.287   6.051
 2072WAT     H1 7798   6.259   8.195   6.024
 2072WAT     H2 7799   6.226   8.336   5.981
 2073WAT      O 7800   6.080   8.464   6.240
 2073WAT     H1 7801   6.003   8.416   6.269
 2073WAT     H2 7802   6.145   8.396   6.222
 2074WAT      O 7803   5.482   8.496   6.327
 2074WAT     H1 7804   5.399   8.470   6.367
 2074WAT     H2 7805   5.543   8.503   6.401
 2075WAT      O 7806   6.482   8.905   6.118
 2075WAT     H1 7807   6.436   8.828   6.150
 2075WAT     H2 7808   6.564   8.908   6.168
 2076WAT      O 7809   5.480   8.899   6.347
 2076WAT     H1 7810   5.510   8.810   6.329
 2076WAT     H2 7811   5.554   8.955   6.324
 2077WAT      O 7812   5.323   7.992   5.706
 2077WAT     H1 7813   5.234   8.026   5.696
 2077WAT     H2 7814   5.351   7.972   5.617
 2078WAT      O 7815   5.119   8.252   6.294
 2078WAT     H1 7816   5.176   8.175   6.294
 2078WAT     H2 7817   5.119   8.282   6.203
 2079WAT      O 7818   6.024   8.732   6.240
 2079WAT     H1 7819   6.017   8.638   6.224
 2079WAT     H2 7820   6.101   8.741   6.297
 2080WAT      O 7821   5.243   7.792   6.473
 2080WAT     H1 7822   5.225   7.703   6.501
 2080WAT     H2 7823   5.203   7.847   6.540
 2081WAT      O 7824   6.127   8.013   6.263
 2081WAT     H1 7825   6.165   7.925   6.252
 2081WAT     H2 7826   6.118   8.046   6.174
 2082WAT      O 7827   5.540   7.850   5.809
 2082WAT     H1 7828   5.551   7.940   5.840
 2082WAT     H2 7829   5.449   7.845   5.780
 2083WAT      O 7830   6.506   7.762   5.956
 2083WAT     H1 7831   6.588   7.713   5.960
 2083WAT     H2 7832   6.509   7.821   6.032
 2084WAT      O 7833   5.305   8.042   6.334
 2084WAT     H1 7834   5.373   8.068   6.396
 2084WAT     H2 7835   5.274   7.958   6.367
 2085WAT      O 7836   5.725   8.147   6.242
 2085WAT     H1 7837   5.775   8.197   6.306
 2085WAT     H2 7838   5.778   8.069   6.225
 2086WAT      O 7839   6.192   8.622   5.819
 2086WAT     H1 7840   6.130   8.668   5.763
 2086WAT     H2 7841   6.243   8.691   5.861
 2087WAT      O 7842   5.678   8.575   6.487
 2087WAT     H1 7843   5.645   8.637   6.551
 2087WAT     H2 7844   5.696   8.627   6.409
 2088WAT      O 7845   6.529   7.956   6.234
 2088WAT     H1 7846   6.459   7.985   6.292
 2088WAT     H2 7847   6.565   8.037   6.198
 2089WAT      O 7848   5.521   7.782   6.470
 2089WAT     H1 7849   5.555   7.866   6.440
 2089WAT     H2 7850   5.427   7.797   6.481
 2090WAT      O 7851   5.128   8.691   5.556
 2090WAT     H1 7852   5.091   8.739   5.483
 2090WAT     H2 7853   5.154   8.758   5.619
 2091WAT      O 7854   6.691   8.918   6.460
 2091WAT     H1 7855   6.623   8.985   6.459
 2091WAT     H2 7856   6.745   8.938   6.383
 2092WAT      O 7857   6.836   7.901   6.273
 2092WAT     H1 7858   6.741   7.904   6.286
 2092WAT     H2 7859   6.869   7.982   6.311
 2093WAT      O 7860   5.889   7.531   6.102
 2093WAT     H1 7861   5.920   7.475   6.031
 2093WAT     H2 7862   5.796   7.544   6.084
 2094WAT      O 7863   6.574   8.775   5.840
 2094WAT     H1 7864   6.563   8.680   5.853
 2094WAT     H2 7865   6.574   8.811   5.929
 2095WAT      O 7866   6.384   8.593   6.464
 2095WAT     H1 7867   6.426   8.571   6.381
 2095WAT     H2 7868   6.457   8.618   6.521
 2096WAT      O 7869   6.128   8.337   5.776
 2096WAT     H1 7870   6.035   8.331   5.799
 2096WAT     H2 7871   6.143   8.431   5.764
 2097WAT      O 7872   6.127   7.964   5.475
 2097WAT     H1 7873   6.033   7.980   5.484
 2097WAT     H2 7874   6.159   8.036   5.421
 2098WAT      O 7875   6.779   8.433   6.473
 2098WAT     H1 7876   6.696   8.439   6.426
 2098WAT     H2 7877   6.838   8.491   6.426
 2099WAT      O 7878   6.531   8.493   5.826
 2099WAT     H1 7879   6.469   8.460   5.761
 2099WAT     H2 7880   6.529   8.429   5.897
 2100WAT      O 7881   6.475   8.111   6.568
 2100WAT     H1 7882   6.434   8.194   6.593
 2100WAT     H2 7883   6.402   8.053   6.549
 2101WAT      O 7884   5.689   8.390   6.054
 2101WAT     H1 7885   5.648   8.319   6.004
 2101WAT     H2 7886   5.697   8.355   6.143
 2102WAT      O 7887   5.736   8.758   6.270
 2102WAT     H1 7888   5.706   8.698   6.202
 2102WAT     H2 7889   5.831   8.762   6.259
 2103WAT      O 7890   5.560   8.067   6.432
 2103WAT     H1 7891   5.615   8.078   6.354
 2103WAT     H2 7892   5.611   8.105   6.504
 2104WAT      O 7893   6.349   8.417   5.527
 2104WAT     H1 7894   6.393   8.333   5.512
 2104WAT     H2 7895   6.420   8.481   5.535
 2105WAT      O 7896   6.160   8.911   5.924
 2105WAT     H1 7897   6.204   8.985   5.882
 2105WAT     H2 7898   6.154   8.935   6.016
 2106WAT      O 7899   6.707   7.543   5.358
 2106WAT     H1 7900   6.676   7.552   5.448
 2106WAT     H2 7901   6.783   7.600   5.353
 2107WAT      O 7902   5.359   8.279   5.804
 2107WAT     H1 7903   5.347   8.352   5.743
 2107WAT     H2 7904   5.328   8.202   5.756
 2108WAT      O 7905   5.123   8.596   6.385
 2108WAT     H1 7906   5.130   8.610   6.290
 2108WAT     H2 7907   5.184   8.526   6.404
 2109WAT      O 7908   5.247   8.766   6.026
 2109WAT     H1 7909   5.206   8.781   5.940
 2109WAT     H2 7910   5.336   8.738   6.005
 2110WAT      O 7911   6.397   8.961   5.515
 2110WAT     H1 7912   6.327   8.961   5.449
 2110WAT     H2 7913   6.471   8.918   5.472
 2111WAT      O 7914   5.605   7.614   6.142
 2111WAT     H1 7915   5.561   7.692   6.109
 2111WAT     H2 7916   5.661   7.646   6.213
 2112WAT      O 7917   5.917   7.576   5.630
 2112WAT     H1 7918   5.855   7.575   5.703
 2112WAT     H2 7919   5.908   7.489   5.591
 2113WAT      O 7920   5.809   7.668   6.328
 2113WAT     H1 7921   5.839   7.759   6.320
 2113WAT     H2 7922   5.864   7.619   6.267
 2114WAT      O 7923   5.585   8.126   5.915
 2114WAT     H1 7924   5.562   8.104   6.006
 2114WAT     H2 7925   5.506   8.169   5.881
 2115WAT      O 7926   6.307   8.127   5.775
 2115WAT     H1 7927   6.248   8.199   5.757
 2115WAT     H2 7928   6.362   8.120   5.697
 2116WAT      O 7929   6.168   7.990   5.978
 2116WAT     H1 7930   6.207   8.022   5.897
 2116WAT     H2 7931   6.204   7.902   5.989
 2117WAT      O 7932   5.072   7.649   6.200
 2117WAT     H1 7933   5.043   7.706   6.272
 2117WAT     H2 7934   5.146   7.601   6.237
 2118WAT      O 7935   5.090   8.043   5.321
 2118WAT     H1 7936   5.082   8.138   5.336
 2118WAT     H2 7937   5.055   8.029   5.233
 2119WAT      O 7938   6.227   8.249   6.388
 2119WAT     H1 7939   6.154   8.300   6.422
 2119WAT     H2 7940   6.187   8.168   6.357
 2120WAT      O 7941   5.870   7.917   6.228
 2120WAT     H1 7942   5.871   7.873   6.143
 2120WAT     H2 7943   5.960   7.949   6.239
 2121WAT      O 7944   5.455   7.905   6.124
 2121WAT     H1 7945   5.421   7.953   6.200
 2121WAT     H2 7946   5.379   7.860   6.088
 2122WAT      O 7947   5.877   8.017   5.527
 2122WAT     H1 7948   5.889   8.013   5.622
 2122WAT     H2 7949   5.838   8.103   5.512
 2123WAT      O 7950   6.273   7.795   6.329
 2123WAT     H1 7951   6.275   7.840   6.413
 2123WAT     H2 7952   6.248   7.705   6.350
 2124WAT      O 7953   5.778   8.248   5.467
 2124WAT     H1 7954   5.721   8.203   5.404
 2124WAT     H2 7955   5.849   8.284   5.414
 2125WAT      O 7956   5.901   8.323   6.403
 2125WAT     H1 7957   5.937   8.275   6.477
 2125WAT     H2 7958   5.882   8.410   6.437
 2126WAT      O 7959   5.187   7.797   6.016
 2126WAT     H1 7960   5.158   7.761   6.099
 2126WAT     H2 7961   5.181   7.724   5.954
 2127WAT      O 7962   5.532   8.648   5.694
 2127WAT     H1 7963   5.455   8.594   5.678
 2127WAT     H2 7964   5.605   8.596   5.660
 2128WAT      O 7965   6.608   8.547   6.273
 2128WAT     H1 7966   6.680   8.597   6.234
 2128WAT     H2 7967   6.588   8.479   6.209
 2129WAT      O 7968   6.154   7.687   5.688
 2129WAT     H1 7969   6.073   7.637   5.680
 2129WAT     H2 7970   6.135   7.771   5.646
 2130WAT      O 7971   6.426   8.124   5.517
 2130WAT     H1 7972   6.515   8.155   5.500
 2130WAT     H2 7973   6.423   8.036   5.478
 2131WAT      O 7974   5.537   8.614   6.058
 2131WAT     H1 7975   5.589   8.534   6.053
 2131WAT     H2 7976   5.492   8.608   6.142
 2132WAT      O 7977   6.025   8.741   5.585
 2132WAT     H1 7978   6.060   8.815   5.536
 2132WAT     H2 7979   5.943   8.772   5.622
 2133WAT      O 7980   6.653   8.255   5.464
 2133WAT     H1 7981   6.645   8.298   5.379
 2133WAT     H2 7982   6.725   8.301   5.507
 2134WAT      O 7983   6.756   8.940   5.737
 2134WAT     H1 7984   6.692   8.875   5.764
 2134WAT     H2 7985   6.717   8.981   5.659
 2135WAT      O 7986   6.314   8.673   6.122
 2135WAT     H1 7987   6.349   8.613   6.056
 2135WAT     H2 7988   6.225   8.641   6.139
 2136WAT      O 7989   5.922   8.749   5.862
 2136WAT     H1 7990   5.991   8.804   5.901
 2136WAT     H2 7991   5.844   8.804   5.866
 2137WAT      O 7992   5.136   8.311   5.412
 2137WAT     H1 7993   5.223   8.339   5.440
 2137WAT     H2 7994   5.087   8.392   5.400
 2138WAT      O 7995   5.853   8.450   5.824
 2138WAT     H1 7996   5.898   8.531   5.846
 2138WAT     H2 7997   5.817   8.418   5.907
 2139WAT      O 7998   6.083   9.001   6.547
 2139WAT     H1 7999   6.147   9.021   6.614
 2139WAT     H2 8000   6.119   8.925   6.501
 2140WAT      O 8001   5.443   7.484   5.871
 2140WAT     H1 8002   5.430   7.483   5.966
 2140WAT     H2 8003   5.360   7.518   5.836
 2141WAT      O 8004   6.210   8.801   6.418
 2141WAT     H1 8005   6.274   8.731   6.430
 2141WAT     H2 8006   6.263   8.879   6.400
 2142WAT      O 8007   6.595   8.829   5.391
 2142WAT     H1 8008   6.572   8.758   5.450
 2142WAT     H2 8009   6.556   8.805   5.307
 2143WAT      O 8010   6.553   8.621   5.557
 2143WAT     H1 8011   6.524   8.667   5.636
 2143WAT     H2 8012   6.632   8.575   5.584
 2144WAT      O 8013   5.775   8.970   5.550
 2144WAT     H1 8014   5.774   9.044   5.488
 2144WAT     H2 8015   5.683   8.946   5.559
 2145WAT      O 8016   5.335   8.493   5.624
 2145WAT     H1 8017   5.274   8.567   5.625
 2145WAT     H2 8018   5.382   8.502   5.542
 2146WAT      O 8019   6.292   7.909   6.592
 2146WAT     H1 8020   6.329   7.827   6.625
 2146WAT     H2 8021   6.206   7.915   6.634
 2147WAT      O 8022   6.629   7.805   5.673
 2147WAT     H1 8023   6.566   7.815   5.601
 2147WAT     H2 8024   6.579   7.827   5.752
 2148WAT      O 8025   6.073   8.977   5.416
 2148WAT     H1 8026   6.083   8.956   5.323
 2148WAT     H2 8027   5.983   8.951   5.437
 2149WAT      O 8028   5.826   8.033   5.814
 2149WAT     H1 8029   5.755   8.079   5.859
 2149WAT     H2 8030   5.854   7.967   5.878
 2150WAT      O 8031   6.229   7.705   5.958
 2150WAT     H1 8032   6.216   7.707   5.864
 2150WAT     H2 8033   6.324   7.710   5.970
 2151WAT      O 8034   5.646   7.863   5.552
 2151WAT     H1 8035   5.731   7.907   5.545
 2151WAT     H2 8036   5.609   7.895   5.635
 2152WAT      O 8037   6.538   8.321   6.043
 2152WAT     H1 8038   6.444   8.322   6.061
 2152WAT     H2 8039   6.569   8.242   6.088
 2153WAT      O 8040   5.536   8.489   5.399
 2153WAT     H1 8041   5.612   8.478   5.456
 2153WAT     H2 8042   5.544   8.419   5.334
 2154WAT      O 8043   5.405   8.232   5.468
 2154WAT     H1 8044   5.413   8.137   5.479
 2154WAT     H2 8045   5.494   8.265   5.478
 2155WAT      O 8046   5.174   8.854   5.765
 2155WAT     H1 8047   5.081   8.878   5.764
 2155WAT     H2 8048   5.220   8.936   5.753
 2156WAT      O 8049   5.848   8.686   5.347
 2156WAT     H1 8050   5.838   8.625   5.419
 2156WAT     H2 8051   5.831   8.634   5.268
 2157WAT      O 8052   6.172   8.592   5.407
 2157WAT     H1 8053   6.117   8.637   5.472
 2157WAT     H2 8054   6.234   8.542   5.459
 2158WAT      O 8055   5.739   8.488   5.597
 2158WAT     H1 8056   5.781   8.472   5.681
 2158WAT     H2 8057   5.751   8.407   5.547
 2159WAT      O 8058   5.990   8.391   5.322
 2159WAT     H1 8059   6.042   8.319   5.285
 2159WAT     H2 8060   6.055   8.455   5.352
 2160WAT      O 8061   5.881   7.639   6.589
 2160WAT     H1 8062   5.836   7.641   6.504
 2160WAT     H2 8063   5.817   7.599   6.648
 2161WAT      O 8064   5.921   8.528   6.651
 2161WAT     H1 8065   5.963   8.613   6.634
 2161WAT     H2 8066   5.829   8.542   6.628
 2162WAT      O 8067   5.629   8.096   5.291
 2162WAT     H1 8068   5.608   8.009   5.327
 2162WAT     H2 8069   5.611   8.087   5.198
 2163WAT      O 8070   6.376   7.577   5.544
 2163WAT     H1 8071   6.404   7.492   5.580
 2163WAT     H2 8072   6.299   7.600   5.596
 2164WAT      O 8073   5.508   7.806   5.290
 2164WAT     H1 8074   5.539   7.806   5.199
 2164WAT     H2 8075   5.582   7.771   5.340
 2165WAT      O 8076   5.830   7.700   5.389
 2165WAT     H1 8077   5.795   7.632   5.331
 2165WAT     H2 8078   5.850   7.654   5.470
 2166WAT      O 8079   5.411   8.736   5.373
 2166WAT     H1 8080   5.454   8.790   5.439
 2166WAT     H2 8081   5.459   8.654   5.374
 2167WAT      O 8082   5.132   9.015   6.119
 2167WAT     H1 8083   5.165   8.928   6.095
 2167WAT     H2 8084   5.175   9.036   6.202
 2168WAT      O 8085   5.592   8.848   5.885
 2168WAT     H1 8086   5.562   8.836   5.975
 2168WAT     H2 8087   5.581   8.762   5.844
 2169WAT      O 8088   6.869   8.826   5.355
 2169WAT     H1 8089   6.786   8.833   5.402
 2169WAT     H2 8090   6.886   8.915   5.325
 2170WAT      O 8091   6.814   8.501   5.605
 2170WAT     H1 8092   6.890   8.558   5.616
 2170WAT     H2 8093   6.816   8.444   5.682
 2171WAT      O 8094   5.164   8.353   6.028
 2171WAT     H1 8095   5.099   8.326   5.964
 2171WAT     H2 8096   5.248   8.342   5.983
 2172WAT      O 8097   6.915   8.586   6.090
 2172WAT     H1 8098   6.952   8.508   6.049
 2172WAT     H2 8099   6.979   8.655   6.072
 2173WAT      O 8100   6.819   8.530   5.321
 2173WAT     H1 8101   6.847   8.621   5.308
 2173WAT     H2 8102   6.801   8.524   5.415
 2174WAT      O 8103   6.459   7.832   5.450
 2174WAT     H1 8104   6.501   7.814   5.366
 2174WAT     H2 8105   6.429   7.747   5.482
 2175WAT      O 8106   6.809   8.324   5.820
 2175WAT     H1 8107   6.772   8.247   5.777
 2175WAT     H2 8108   6.736   8.362   5.869
 2176WAT      O 8109   5.268   8.391   6.482
 2176WAT     H1 8110   5.305   8.383   6.570
 2176WAT     H2 8111   5.211   8.315   6.472
 2177WAT      O 8112   5.086   8.074   5.623
 2177WAT     H1 8113   4.995   8.100   5.605
 2177WAT     H2 8114   5.134   8.101   5.545
 2178WAT      O 8115   6.737   8.146   6.150
 2178WAT     H1 8116   6.789   8.097   6.087
 2178WAT     H2 8117   6.795   8.160   6.225
 2179WAT      O 8118   6.755   8.155   6.503
 2179WAT     H1 8119   6.660   8.151   6.514
 2179WAT     H2 8120   6.773   8.246   6.479
 2180WAT      O 8121   5.340   7.980   5.414
 2180WAT     H1 8122   5.411   7.937   5.365
 2180WAT     H2 8123   5.268   7.986   5.350
 2181WAT      O 8124   5.305   7.585   5.318
 2181WAT     H1 8125   5.377   7.639   5.349
 2181WAT     H2 8126   5.332   7.558   5.230
 2182WAT      O 8127   6.686   8.072   5.744
 2182WAT     H1 8128   6.735   8.049   5.823
 2182WAT     H2 8129   6.666   7.988   5.703
 2183WAT      O 8130   5.274   7.510   6.308
 2183WAT     H1 8131   5.338   7.455   6.264
 2183WAT     H2 8132   5.316   7.535   6.390
 2184WAT      O 8133   6.828   7.935   5.998
 2184WAT     H1 8134   6.817   7.920   6.091
 2184WAT     H2 8135   6.905   7.883   5.973
 2185WAT      O 8136   6.917   7.719   5.322
 2185WAT     H1 8137   7.010   7.705   5.301
 2185WAT     H2 8138   6.915   7.727   5.417
 2186WAT      O 8139   6.925   7.796   5.584
 2186WAT     H1 8140   6.845   7.789   5.637
 2186WAT     H2 8141   6.945   7.889   5.583
 2187WAT      O 8142   5.780   8.998   6.559
 2187WAT     H1 8143   5.756   9.025   6.470
 2187WAT     H2 8144   5.874   9.015   6.564
 2188WAT      O 8145   6.338   7.467   6.531
 2188WAT     H1 8146   6.251   7.500   6.511
 2188WAT     H2 8147   6.327   7.419   6.613
 2189WAT      O 8148   5.357   8.874   6.606
 2189WAT     H1 8149   5.284   8.812   6.599
 2189WAT     H2 8150   5.363   8.913   6.519
 2190WAT      O 8151   6.113   7.558   6.425
 2190WAT     H1 8152   6.034   7.606   6.453
 2190WAT     H2 8153   6.083   7.468   6.414
 2191WAT      O 8154   6.568   7.629   6.229
 2191WAT     H1 8155   6.612   7.623   6.144
 2191WAT     H2 8156   6.541   7.720   6.236
 2192WAT      O 8157   6.754   7.592   6.030
 2192WAT     H1 8158   6.748   7.497   6.016
 2192WAT     H2 8159   6.832   7.603   6.085
 2193WAT      O 8160   5.247   7.589   5.677
 2193WAT     H1 8161   5.323   7.600   5.620
 2193WAT     H2 8162   5.201   7.673   5.672
 2194WAT      O 8163   5.901   7.800   5.976
 2194WAT     H1 8164   5.820   7.763   5.942
 2194WAT     H2 8165   5.952   7.725   6.006
 2195WAT      O 8166   6.352   7.467   6.100
 2195WAT     H1 8167   6.412   7.524   6.147
 2195WAT     H2 8168   6.277   7.523   6.077
 2196WAT      O 8169   6.666   7.507   5.627
 2196WAT     H1 8170   6.685   7.597   5.654
 2196WAT     H2 8171   6.587   7.484   5.676
 2197WAT      O 8172   5.484   7.642   5.531
 2197WAT     H1 8173   5.537   7.563   5.518
 2197WAT     H2 8174   5.548   7.709   5.554
 2198WAT      O 8175   5.704   7.615   5.836
 2198WAT     H1 8176   5.641   7.545   5.853
 2198WAT     H2 8177   5.650   7.691   5.815
 2199WAT      O 8178   5.522   8.882   5.559
 2199WAT     H1 8179   5.459   8.928   5.614
 2199WAT     H2 8180   5.533   8.797   5.602
 2200WAT      O 8181   6.267   8.287   4.174
 2200WAT     H1 8182   6.259   8.195   4.147
 2200WAT     H2 8183   6.226   8.336   4.103
 2201WAT      O 8184   6.080   8.464   4.362
 2201WAT     H1 8185   6.003   8.416   4.391
 2201WAT     H2 8186   6.145   8.396   4.345
 2202WAT      O 8187   5.482   8.496   4.450
 2202WAT     H1 8188   5.399   8.470   4.490
 2202WAT     H2 8189   5.543   8.503   4.523
 2203WAT      O 8190   6.482   8.905   4.240
 2203WAT     H1 8191   6.436   8.828   4.273
 2203WAT     H2 8192   6.564   8.908   4.291
 2204WAT      O 8193   5.480   8.899   4.469
 2204WAT     H1 8194   5.510   8.810   4.452
 2204WAT     H2 8195   5.554   8.955   4.447
 2205WAT      O 8196   5.323   7.992   3.828
 2205WAT     H1 8197   5.234   8.026   3.818
 2205WAT     H2 8198   5.351   7.972   3.739
 2206WAT      O 8199   5.119   8.252   4.417
 2206WAT     H1 8200   5.176   8.175   4.417
 2206WAT     H2 8201   5.119   8.282   4.326
 2207WAT      O 8202   6.024   8.732   4.363
 2207WAT     H1 8203   6.017   8.638   4.347
 2207WAT     H2 8204   6.101   8.741   4.420
 2208WAT      O 8205   5.243   7.792   4.595
 2208WAT     H1 8206   5.225   7.703   4.623
 2208WAT     H2 8207   5.203   7.847   4.663
 2209WAT      O 8208   6.127   8.013   4.386
 2209WAT     H1 8209   6.165   7.925   4.374
 2209WAT     H2 8210   6.118   8.046   4.296
 2210WAT      O 8211   5.540   7.850   3.932
 2210WAT     H1 8212   5.551   7.940   3.962
 2210WAT     H2 8213   5.449   7.845   3.903
 2211WAT      O 8214   6.506   7.762   4.079
 2211WAT     H1 8215   6.588   7.713   4.083
 2211WAT     H2 8216   6.509   7.821   4.154
 2212WAT      O 8217   5.305   8.042   4.456
 2212WAT     H1 8218   5.373   8.068   4.518
 2212WAT     H2 8219   5.274   7.958   4.490
 2213WAT      O 8220   5.725   8.147   4.365
 2213WAT     H1 8221   5.775   8.197   4.429
 2213WAT     H2 8222   5.778   8.069   4.347
 2214WAT      O 8223   6.935   7.964   4.735
 2214WAT     H1 8224   6.864   8.003   4.683
 2214WAT     H2 8225   6.961   8.033   4.795
 2215WAT      O 8226   5.553   7.611   4.792
 2215WAT     H1 8227   5.553   7.662   4.711
 2215WAT     H2 8228   5.470   7.563   4.789
 2216WAT      O 8229   6.192   8.622   3.941
 2216WAT     H1 8230   6.130   8.668   3.885
 2216WAT     H2 8231   6.243   8.691   3.983
 2217WAT      O 8232   5.678   8.575   4.609
 2217WAT     H1 8233   5.645   8.637   4.674
 2217WAT     H2 8234   5.696   8.627   4.531
 2218WAT      O 8235   6.529   7.956   4.356
 2218WAT     H1 8236   6.459   7.985   4.414
 2218WAT     H2 8237   6.565   8.037   4.320
 2219WAT      O 8238   5.521   7.782   4.592
 2219WAT     H1 8239   5.555   7.866   4.563
 2219WAT     H2 8240   5.427   7.797   4.604
 2220WAT      O 8241   5.599   8.772   4.791
 2220WAT     H1 8242   5.661   8.839   4.763
 2220WAT     H2 8243   5.513   8.812   4.782
 2221WAT      O 8244   5.128   8.691   3.679
 2221WAT     H1 8245   5.091   8.739   3.606
 2221WAT     H2 8246   5.154   8.758   3.742
 2222WAT      O 8247   6.691   8.918   4.582
 2222WAT     H1 8248   6.623   8.985   4.582
 2222WAT     H2 8249   6.745   8.938   4.506
 2223WAT      O 8250   6.836   7.901   4.395
 2223WAT     H1 8251   6.741   7.904   4.408
 2223WAT     H2 8252   6.869   7.982   4.434
 2224WAT      O 8253   5.889   7.531   4.225
 2224WAT     H1 8254   5.920   7.475   4.153
 2224WAT     H2 8255   5.796   7.544   4.206
 2225WAT      O 8256   6.574   8.775   3.963
 2225WAT     H1 8257   6.563   8.680   3.975
 2225WAT     H2 8258   6.574   8.811   4.051
 2226WAT      O 8259   6.384   8.593   4.587
 2226WAT     H1 8260   6.426   8.571   4.503
 2226WAT     H2 8261   6.457   8.618   4.644
 2227WAT      O 8262   6.128   8.337   3.898
 2227WAT     H1 8263   6.035   8.331   3.921
 2227WAT     H2 8264   6.143   8.431   3.887
 2228WAT      O 8265   6.127   7.964   3.598
 2228WAT     H1 8266   6.033   7.980   3.607
 2228WAT     H2 8267   6.159   8.036   3.543
 2229WAT      O 8268   6.779   8.433   4.596
 2229WAT     H1 8269   6.696   8.439   4.548
 2229WAT     H2 8270   6.838   8.491   4.549
 2230WAT      O 8271   6.531   8.493   3.949
 2230WAT     H1 8272   6.469   8.460   3.884
 2230WAT     H2 8273   6.529   8.429   4.019
 2231WAT      O 8274   6.475   8.111   4.690
 2231WAT     H1 8275   6.434   8.194   4.716
 2231WAT     H2 8276   6.402   8.053   4.671
 2232WAT      O 8277   5.689   8.390   4.177
 2232WAT     H1 8278   5.648   8.319   4.127
 2232WAT     H2 8279   5.697   8.355   4.265
 2233WAT      O 8280   5.736   8.758   4.393
 2233WAT     H1 8281   5.706   8.698   4.325
 2233WAT     H2 8282   5.831   8.762   4.382
 2234WAT      O 8283   5.560   8.067   4.555
 2234WAT     H1 8284   5.615   8.078   4.477
 2234WAT     H2 8285   5.611   8.105   4.626
 2235WAT      O 8286   5.645   8.732   5.058
 2235WAT     H1 8287   5.555   8.755   5.083
 2235WAT     H2 8288   5.647   8.745   4.963
 2236WAT      O 8289   6.349   8.417   3.649
 2236WAT     H1 8290   6.393   8.333   3.635
 2236WAT     H2 8291   6.420   8.481   3.658
 2237WAT      O 8292   5.527   8.419   4.916
 2237WAT     H1 8293   5.513   8.507   4.952
 2237WAT     H2 8294   5.439   8.385   4.901
 2238WAT      O 8295   6.160   8.911   4.046
 2238WAT     H1 8296   6.204   8.985   4.005
 2238WAT     H2 8297   6.154   8.935   4.139
 2239WAT      O 8298   5.707   9.014   5.136
 2239WAT     H1 8299   5.704   9.054   5.050
 2239WAT     H2 8300   5.691   8.921   5.120
 2240WAT      O 8301   6.707   7.543   3.481
 2240WAT     H1 8302   6.676   7.552   3.571
 2240WAT     H2 8303   6.783   7.600   3.476
 2241WAT      O 8304   5.359   8.279   3.927
 2241WAT     H1 8305   5.347   8.352   3.865
 2241WAT     H2 8306   5.328   8.202   3.879
 2242WAT      O 8307   5.123   8.596   4.507
 2242WAT     H1 8308   5.130   8.610   4.413
 2242WAT     H2 8309   5.184   8.526   4.527
 2243WAT      O 8310   5.247   8.766   4.148
 2243WAT     H1 8311   5.206   8.781   4.063
 2243WAT     H2 8312   5.336   8.738   4.128
 2244WAT      O 8313   6.843   8.811   4.982
 2244WAT     H1 8314   6.855   8.787   4.890
 2244WAT     H2 8315   6.847   8.728   5.029
 2245WAT      O 8316   6.397   8.961   3.638
 2245WAT     H1 8317   6.327   8.961   3.572
 2245WAT     H2 8318   6.471   8.918   3.595
 2246WAT      O 8319   6.828   8.016   5.079
 2246WAT     H1 8320   6.766   8.067   5.026
 2246WAT     H2 8321   6.796   7.926   5.073
 2247WAT      O 8322   5.128   8.701   4.761
 2247WAT     H1 8323   5.144   8.654   4.679
 2247WAT     H2 8324   5.175   8.650   4.828
 2248WAT      O 8325   5.605   7.614   4.265
 2248WAT     H1 8326   5.561   7.692   4.232
 2248WAT     H2 8327   5.661   7.646   4.336
 2249WAT      O 8328   6.034   7.900   4.825
 2249WAT     H1 8329   5.988   7.921   4.906
 2249WAT     H2 8330   5.994   7.819   4.795
 2250WAT      O 8331   6.534   8.022   4.938
 2250WAT     H1 8332   6.449   7.992   4.970
 2250WAT     H2 8333   6.518   8.047   4.847
 2251WAT      O 8334   6.244   8.172   5.148
 2251WAT     H1 8335   6.276   8.089   5.114
 2251WAT     H2 8336   6.322   8.225   5.163
 2252WAT      O 8337   5.917   7.576   3.753
 2252WAT     H1 8338   5.855   7.575   3.825
 2252WAT     H2 8339   5.908   7.489   3.713
 2253WAT      O 8340   5.809   7.668   4.451
 2253WAT     H1 8341   5.839   7.759   4.443
 2253WAT     H2 8342   5.864   7.619   4.389
 2254WAT      O 8343   5.585   8.126   4.038
 2254WAT     H1 8344   5.562   8.104   4.128
 2254WAT     H2 8345   5.506   8.169   4.003
 2255WAT      O 8346   6.307   8.127   3.898
 2255WAT     H1 8347   6.248   8.199   3.879
 2255WAT     H2 8348   6.362   8.120   3.819
 2256WAT      O 8349   5.829   8.216   5.104
 2256WAT     H1 8350   5.819   8.122   5.089
 2256WAT     H2 8351   5.913   8.238   5.065
 2257WAT      O 8352   6.168   7.990   4.101
 2257WAT     H1 8353   6.207   8.022   4.019
 2257WAT     H2 8354   6.204   7.902   4.112
 2258WAT      O 8355   5.342   7.857   4.920
 2258WAT     H1 8356   5.302   7.942   4.940
 2258WAT     H2 8357   5.273   7.793   4.939
 2259WAT      O 8358   5.999   7.865   5.227
 2259WAT     H1 8359   5.930   7.846   5.290
 2259WAT     H2 8360   6.073   7.894   5.280
 2260WAT      O 8361   5.072   7.649   4.323
 2260WAT     H1 8362   5.043   7.706   4.394
 2260WAT     H2 8363   5.146   7.601   4.359
 2261WAT      O 8364   5.090   8.043   3.444
 2261WAT     H1 8365   5.082   8.138   3.458
 2261WAT     H2 8366   5.055   8.029   3.356
 2262WAT      O 8367   6.227   8.249   4.510
 2262WAT     H1 8368   6.154   8.300   4.545
 2262WAT     H2 8369   6.187   8.168   4.480
 2263WAT      O 8370   5.870   7.917   4.351
 2263WAT     H1 8371   5.871   7.873   4.266
 2263WAT     H2 8372   5.960   7.949   4.361
 2264WAT      O 8373   5.455   7.905   4.247
 2264WAT     H1 8374   5.421   7.953   4.322
 2264WAT     H2 8375   5.379   7.860   4.211
 2265WAT      O 8376   5.877   8.017   3.650
 2265WAT     H1 8377   5.889   8.013   3.745
 2265WAT     H2 8378   5.838   8.103   3.634
 2266WAT      O 8379   6.273   7.795   4.451
 2266WAT     H1 8380   6.275   7.840   4.536
 2266WAT     H2 8381   6.248   7.705   4.473
 2267WAT      O 8382   5.778   8.248   3.590
 2267WAT     H1 8383   5.721   8.203   3.527
 2267WAT     H2 8384   5.849   8.284   3.536
 2268WAT      O 8385   6.616   7.536   5.035
 2268WAT     H1 8386   6.648   7.463   5.088
 2268WAT     H2 8387   6.619   7.504   4.945
 2269WAT      O 8388   5.286   8.638   4.977
 2269WAT     H1 8389   5.247   8.574   5.037
 2269WAT     H2 8390   5.317   8.708   5.034
 2270WAT      O 8391   5.901   8.323   4.525
 2270WAT     H1 8392   5.937   8.275   4.600
 2270WAT     H2 8393   5.882   8.410   4.559
 2271WAT      O 8394   5.187   7.797   4.138
 2271WAT     H1 8395   5.158   7.761   4.222
 2271WAT     H2 8396   5.181   7.724   4.077
 2272WAT      O 8397   5.680   8.227   4.757
 2272WAT     H1 8398   5.649   8.315   4.780
 2272WAT     H2 8399   5.775   8.233   4.761
 2273WAT      O 8400   5.532   8.648   3.817
 2273WAT     H1 8401   5.455   8.594   3.801
 2273WAT     H2 8402   5.605   8.596   3.783
 2274WAT      O 8403   6.608   8.547   4.396
 2274WAT     H1 8404   6.680   8.597   4.357
 2274WAT     H2 8405   6.588   8.479   4.332
 2275WAT      O 8406   6.154   7.687   3.810
 2275WAT     H1 8407   6.073   7.637   3.803
 2275WAT     H2 8408   6.135   7.771   3.769
 2276WAT      O 8409   6.146   8.554   4.985
 2276WAT     H1 8410   6.140   8.462   4.959
 2276WAT     H2 8411   6.083   8.564   5.056
 2277WAT      O 8412   6.426   8.124   3.640
 2277WAT     H1 8413   6.515   8.155   3.622
 2277WAT     H2 8414   6.423   8.036   3.601
 2278WAT      O 8415   5.537   8.614   4.181
 2278WAT     H1 8416   5.589   8.534   4.175
 2278WAT     H2 8417   5.492   8.608   4.265
 2279WAT      O 8418   6.025   8.741   3.708
 2279WAT     H1 8419   6.060   8.815   3.658
 2279WAT     H2 8420   5.943   8.772   3.744
 2280WAT      O 8421   5.285   8.311   4.872
 2280WAT     H1 8422   5.249   8.377   4.931
 2280WAT     H2 8423   5.256   8.228   4.909
 2281WAT      O 8424   5.605   8.357   5.160
 2281WAT     H1 8425   5.575   8.371   5.071
 2281WAT     H2 8426   5.682   8.301   5.151
 2282WAT      O 8427   6.140   8.836   4.960
 2282WAT     H1 8428   6.141   8.743   4.938
 2282WAT     H2 8429   6.069   8.845   5.024
 2283WAT      O 8430   6.653   8.255   3.587
 2283WAT     H1 8431   6.645   8.298   3.502
 2283WAT     H2 8432   6.725   8.301   3.630
 2284WAT      O 8433   6.761   8.501   4.894
 2284WAT     H1 8434   6.688   8.560   4.875
 2284WAT     H2 8435   6.813   8.500   4.815
 2285WAT      O 8436   6.756   8.940   3.860
 2285WAT     H1 8437   6.692   8.875   3.887
 2285WAT     H2 8438   6.717   8.981   3.782
 2286WAT      O 8439   6.314   8.673   4.244
 2286WAT     H1 8440   6.349   8.613   4.178
 2286WAT     H2 8441   6.225   8.641   4.261
 2287WAT      O 8442   5.922   8.749   3.985
 2287WAT     H1 8443   5.991   8.804   4.023
 2287WAT     H2 8444   5.844   8.804   3.989
 2288WAT      O 8445   5.136   8.311   3.534
 2288WAT     H1 8446   5.223   8.339   3.563
 2288WAT     H2 8447   5.087   8.392   3.523
 2289WAT      O 8448   5.853   8.450   3.946
 2289WAT     H1 8449   5.898   8.531   3.969
 2289WAT     H2 8450   5.817   8.418   4.029
 2290WAT      O 8451   6.083   9.001   4.669
 2290WAT     H1 8452   6.147   9.021   4.737
 2290WAT     H2 8453   6.119   8.925   4.624
 2291WAT      O 8454   5.443   7.484   3.993
 2291WAT     H1 8455   5.430   7.483   4.088
 2291WAT     H2 8456   5.360   7.518   3.958
 2292WAT      O 8457   6.210   8.801   4.541
 2292WAT     H1 8458   6.274   8.731   4.552
 2292WAT     H2 8459   6.263   8.879   4.523
 2293WAT      O 8460   6.595   8.829   3.513
 2293WAT     H1 8461   6.572   8.758   3.573
 2293WAT     H2 8462   6.556   8.805   3.430
 2294WAT      O 8463   6.388   8.881   4.861
 2294WAT     H1 8464   6.421   8.940   4.929
 2294WAT     H2 8465   6.296   8.868   4.884
 2295WAT      O 8466   5.143   7.660   4.940
 2295WAT     H1 8467   5.071   7.680   5.000
 2295WAT     H2 8468   5.185   7.582   4.977
 2296WAT      O 8469   6.553   8.621   3.679
 2296WAT     H1 8470   6.524   8.667   3.758
 2296WAT     H2 8471   6.632   8.575   3.706
 2297WAT      O 8472   5.171   9.059   5.038
 2297WAT     H1 8473   5.182   8.965   5.024
 2297WAT     H2 8474   5.106   9.085   4.973
 2298WAT      O 8475   5.971   8.886   5.178
 2298WAT     H1 8476   5.938   8.814   5.233
 2298WAT     H2 8477   5.903   8.953   5.186
 2299WAT      O 8478   5.775   8.970   3.673
 2299WAT     H1 8479   5.774   9.044   3.611
 2299WAT     H2 8480   5.683   8.946   3.682
 2300WAT      O 8481   5.335   8.493   3.747
 2300WAT     H1 8482   5.274   8.567   3.748
 2300WAT     H2 8483   5.382   8.502   3.664
 2301WAT      O 8484   6.292   7.909   4.715
 2301WAT     H1 8485   6.329   7.827   4.747
 2301WAT     H2 8486   6.206   7.915   4.756
 2302WAT      O 8487   6.629   7.805   3.795
 2302WAT     H1 8488   6.566   7.815   3.724
 2302WAT     H2 8489   6.579   7.827   3.874
 2303WAT      O 8490   6.073   8.977   3.539
 2303WAT     H1 8491   6.083   8.956   3.446
 2303WAT     H2 8492   5.983   8.951   3.559
 2304WAT      O 8493   5.826   8.033   3.937
 2304WAT     H1 8494   5.755   8.079   3.981
 2304WAT     H2 8495   5.854   7.967   4.000
 2305WAT      O 8496   5.988   8.175   4.737
 2305WAT     H1 8497   6.038   8.222   4.803
 2305WAT     H2 8498   6.002   8.082   4.758
 2306WAT      O 8499   6.229   7.705   4.081
 2306WAT     H1 8500   6.216   7.707   3.986
 2306WAT     H2 8501   6.324   7.710   4.093
 2307WAT      O 8502   5.646   7.863   3.675
 2307WAT     H1 8503   5.731   7.907   3.668
 2307WAT     H2 8504   5.609   7.895   3.757
 2308WAT      O 8505   6.709   7.796   4.821
 2308WAT     H1 8506   6.658   7.870   4.855
 2308WAT     H2 8507   6.790   7.835   4.790
 2309WAT      O 8508   6.538   8.321   4.166
 2309WAT     H1 8509   6.444   8.322   4.183
 2309WAT     H2 8510   6.569   8.242   4.210
 2310WAT      O 8511   5.536   8.489   3.522
 2310WAT     H1 8512   5.612   8.478   3.578
 2310WAT     H2 8513   5.544   8.419   3.457
 2311WAT      O 8514   5.405   8.232   3.590
 2311WAT     H1 8515   5.413   8.137   3.601
 2311WAT     H2 8516   5.494   8.265   3.601
 2312WAT      O 8517   5.174   8.854   3.888
 2312WAT     H1 8518   5.081   8.878   3.887
 2312WAT     H2 8519   5.220   8.936   3.876
 2313WAT      O 8520   6.270   8.776   5.214
 2313WAT     H1 8521   6.209   8.778   5.140
 2313WAT     H2 8522   6.239   8.703   5.268
 2314WAT      O 8523   5.158   8.414   5.114
 2314WAT     H1 8524   5.208   8.356   5.171
 2314WAT     H2 8525   5.084   8.443   5.168
 2315WAT      O 8526   5.848   8.686   3.469
 2315WAT     H1 8527   5.838   8.625   3.542
 2315WAT     H2 8528   5.831   8.634   3.391
 2316WAT      O 8529   5.863   8.555   5.067
 2316WAT     H1 8530   5.787   8.612   5.059
 2316WAT     H2 8531   5.881   8.526   4.978
 2317WAT      O 8532   6.172   8.592   3.530
 2317WAT     H1 8533   6.117   8.637   3.594
 2317WAT     H2 8534   6.234   8.542   3.582
 2318WAT      O 8535   6.578   8.728   5.123
 2318WAT     H1 8536   6.652   8.762   5.073
 2318WAT     H2 8537   6.501   8.745   5.068
 2319WAT      O 8538   5.361   8.228   5.203
 2319WAT     H1 8539   5.365   8.199   5.294
 2319WAT     H2 8540   5.447   8.268   5.187
 2320WAT      O 8541   5.739   8.488   3.719
 2320WAT     H1 8542   5.781   8.472   3.804
 2320WAT     H2 8543   5.751   8.407   3.670
 2321WAT      O 8544   5.555   8.086   5.000
 2321WAT     H1 8545   5.502   8.037   4.937
 2321WAT     H2 8546   5.622   8.129   4.947
 2322WAT      O 8547   5.990   8.391   3.444
 2322WAT     H1 8548   6.042   8.319   3.407
 2322WAT     H2 8549   6.055   8.455   3.474
 2323WAT      O 8550   6.445   8.533   4.976
 2323WAT     H1 8551   6.486   8.548   5.061
 2323WAT     H2 8552   6.352   8.546   4.993
 2324WAT      O 8553   6.492   8.267   5.177
 2324WAT     H1 8554   6.550   8.192   5.168
 2324WAT     H2 8555   6.510   8.320   5.099
 2325WAT      O 8556   5.604   7.783   5.008
 2325WAT     H1 8557   5.595   7.721   4.936
 2325WAT     H2 8558   5.546   7.856   4.985
 2326WAT      O 8559   5.881   7.639   4.711
 2326WAT     H1 8560   5.836   7.641   4.627
 2326WAT     H2 8561   5.817   7.599   4.771
 2327WAT      O 8562   5.921   8.528   4.773
 2327WAT     H1 8563   5.963   8.613   4.756
 2327WAT     H2 8564   5.829   8.542   4.750
 2328WAT      O 8565   6.155   8.301   4.912
 2328WAT     H1 8566   6.167   8.242   4.986
 2328WAT     H2 8567   6.241   8.305   4.870
 2329WAT      O 8568   6.389   8.357   4.769
 2329WAT     H1 8569   6.336   8.409   4.709
 2329WAT     H2 8570   6.423   8.420   4.832
 2330WAT      O 8571   5.629   8.096   3.414
 2330WAT     H1 8572   5.608   8.009   3.450
 2330WAT     H2 8573   5.611   8.087   3.320
 2331WAT      O 8574   5.832   7.956   5.038
 2331WAT     H1 8575   5.890   7.925   5.106
 2331WAT     H2 8576   5.750   7.908   5.053
 2332WAT      O 8577   6.313   7.917   5.061
 2332WAT     H1 8578   6.245   7.851   5.054
 2332WAT     H2 8579   6.385   7.873   5.105
 2333WAT      O 8580   6.376   7.577   3.667
 2333WAT     H1 8581   6.404   7.492   3.702
 2333WAT     H2 8582   6.299   7.600   3.718
 2334WAT      O 8583   5.508   7.806   3.413
 2334WAT     H1 8584   5.539   7.806   3.322
 2334WAT     H2 8585   5.582   7.771   3.462
 2335WAT      O 8586   5.830   7.700   3.511
 2335WAT     H1 8587   5.795   7.632   3.453
 2335WAT     H2 8588   5.850   7.654   3.593
 2336WAT      O 8589   5.411   8.736   3.496
 2336WAT     H1 8590   5.454   8.790   3.562
 2336WAT     H2 8591   5.459   8.654   3.497
 2337WAT      O 8592   5.132   9.015   4.241
 2337WAT     H1 8593   5.165   8.928   4.218
 2337WAT     H2 8594   5.175   9.036   4.324
 2338WAT      O 8595   5.592   8.848   4.007
 2338WAT     H1 8596   5.562   8.836   4.097
 2338WAT     H2 8597   5.581   8.762   3.966
 2339WAT      O 8598   6.745   9.052   4.944
 2339WAT     H1 8599   6.685   9.058   4.869
 2339WAT     H2 8600   6.758   8.958   4.957
 2340WAT      O 8601   6.869   8.826   3.477
 2340WAT     H1 8602   6.786   8.833   3.525
 2340WAT     H2 8603   6.886   8.915   3.447
 2341WAT      O 8604   6.814   8.501   3.728
 2341WAT     H1 8605   6.890   8.558   3.738
 2341WAT     H2 8606   6.816   8.444   3.805
 2342WAT      O 8607   5.164   8.353   4.151
 2342WAT     H1 8608   5.099   8.326   4.086
 2342WAT     H2 8609   5.248   8.342   4.106
 2343WAT      O 8610   6.915   8.586   4.212
 2343WAT     H1 8611   6.952   8.508   4.172
 2343WAT     H2 8612   6.979   8.655   4.194
 2344WAT      O 8613   6.613   8.724   4.754
 2344WAT     H1 8614   6.532   8.767   4.780
 2344WAT     H2 8615   6.654   8.786   4.692
 2345WAT      O 8616   6.819   8.530   3.444
 2345WAT     H1 8617   6.847   8.621   3.431
 2345WAT     H2 8618   6.801   8.524   3.537
 2346WAT      O 8619   6.459   7.832   3.573
 2346WAT     H1 8620   6.501   7.814   3.489
 2346WAT     H2 8621   6.429   7.747   3.604
 2347WAT      O 8622   6.809   8.324   3.943
 2347WAT     H1 8623   6.772   8.247   3.900
 2347WAT     H2 8624   6.736   8.362   3.992
 2348WAT      O 8625   5.268   8.391   4.605
 2348WAT     H1 8626   5.305   8.383   4.693
 2348WAT     H2 8627   5.211   8.315   4.595
 2349WAT      O 8628   6.748   8.238   4.906
 2349WAT     H1 8629   6.725   8.215   4.816
 2349WAT     H2 8630   6.774   8.330   4.902
 2350WAT      O 8631   5.223   8.083   4.995
 2350WAT     H1 8632   5.134   8.079   5.029
 2350WAT     H2 8633   5.277   8.102   5.072
 2351WAT      O 8634   6.592   7.761   5.184
 2351WAT     H1 8635   6.680   7.762   5.222
 2351WAT     H2 8636   6.593   7.687   5.123
 2352WAT      O 8637   5.086   8.074   3.745
 2352WAT     H1 8638   4.995   8.100   3.728
 2352WAT     H2 8639   5.134   8.101   3.667
 2353WAT      O 8640   6.737   8.146   4.273
 2353WAT     H1 8641   6.789   8.097   4.210
 2353WAT     H2 8642   6.795   8.160   4.347
 2354WAT      O 8643   6.755   8.155   4.625
 2354WAT     H1 8644   6.660   8.151   4.637
 2354WAT     H2 8645   6.773   8.246   4.602
 2355WAT      O 8646   5.340   7.980   3.536
 2355WAT     H1 8647   5.411   7.937   3.488
 2355WAT     H2 8648   5.268   7.986   3.473
 2356WAT      O 8649   5.305   7.585   3.440
 2356WAT     H1 8650   5.377   7.639   3.472
 2356WAT     H2 8651   5.332   7.558   3.353
 2357WAT      O 8652   6.686   8.072   3.867
 2357WAT     H1 8653   6.735   8.049   3.945
 2357WAT     H2 8654   6.666   7.988   3.825
 2358WAT      O 8655   5.274   7.510   4.430
 2358WAT     H1 8656   5.338   7.455   4.386
 2358WAT     H2 8657   5.316   7.535   4.512
 2359WAT      O 8658   6.828   7.935   4.120
 2359WAT     H1 8659   6.817   7.920   4.214
 2359WAT     H2 8660   6.905   7.883   4.096
 2360WAT      O 8661   6.663   7.529   4.766
 2360WAT     H1 8662   6.727   7.591   4.803
 2360WAT     H2 8663   6.678   7.533   4.672
 2361WAT      O 8664   6.917   7.719   3.444
 2361WAT     H1 8665   7.010   7.705   3.423
 2361WAT     H2 8666   6.915   7.727   3.540
 2362WAT      O 8667   6.925   7.796   3.707
 2362WAT     H1 8668   6.845   7.789   3.760
 2362WAT     H2 8669   6.945   7.889   3.706
 2363WAT      O 8670   5.249   7.526   4.705
 2363WAT     H1 8671   5.214   7.571   4.781
 2363WAT     H2 8672   5.216   7.436   4.713
 2364WAT      O 8673   5.410   8.843   5.121
 2364WAT     H1 8674   5.405   8.806   5.209
 2364WAT     H2 8675   5.423   8.937   5.135
 2365WAT      O 8676   5.780   8.998   4.681
 2365WAT     H1 8677   5.756   9.025   4.593
 2365WAT     H2 8678   5.874   9.015   4.687
 2366WAT      O 8679   6.000   7.645   5.057
 2366WAT     H1 8680   5.994   7.704   5.132
 2366WAT     H2 8681   6.094   7.634   5.042
 2367WAT      O 8682   6.264   7.610   5.021
 2367WAT     H1 8683   6.325   7.642   4.955
 2367WAT     H2 8684   6.318   7.562   5.083
 2368WAT      O 8685   5.316   7.478   5.032
 2368WAT     H1 8686   5.371   7.460   4.956
 2368WAT     H2 8687   5.323   7.399   5.086
 2369WAT      O 8688   6.338   7.467   4.653
 2369WAT     H1 8689   6.251   7.500   4.633
 2369WAT     H2 8690   6.327   7.419   4.736
 2370WAT      O 8691   6.429   7.687   4.792
 2370WAT     H1 8692   6.396   7.606   4.754
 2370WAT     H2 8693   6.524   7.683   4.779
 2371WAT      O 8694   5.357   8.874   4.728
 2371WAT     H1 8695   5.284   8.812   4.721
 2371WAT     H2 8696   5.363   8.913   4.641
 2372WAT      O 8697   6.113   7.558   4.547
 2372WAT     H1 8698   6.034   7.606   4.575
 2372WAT     H2 8699   6.083   7.468   4.536
 2373WAT      O 8700   6.568   7.629   4.352
 2373WAT     H1 8701   6.612   7.623   4.267
 2373WAT     H2 8702   6.541   7.720   4.359
 2374WAT      O 8703   6.754   7.592   4.153
 2374WAT     H1 8704   6.748   7.497   4.138
 2374WAT     H2 8705   6.832   7.603   4.207
 2375WAT      O 8706   5.247   7.589   3.799
 2375WAT     H1 8707   5.323   7.600   3.742
 2375WAT     H2 8708   5.201   7.673   3.795
 2376WAT      O 8709   5.901   7.800   4.098
 2376WAT     H1 8710   5.820   7.763   4.064
 2376WAT     H2 8711   5.952   7.725   4.129
 2377WAT      O 8712   6.352   7.467   4.222
 2377WAT     H1 8713   6.412   7.524   4.270
 2377WAT     H2 8714   6.277   7.523   4.200
 2378WAT      O 8715   6.666   7.507   3.750
 2378WAT     H1 8716   6.685   7.597   3.776
 2378WAT     H2 8717   6.587   7.484   3.799
 2379WAT      O 8718   5.484   7.642   3.653
 2379WAT     H1 8719   5.537   7.563   3.641
 2379WAT     H2 8720   5.548   7.709   3.677
 2380WAT      O 8721   5.704   7.615   3.959
 2380WAT     H1 8722   5.641   7.545   3.976
 2380WAT     H2 8723   5.650   7.691   3.937
 2381WAT      O 8724   5.716   7.543   5.202
 2381WAT     H1 8725   5.688   7.593   5.126
 2381WAT     H2 8726   5.755   7.463   5.166
 2382WAT      O 8727   5.522   8.882   3.682
 2382WAT     H1 8728   5.459   8.928   3.736
 2382WAT     H2 8729   5.533   8.797   3.725
 2383WAT      O 8730   6.376   7.485   5.260
 2383WAT     H1 8731   6.365   7.517   5.350
 2383WAT     H2 8732   6.458   7.525   5.231
 2384WAT      O 8733   6.267   8.287   2.297
 2384WAT     H1 8734   6.259   8.195   2.270
 2384WAT     H2 8735   6.226   8.336   2.226
 2385WAT      O 8736   6.080   8.464   2.485
 2385WAT     H1 8737   6.003   8.416   2.514
 2385WAT     H2 8738   6.145   8.396   2.467
 2386WAT      O 8739   5.482   8.496   2.572
 2386WAT     H1 8740   5.399   8.470   2.612
 2386WAT     H2 8741   5.543   8.503   2.646
 2387WAT      O 8742   6.482   8.905   2.363
 2387WAT     H1 8743   6.436   8.828   2.396
 2387WAT     H2 8744   6.564   8.908   2.413
 2388WAT      O 8745   5.480   8.899   2.592
 2388WAT     H1 8746   5.510   8.810   2.574
 2388WAT     H2 8747   5.554   8.955   2.569
 2389WAT      O 8748   5.323   7.992   1.951
 2389WAT     H1 8749   5.234   8.026   1.941
 2389WAT     H2 8750   5.351   7.972   1.862
 2390WAT      O 8751   5.119   8.252   2.539
 2390WAT     H1 8752   5.176   8.175   2.539
 2390WAT     H2 8753   5.119   8.282   2.448
 2391WAT      O 8754   6.024   8.732   2.485
 2391WAT     H1 8755   6.017   8.638   2.469
 2391WAT     H2 8756   6.101   8.741   2.543
 2392WAT      O 8757   5.243   7.792   2.718
 2392WAT     H1 8758   5.225   7.703   2.746
 2392WAT     H2 8759   5.203   7.847   2.785
 2393WAT      O 8760   6.127   8.013   2.508
 2393WAT     H1 8761   6.165   7.925   2.497
 2393WAT     H2 8762   6.118   8.046   2.419
 2394WAT      O 8763   5.540   7.850   2.054
 2394WAT     H1 8764   5.551   7.940   2.085
 2394WAT     H2 8765   5.449   7.845   2.025
 2395WAT      O 8766   6.506   7.762   2.201
 2395WAT     H1 8767   6.588   7.713   2.206
 2395WAT     H2 8768   6.509   7.821   2.277
 2396WAT      O 8769   5.305   8.042   2.579
 2396WAT     H1 8770   5.373   8.068   2.641
 2396WAT     H2 8771   5.274   7.958   2.612
 2397WAT      O 8772   5.725   8.147   2.488
 2397WAT     H1 8773   5.775   8.197   2.552
 2397WAT     H2 8774   5.778   8.069   2.470
 2398WAT      O 8775   6.935   7.964   2.858
 2398WAT     H1 8776   6.864   8.003   2.806
 2398WAT     H2 8777   6.961   8.033   2.918
 2399WAT      O 8778   5.553   7.611   2.914
 2399WAT     H1 8779   5.553   7.662   2.834
 2399WAT     H2 8780   5.470   7.563   2.912
 2400WAT      O 8781   6.192   8.622   2.064
 2400WAT     H1 8782   6.130   8.668   2.008
 2400WAT     H2 8783   6.243   8.691   2.106
 2401WAT      O 8784   5.678   8.575   2.732
 2401WAT     H1 8785   5.645   8.637   2.796
 2401WAT     H2 8786   5.696   8.627   2.654
 2402WAT      O 8787   6.529   7.956   2.479
 2402WAT     H1 8788   6.459   7.985   2.537
 2402WAT     H2 8789   6.565   8.037   2.443
 2403WAT      O 8790   5.521   7.782   2.715
 2403WAT     H1 8791   5.555   7.866   2.685
 2403WAT     H2 8792   5.427   7.797   2.727
 2404WAT      O 8793   5.599   8.772   2.913
 2404WAT     H1 8794   5.661   8.839   2.885
 2404WAT     H2 8795   5.513   8.812   2.904
 2405WAT      O 8796   5.128   8.691   1.801
 2405WAT     H1 8797   5.091   8.739   1.728
 2405WAT     H2 8798   5.154   8.758   1.865
 2406WAT      O 8799   6.691   8.918   2.705
 2406WAT     H1 8800   6.623   8.985   2.704
 2406WAT     H2 8801   6.745   8.938   2.628
 2407WAT      O 8802   6.836   7.901   2.518
 2407WAT     H1 8803   6.741   7.904   2.531
 2407WAT     H2 8804   6.869   7.982   2.556
 2408WAT      O 8805   5.889   7.531   2.347
 2408WAT     H1 8806   5.920   7.475   2.276
 2408WAT     H2 8807   5.796   7.544   2.329
 2409WAT      O 8808   6.574   8.775   2.085
 2409WAT     H1 8809   6.563   8.680   2.098
 2409WAT     H2 8810   6.574   8.811   2.174
 2410WAT      O 8811   6.384   8.593   2.709
 2410WAT     H1 8812   6.426   8.571   2.626
 2410WAT     H2 8813   6.457   8.618   2.766
 2411WAT      O 8814   6.128   8.337   2.021
 2411WAT     H1 8815   6.035   8.331   2.044
 2411WAT     H2 8816   6.143   8.431   2.009
 2412WAT      O 8817   6.127   7.964   1.721
 2412WAT     H1 8818   6.033   7.980   1.729
 2412WAT     H2 8819   6.159   8.036   1.666
 2413WAT      O 8820   6.779   8.433   2.718
 2413WAT     H1 8821   6.696   8.439   2.671
 2413WAT     H2 8822   6.838   8.491   2.672
 2414WAT      O 8823   6.531   8.493   2.071
 2414WAT     H1 8824   6.469   8.460   2.007
 2414WAT     H2 8825   6.529   8.429   2.142
 2415WAT      O 8826   6.475   8.111   2.813
 2415WAT     H1 8827   6.434   8.194   2.838
 2415WAT     H2 8828   6.402   8.053   2.794
 2416WAT      O 8829   5.689   8.390   2.299
 2416WAT     H1 8830   5.648   8.319   2.250
 2416WAT     H2 8831   5.697   8.355   2.388
 2417WAT      O 8832   5.736   8.758   2.515
 2417WAT     H1 8833   5.706   8.698   2.448
 2417WAT     H2 8834   5.831   8.762   2.504
 2418WAT      O 8835   5.560   8.067   2.677
 2418WAT     H1 8836   5.615   8.078   2.600
 2418WAT     H2 8837   5.611   8.105   2.749
 2419WAT      O 8838   5.645   8.732   3.181
 2419WAT     H1 8839   5.555   8.755   3.205
 2419WAT     H2 8840   5.647   8.745   3.086
 2420WAT      O 8841   6.349   8.417   1.772
 2420WAT     H1 8842   6.393   8.333   1.757
 2420WAT     H2 8843   6.420   8.481   1.781
 2421WAT      O 8844   5.527   8.419   3.038
 2421WAT     H1 8845   5.513   8.507   3.075
 2421WAT     H2 8846   5.439   8.385   3.024
 2422WAT      O 8847   6.160   8.911   2.169
 2422WAT     H1 8848   6.204   8.985   2.127
 2422WAT     H2 8849   6.154   8.935   2.261
 2423WAT      O 8850   5.707   9.014   3.259
 2423WAT     H1 8851   5.704   9.054   3.172
 2423WAT     H2 8852   5.691   8.921   3.243
 2424WAT      O 8853   6.707   7.543   1.603
 2424WAT     H1 8854   6.676   7.552   1.693
 2424WAT     H2 8855   6.783   7.600   1.598
 2425WAT      O 8856   5.359   8.279   2.049
 2425WAT     H1 8857   5.347   8.352   1.988
 2425WAT     H2 8858   5.328   8.202   2.001
 2426WAT      O 8859   5.123   8.596   2.630
 2426WAT     H1 8860   5.130   8.610   2.535
 2426WAT     H2 8861   5.184   8.526   2.649
 2427WAT      O 8862   5.247   8.766   2.271
 2427WAT     H1 8863   5.206   8.781   2.185
 2427WAT     H2 8864   5.336   8.738   2.251
 2428WAT      O 8865   6.843   8.811   3.105
 2428WAT     H1 8866   6.855   8.787   3.013
 2428WAT     H2 8867   6.847   8.728   3.152
 2429WAT      O 8868   6.397   8.961   1.760
 2429WAT     H1 8869   6.327   8.961   1.694
 2429WAT     H2 8870   6.471   8.918   1.717
 2430WAT      O 8871   6.828   8.016   3.201
 2430WAT     H1 8872   6.766   8.067   3.148
 2430WAT     H2 8873   6.796   7.926   3.195
 2431WAT      O 8874   5.128   8.701   2.884
 2431WAT     H1 8875   5.144   8.654   2.802
 2431WAT     H2 8876   5.175   8.650   2.950
 2432WAT      O 8877   5.605   7.614   2.387
 2432WAT     H1 8878   5.561   7.692   2.354
 2432WAT     H2 8879   5.661   7.646   2.458
 2433WAT      O 8880   6.034   7.900   2.948
 2433WAT     H1 8881   5.988   7.921   3.029
 2433WAT     H2 8882   5.994   7.819   2.917
 2434WAT      O 8883   6.534   8.022   3.061
 2434WAT     H1 8884   6.449   7.992   3.093
 2434WAT     H2 8885   6.518   8.047   2.970
 2435WAT      O 8886   6.244   8.172   3.271
 2435WAT     H1 8887   6.276   8.089   3.237
 2435WAT     H2 8888   6.322   8.225   3.285
 2436WAT      O 8889   5.917   7.576   1.875
 2436WAT     H1 8890   5.855   7.575   1.948
 2436WAT     H2 8891   5.908   7.489   1.836
 2437WAT      O 8892   5.809   7.668   2.573
 2437WAT     H1 8893   5.839   7.759   2.565
 2437WAT     H2 8894   5.864   7.619   2.512
 2438WAT      O 8895   5.585   8.126   2.160
 2438WAT     H1 8896   5.562   8.104   2.251
 2438WAT     H2 8897   5.506   8.169   2.126
 2439WAT      O 8898   6.307   8.127   2.020
 2439WAT     H1 8899   6.248   8.199   2.002
 2439WAT     H2 8900   6.362   8.120   1.942
 2440WAT      O 8901   5.829   8.216   3.227
 2440WAT     H1 8902   5.819   8.122   3.212
 2440WAT     H2 8903   5.913   8.238   3.187
 2441WAT      O 8904   6.168   7.990   2.223
 2441WAT     H1 8905   6.207   8.022   2.142
 2441WAT     H2 8906   6.204   7.902   2.235
 2442WAT      O 8907   5.342   7.857   3.042
 2442WAT     H1 8908   5.302   7.942   3.063
 2442WAT     H2 8909   5.273   7.793   3.061
 2443WAT      O 8910   5.999   7.865   3.349
 2443WAT     H1 8911   5.930   7.846   3.413
 2443WAT     H2 8912   6.073   7.894   3.402
 2444WAT      O 8913   5.072   7.649   2.445
 2444WAT     H1 8914   5.043   7.706   2.517
 2444WAT     H2 8915   5.146   7.601   2.482
 2445WAT      O 8916   5.090   8.043   1.566
 2445WAT     H1 8917   5.082   8.138   1.581
 2445WAT     H2 8918   5.055   8.029   1.479
 2446WAT      O 8919   6.227   8.249   2.633
 2446WAT     H1 8920   6.154   8.300   2.668
 2446WAT     H2 8921   6.187   8.168   2.603
 2447WAT      O 8922   5.870   7.917   2.473
 2447WAT     H1 8923   5.871   7.873   2.388
 2447WAT     H2 8924   5.960   7.949   2.484
 2448WAT      O 8925   5.455   7.905   2.369
 2448WAT     H1 8926   5.421   7.953   2.445
 2448WAT     H2 8927   5.379   7.860   2.333
 2449WAT      O 8928   5.877   8.017   1.772
 2449WAT     H1 8929   5.889   8.013   1.867
 2449WAT     H2 8930   5.838   8.103   1.757
 2450WAT      O 8931   6.273   7.795   2.574
 2450WAT     H1 8932   6.275   7.840   2.658
 2450WAT     H2 8933   6.248   7.705   2.595
 2451WAT      O 8934   5.778   8.248   1.712
 2451WAT     H1 8935   5.721   8.203   1.649
 2451WAT     H2 8936   5.849   8.284   1.659
 2452WAT      O 8937   6.616   7.536   3.158
 2452WAT     H1 8938   6.648   7.463   3.210
 2452WAT     H2 8939   6.619   7.504   3.068
 2453WAT      O 8940   5.286   8.638   3.100
 2453WAT     H1 8941   5.247   8.574   3.160
 2453WAT     H2 8942   5.317   8.708   3.157
 2454WAT      O 8943   5.901   8.323   2.648
 2454WAT     H1 8944   5.937   8.275   2.722
 2454WAT     H2 8945   5.882   8.410   2.682
 2455WAT      O 8946   5.187   7.797   2.261
 2455WAT     H1 8947   5.158   7.761   2.345
 2455WAT     H2 8948   5.181   7.724   2.199
 2456WAT      O 8949   5.680   8.227   2.880
 2456WAT     H1 8950   5.649   8.315   2.902
 2456WAT     H2 8951   5.775   8.233   2.883
 2457WAT      O 8952   5.532   8.648   1.939
 2457WAT     H1 8953   5.455   8.594   1.923
 2457WAT     H2 8954   5.605   8.596   1.906
 2458WAT      O 8955   6.608   8.547   2.519
 2458WAT     H1 8956   6.680   8.597   2.480
 2458WAT     H2 8957   6.588   8.479   2.454
 2459WAT      O 8958   6.154   7.687   1.933
 2459WAT     H1 8959   6.073   7.637   1.925
 2459WAT     H2 8960   6.135   7.771   1.891
 2460WAT      O 8961   6.146   8.554   3.107
 2460WAT     H1 8962   6.140   8.462   3.082
 2460WAT     H2 8963   6.083   8.564   3.179
 2461WAT      O 8964   6.426   8.124   1.763
 2461WAT     H1 8965   6.515   8.155   1.745
 2461WAT     H2 8966   6.423   8.036   1.723
 2462WAT      O 8967   5.537   8.614   2.303
 2462WAT     H1 8968   5.589   8.534   2.298
 2462WAT     H2 8969   5.492   8.608   2.387
 2463WAT      O 8970   6.025   8.741   1.830
 2463WAT     H1 8971   6.060   8.815   1.781
 2463WAT     H2 8972   5.943   8.772   1.867
 2464WAT      O 8973   5.285   8.311   2.994
 2464WAT     H1 8974   5.249   8.377   3.053
 2464WAT     H2 8975   5.256   8.228   3.032
 2465WAT      O 8976   5.605   8.357   3.283
 2465WAT     H1 8977   5.575   8.371   3.193
 2465WAT     H2 8978   5.682   8.301   3.274
 2466WAT      O 8979   6.140   8.836   3.082
 2466WAT     H1 8980   6.141   8.743   3.061
 2466WAT     H2 8981   6.069   8.845   3.146
 2467WAT      O 8982   6.653   8.255   1.709
 2467WAT     H1 8983   6.645   8.298   1.624
 2467WAT     H2 8984   6.725   8.301   1.753
 2468WAT      O 8985   6.761   8.501   3.017
 2468WAT     H1 8986   6.688   8.560   2.997
 2468WAT     H2 8987   6.813   8.500   2.937
 2469WAT      O 8988   6.756   8.940   1.982
 2469WAT     H1 8989   6.692   8.875   2.010
 2469WAT     H2 8990   6.717   8.981   1.905
 2470WAT      O 8991   6.314   8.673   2.367
 2470WAT     H1 8992   6.349   8.613   2.301
 2470WAT     H2 8993   6.225   8.641   2.384
 2471WAT      O 8994   5.922   8.749   2.108
 2471WAT     H1 8995   5.991   8.804   2.146
 2471WAT     H2 8996   5.844   8.804   2.111
 2472WAT      O 8997   5.136   8.311   1.657
 2472WAT     H1 8998   5.223   8.339   1.685
 2472WAT     H2 8999   5.087   8.392   1.645
 2473WAT      O 9000   5.853   8.450   2.069
 2473WAT     H1 9001   5.898   8.531   2.091
 2473WAT     H2 9002   5.817   8.418   2.152
 2474WAT      O 9003   6.083   9.001   2.792
 2474WAT     H1 9004   6.147   9.021   2.859
 2474WAT     H2 9005   6.119   8.925   2.746
 2475WAT      O 9006   5.443   7.484   2.116
 2475WAT     H1 9007   5.430   7.483   2.211
 2475WAT     H2 9008   5.360   7.518   2.081
 2476WAT      O 9009   6.210   8.801   2.664
 2476WAT     H1 9010   6.274   8.731   2.675
 2476WAT     H2 9011   6.263   8.879   2.645
 2477WAT      O 9012   6.595   8.829   1.636
 2477WAT     H1 9013   6.572   8.758   1.695
 2477WAT     H2 9014   6.556   8.805   1.552
 2478WAT      O 9015   6.388   8.881   2.984
 2478WAT     H1 9016   6.421   8.940   3.052
 2478WAT     H2 9017   6.296   8.868   3.007
 2479WAT      O 9018   5.143   7.660   3.062
 2479WAT     H1 9019   5.071   7.680   3.123
 2479WAT     H2 9020   5.185   7.582   3.099
 2480WAT      O 9021   6.553   8.621   1.802
 2480WAT     H1 9022   6.524   8.667   1.881
 2480WAT     H2 9023   6.632   8.575   1.829
 2481WAT      O 9024   5.171   9.059   3.161
 2481WAT     H1 9025   5.182   8.965   3.147
 2481WAT     H2 9026   5.106   9.085   3.096
 2482WAT      O 9027   5.971   8.886   3.301
 2482WAT     H1 9028   5.938   8.814   3.355
 2482WAT     H2 9029   5.903   8.953   3.308
 2483WAT      O 9030   5.775   8.970   1.795
 2483WAT     H1 9031   5.774   9.044   1.734
 2483WAT     H2 9032   5.683   8.946   1.804
 2484WAT      O 9033   5.335   8.493   1.870
 2484WAT     H1 9034   5.274   8.567   1.871
 2484WAT     H2 9035   5.382   8.502   1.787
 2485WAT      O 9036   6.292   7.909   2.837
 2485WAT     H1 9037   6.329   7.827   2.870
 2485WAT     H2 9038   6.206   7.915   2.879
 2486WAT      O 9039   6.629   7.805   1.918
 2486WAT     H1 9040   6.566   7.815   1.847
 2486WAT     H2 9041   6.579   7.827   1.997
 2487WAT      O 9042   6.073   8.977   1.661
 2487WAT     H1 9043   6.083   8.956   1.568
 2487WAT     H2 9044   5.983   8.951   1.682
 2488WAT      O 9045   5.826   8.033   2.060
 2488WAT     H1 9046   5.755   8.079   2.104
 2488WAT     H2 9047   5.854   7.967   2.123
 2489WAT      O 9048   5.988   8.175   2.860
 2489WAT     H1 9049   6.038   8.222   2.926
 2489WAT     H2 9050   6.002   8.082   2.880
 2490WAT      O 9051   6.229   7.705   2.204
 2490WAT     H1 9052   6.216   7.707   2.109
 2490WAT     H2 9053   6.324   7.710   2.216
 2491WAT      O 9054   5.646   7.863   1.797
 2491WAT     H1 9055   5.731   7.907   1.790
 2491WAT     H2 9056   5.609   7.895   1.880
 2492WAT      O 9057   6.709   7.796   2.944
 2492WAT     H1 9058   6.658   7.870   2.978
 2492WAT     H2 9059   6.790   7.835   2.912
 2493WAT      O 9060   6.538   8.321   2.288
 2493WAT     H1 9061   6.444   8.322   2.306
 2493WAT     H2 9062   6.569   8.242   2.333
 2494WAT      O 9063   5.536   8.489   1.644
 2494WAT     H1 9064   5.612   8.478   1.701
 2494WAT     H2 9065   5.544   8.419   1.579
 2495WAT      O 9066   5.405   8.232   1.713
 2495WAT     H1 9067   5.413   8.137   1.724
 2495WAT     H2 9068   5.494   8.265   1.723
 2496WAT      O 9069   5.174   8.854   2.011
 2496WAT     H1 9070   5.081   8.878   2.010
 2496WAT     H2 9071   5.220   8.936   1.998
 2497WAT      O 9072   6.270   8.776   3.337
 2497WAT     H1 9073   6.209   8.778   3.263
 2497WAT     H2 9074   6.239   8.703   3.390
 2498WAT      O 9075   5.158   8.414   3.236
 2498WAT     H1 9076   5.208   8.356   3.294
 2498WAT     H2 9077   5.084   8.443   3.290
 2499WAT      O 9078   5.848   8.686   1.592
 2499WAT     H1 9079   5.838   8.625   1.664
 2499WAT     H2 9080   5.831   8.634   1.513
 2500WAT      O 9081   5.863   8.555   3.190
 2500WAT     H1 9082   5.787   8.612   3.181
 2500WAT     H2 9083   5.881   8.526   3.100
 2501WAT      O 9084   6.172   8.592   1.652
 2501WAT     H1 9085   6.117   8.637   1.717
 2501WAT     H2 9086   6.234   8.542   1.705
 2502WAT      O 9087   6.578   8.728   3.245
 2502WAT     H1 9088   6.652   8.762   3.195
 2502WAT     H2 9089   6.501   8.745   3.190
 2503WAT      O 9090   5.361   8.228   3.326
 2503WAT     H1 9091   5.365   8.199   3.417
 2503WAT     H2 9092   5.447   8.268   3.310
 2504WAT      O 9093   5.739   8.488   1.842
 2504WAT     H1 9094   5.781   8.472   1.926
 2504WAT     H2 9095   5.751   8.407   1.792
 2505WAT      O 9096   5.555   8.086   3.123
 2505WAT     H1 9097   5.502   8.037   3.060
 2505WAT     H2 9098   5.622   8.129   3.069
 2506WAT      O 9099   5.990   8.391   1.567
 2506WAT     H1 9100   6.042   8.319   1.530
 2506WAT     H2 9101   6.055   8.455   1.597
 2507WAT      O 9102   6.445   8.533   3.099
 2507WAT     H1 9103   6.486   8.548   3.184
 2507WAT     H2 9104   6.352   8.546   3.115
 2508WAT      O 9105   6.492   8.267   3.299
 2508WAT     H1 9106   6.550   8.192   3.291
 2508WAT     H2 9107   6.510   8.320   3.222
 2509WAT      O 9108   5.604   7.783   3.131
 2509WAT     H1 9109   5.595   7.721   3.058
 2509WAT     H2 9110   5.546   7.856   3.108
 2510WAT      O 9111   5.881   7.639   2.834
 2510WAT     H1 9112   5.836   7.641   2.749
 2510WAT     H2 9113   5.817   7.599   2.894
 2511WAT      O 9114   5.921   8.528   2.896
 2511WAT     H1 9115   5.963   8.613   2.879
 2511WAT     H2 9116   5.829   8.542   2.873
 2512WAT      O 9117   6.155   8.301   3.034
 2512WAT     H1 9118   6.167   8.242   3.108
 2512WAT     H2 9119   6.241   8.305   2.992
 2513WAT      O 9120   6.389   8.357   2.892
 2513WAT     H1 9121   6.336   8.409   2.832
 2513WAT     H2 9122   6.423   8.420   2.955
 2514WAT      O 9123   5.629   8.096   1.536
 2514WAT     H1 9124   5.608   8.009   1.573
 2514WAT     H2 9125   5.611   8.087   1.443
 2515WAT      O 9126   5.832   7.956   3.160
 2515WAT     H1 9127   5.890   7.925   3.229
 2515WAT     H2 9128   5.750   7.908   3.176
 2516WAT      O 9129   6.313   7.917   3.183
 2516WAT     H1 9130   6.245   7.851   3.177
 2516WAT     H2 9131   6.385   7.873   3.228
 2517WAT      O 9132   6.376   7.577   1.789
 2517WAT     H1 9133   6.404   7.492   1.825
 2517WAT     H2 9134   6.299   7.600   1.841
 2518WAT      O 9135   5.508   7.806   1.535
 2518WAT     H1 9136   5.539   7.806   1.444
 2518WAT     H2 9137   5.582   7.771   1.585
 2519WAT      O 9138   5.830   7.700   1.634
 2519WAT     H1 9139   5.795   7.632   1.576
 2519WAT     H2 9140   5.850   7.654   1.715
 2520WAT      O 9141   5.411   8.736   1.619
 2520WAT     H1 9142   5.454   8.790   1.684
 2520WAT     H2 9143   5.459   8.654   1.619
 2521WAT      O 9144   5.132   9.015   2.364
 2521WAT     H1 9145   5.165   8.928   2.341
 2521WAT     H2 9146   5.175   9.036   2.447
 2522WAT      O 9147   5.592   8.848   2.130
 2522WAT     H1 9148   5.562   8.836   2.220
 2522WAT     H2 9149   5.581   8.762   2.089
 2523WAT      O 9150   6.745   9.052   3.066
 2523WAT     H1 9151   6.685   9.058   2.992
 2523WAT     H2 9152   6.758   8.958   3.079
 2524WAT      O 9153   6.869   8.826   1.600
 2524WAT     H1 9154   6.786   8.833   1.647
 2524WAT     H2 9155   6.886   8.915   1.570
 2525WAT      O 9156   6.814   8.501   1.850
 2525WAT     H1 9157   6.890   8.558   1.861
 2525WAT     H2 9158   6.816   8.444   1.927
 2526WAT      O 9159   5.164   8.353   2.273
 2526WAT     H1 9160   5.099   8.326   2.209
 2526WAT     H2 9161   5.248   8.342   2.228
 2527WAT      O 9162   6.915   8.586   2.335
 2527WAT     H1 9163   6.952   8.508   2.294
 2527WAT     H2 9164   6.979   8.655   2.317
 2528WAT      O 9165   6.613   8.724   2.876
 2528WAT     H1 9166   6.532   8.767   2.902
 2528WAT     H2 9167   6.654   8.786   2.815
 2529WAT      O 9168   6.819   8.530   1.566
 2529WAT     H1 9169   6.847   8.621   1.553
 2529WAT     H2 9170   6.801   8.524   1.660
 2530WAT      O 9171   6.459   7.832   1.696
 2530WAT     H1 9172   6.501   7.814   1.612
 2530WAT     H2 9173   6.429   7.747   1.727
 2531WAT      O 9174   6.809   8.324   2.065
 2531WAT     H1 9175   6.772   8.247   2.022
 2531WAT     H2 9176   6.736   8.362   2.114
 2532WAT      O 9177   5.268   8.391   2.727
 2532WAT     H1 9178   5.305   8.383   2.815
 2532WAT     H2 9179   5.211   8.315   2.718
 2533WAT      O 9180   6.748   8.238   3.029
 2533WAT     H1 9181   6.725   8.215   2.939
 2533WAT     H2 9182   6.774   8.330   3.024
 2534WAT      O 9183   5.223   8.083   3.118
 2534WAT     H1 9184   5.134   8.079   3.152
 2534WAT     H2 9185   5.277   8.102   3.195
 2535WAT      O 9186   6.592   7.761   3.307
 2535WAT     H1 9187   6.680   7.762   3.345
 2535WAT     H2 9188   6.593   7.687   3.246
 2536WAT      O 9189   5.086   8.074   1.868
 2536WAT     H1 9190   4.995   8.100   1.850
 2536WAT     H2 9191   5.134   8.101   1.790
 2537WAT      O 9192   6.737   8.146   2.395
 2537WAT     H1 9193   6.789   8.097   2.332
 2537WAT     H2 9194   6.795   8.160   2.470
 2538WAT      O 9195   6.755   8.155   2.748
 2538WAT     H1 9196   6.660   8.151   2.759
 2538WAT     H2 9197   6.773   8.246   2.724
 2539WAT      O 9198   5.340   7.980   1.659
 2539WAT     H1 9199   5.411   7.937   1.610
 2539WAT     H2 9200   5.268   7.986   1.595
 2540WAT      O 9201   5.305   7.585   1.563
 2540WAT     H1 9202   5.377   7.639   1.594
 2540WAT     H2 9203   5.332   7.558   1.475
 2541WAT      O 9204   6.686   8.072   1.989
 2541WAT     H1 9205   6.735   8.049   2.068
 2541WAT     H2 9206   6.666   7.988   1.948
 2542WAT      O 9207   5.274   7.510   2.553
 2542WAT     H1 9208   5.338   7.455   2.509
 2542WAT     H2 9209   5.316   7.535   2.635
 2543WAT      O 9210   6.828   7.935   2.243
 2543WAT     H1 9211   6.817   7.920   2.337
 2543WAT     H2 9212   6.905   7.883   2.219
 2544WAT      O 9213   6.663   7.529   2.889
 2544WAT     H1 9214   6.727   7.591   2.925
 2544WAT     H2 9215   6.678   7.533   2.794
 2545WAT      O 9216   6.917   7.719   1.567
 2545WAT     H1 9217   7.010   7.705   1.546
 2545WAT     H2 9218   6.915   7.727   1.662
 2546WAT      O 9219   6.925   7.796   1.829
 2546WAT     H1 9220   6.845   7.789   1.882
 2546WAT     H2 9221   6.945   7.889   1.828
 2547WAT      O 9222   5.249   7.526   2.827
 2547WAT     H1 9223   5.214   7.571   2.904
 2547WAT     H2 9224   5.216   7.436   2.835
 2548WAT      O 9225   5.410   8.843   3.244
 2548WAT     H1 9226   5.405   8.806   3.332
 2548WAT     H2 9227   5.423   8.937   3.258
 2549WAT      O 9228   5.780   8.998   2.804
 2549WAT     H1 9229   5.756   9.025   2.715
 2549WAT     H2 9230   5.874   9.015   2.809
 2550WAT      O 9231   6.000   7.645   3.179
 2550WAT     H1 9232   5.994   7.704   3.254
 2550WAT     H2 9233   6.094   7.634   3.165
 2551WAT      O 9234   6.264   7.610   3.143
 2551WAT     H1 9235   6.325   7.642   3.077
 2551WAT     H2 9236   6.318   7.562   3.205
 2552WAT      O 9237   5.316   7.478   3.155
 2552WAT     H1 9238   5.371   7.460   3.078
 2552WAT     H2 9239   5.323   7.399   3.208
 2553WAT      O 9240   6.338   7.467   2.776
 2553WAT     H1 9241   6.251   7.500   2.756
 2553WAT     H2 9242   6.327   7.419   2.858
 2554WAT      O 9243   6.429   7.687   2.914
 2554WAT     H1 9244   6.396   7.606   2.876
 2554WAT     H2 9245   6.524   7.683   2.902
 2555WAT      O 9246   5.357   8.874   2.851
 2555WAT     H1 9247   5.284   8.812   2.844
 2555WAT     H2 9248   5.363   8.913   2.764
 2556WAT      O 9249   6.113   7.558   2.670
 2556WAT     H1 9250   6.034   7.606   2.698
 2556WAT     H2 9251   6.083   7.468   2.659
 2557WAT      O 9252   6.568   7.629   2.474
 2557WAT     H1 9253   6.612   7.623   2.390
 2557WAT     H2 9254   6.541   7.720   2.481
 2558WAT      O 9255   6.754   7.592   2.275
 2558WAT     H1 9256   6.748   7.497   2.261
 2558WAT     H2 9257   6.832   7.603   2.330
 2559WAT      O 9258   5.247   7.589   1.922
 2559WAT     H1 9259   5.323   7.600   1.865
 2559WAT     H2 9260   5.201   7.673   1.917
 2560WAT      O 9261   5.901   7.800   2.221
 2560WAT     H1 9262   5.820   7.763   2.187
 2560WAT     H2 9263   5.952   7.725   2.251
 2561WAT      O 9264   6.352   7.467   2.345
 2561WAT     H1 9265   6.412   7.524   2.392
 2561WAT     H2 9266   6.277   7.523   2.323
 2562WAT      O 9267   6.666   7.507   1.872
 2562WAT     H1 9268   6.685   7.597   1.899
 2562WAT     H2 9269   6.587   7.484   1.922
 2563WAT      O 9270   5.484   7.642   1.776
 2563WAT     H1 9271   5.537   7.563   1.763
 2563WAT     H2 9272   5.548   7.709   1.799
 2564WAT      O 9273   5.704   7.615   2.081
 2564WAT     H1 9274   5.641   7.545   2.098
 2564WAT     H2 9275   5.650   7.691   2.060
 2565WAT      O 9276   5.716   7.543   3.325
 2565WAT     H1 9277   5.688   7.593   3.249
 2565WAT     H2 9278   5.755   7.463   3.288
 2566WAT      O 9279   5.522   8.882   1.804
 2566WAT     H1 9280   5.459   8.928   1.859
 2566WAT     H2 9281   5.533   8.797   1.848
 2567WAT      O 9282   6.376   7.485   3.383
 2567WAT     H1 9283   6.365   7.517   3.472
 2567WAT     H2 9284   6.458   7.525   3.353
 2568WAT      O 9285   6.267   8.287   0.419
 2568WAT     H1 9286   6.259   8.195   0.392
 2568WAT     H2 9287   6.226   8.336   0.349
 2569WAT      O 9288   6.080   8.464   0.607
 2569WAT     H1 9289   6.003   8.416   0.636
 2569WAT     H2 9290   6.145   8.396   0.590
 2570WAT      O 9291   5.482   8.496   0.695
 2570WAT     H1 9292   5.399   8.470   0.735
 2570WAT     H2 9293   5.543   8.503   0.769
 2571WAT      O 9294   6.482   8.905   0.485
 2571WAT     H1 9295   6.436   8.828   0.518
 2571WAT     H2 9296   6.564   8.908   0.536
 2572WAT      O 9297   5.480   8.899   0.715
 2572WAT     H1 9298   5.510   8.810   0.697
 2572WAT     H2 9299   5.554   8.955   0.692
 2573WAT      O 9300   5.119   8.252   0.662
 2573WAT     H1 9301   5.176   8.175   0.662
 2573WAT     H2 9302   5.119   8.282   0.571
 2574WAT      O 9303   6.024   8.732   0.608
 2574WAT     H1 9304   6.017   8.638   0.592
 2574WAT     H2 9305   6.101   8.741   0.665
 2575WAT      O 9306   5.243   7.792   0.841
 2575WAT     H1 9307   5.225   7.703   0.869
 2575WAT     H2 9308   5.203   7.847   0.908
 2576WAT      O 9309   6.127   8.013   0.631
 2576WAT     H1 9310   6.165   7.925   0.619
 2576WAT     H2 9311   6.118   8.046   0.542
 2577WAT      O 9312   5.540   7.850   0.177
 2577WAT     H1 9313   5.551   7.940   0.208
 2577WAT     H2 9314   5.449   7.845   0.148
 2578WAT      O 9315   6.506   7.762   0.324
 2578WAT     H1 9316   6.588   7.713   0.328
 2578WAT     H2 9317   6.509   7.821   0.399
 2579WAT      O 9318   5.305   8.042   0.701
 2579WAT     H1 9319   5.373   8.068   0.763
 2579WAT     H2 9320   5.274   7.958   0.735
 2580WAT      O 9321   5.725   8.147   0.610
 2580WAT     H1 9322   5.775   8.197   0.674
 2580WAT     H2 9323   5.778   8.069   0.592
 2581WAT      O 9324   6.935   7.964   0.980
 2581WAT     H1 9325   6.864   8.003   0.929
 2581WAT     H2 9326   6.961   8.033   1.041
 2582WAT      O 9327   5.553   7.611   1.037
 2582WAT     H1 9328   5.553   7.662   0.956
 2582WAT     H2 9329   5.470   7.563   1.034
 2583WAT      O 9330   5.678   8.575   0.854
 2583WAT     H1 9331   5.645   8.637   0.919
 2583WAT     H2 9332   5.696   8.627   0.776
 2584WAT      O 9333   6.529   7.956   0.601
 2584WAT     H1 9334   6.459   7.985   0.659
 2584WAT     H2 9335   6.565   8.037   0.565
 2585WAT      O 9336   5.521   7.782   0.837
 2585WAT     H1 9337   5.555   7.866   0.808
 2585WAT     H2 9338   5.427   7.797   0.849
 2586WAT      O 9339   5.599   8.772   1.036
 2586WAT     H1 9340   5.661   8.839   1.008
 2586WAT     H2 9341   5.513   8.812   1.027
 2587WAT      O 9342   6.691   8.918   0.827
 2587WAT     H1 9343   6.623   8.985   0.827
 2587WAT     H2 9344   6.745   8.938   0.751
 2588WAT      O 9345   6.836   7.901   0.640
 2588WAT     H1 9346   6.741   7.904   0.653
 2588WAT     H2 9347   6.869   7.982   0.679
 2589WAT      O 9348   5.889   7.531   0.470
 2589WAT     H1 9349   5.920   7.475   0.398
 2589WAT     H2 9350   5.796   7.544   0.452
 2590WAT      O 9351   6.574   8.775   0.208
 2590WAT     H1 9352   6.563   8.680   0.220
 2590WAT     H2 9353   6.574   8.811   0.296
 2591WAT      O 9354   6.384   8.593   0.832
 2591WAT     H1 9355   6.426   8.571   0.748
 2591WAT     H2 9356   6.457   8.618   0.889
 2592WAT      O 9357   6.779   8.433   0.841
 2592WAT     H1 9358   6.696   8.439   0.793
 2592WAT     H2 9359   6.838   8.491   0.794
 2593WAT      O 9360   6.475   8.111   0.935
 2593WAT     H1 9361   6.434   8.194   0.961
 2593WAT     H2 9362   6.402   8.053   0.916
 2594WAT      O 9363   5.689   8.390   0.422
 2594WAT     H1 9364   5.648   8.319   0.372
 2594WAT     H2 9365   5.697   8.355   0.511
 2595WAT      O 9366   5.736   8.758   0.638
 2595WAT     H1 9367   5.706   8.698   0.570
 2595WAT     H2 9368   5.831   8.762   0.627
 2596WAT      O 9369   5.560   8.067   0.800
 2596WAT     H1 9370   5.615   8.078   0.722
 2596WAT     H2 9371   5.611   8.105   0.871
 2597WAT      O 9372   5.645   8.732   1.303
 2597WAT     H1 9373   5.555   8.755   1.328
 2597WAT     H2 9374   5.647   8.745   1.208
 2598WAT      O 9375   5.527   8.419   1.161
 2598WAT     H1 9376   5.513   8.507   1.198
 2598WAT     H2 9377   5.439   8.385   1.146
 2599WAT      O 9378   6.160   8.911   0.291
 2599WAT     H1 9379   6.204   8.985   0.250
 2599WAT     H2 9380   6.154   8.935   0.384
 2600WAT      O 9381   5.707   9.014   1.382
 2600WAT     H1 9382   5.704   9.054   1.295
 2600WAT     H2 9383   5.691   8.921   1.365
 2601WAT      O 9384   5.123   8.596   0.752
 2601WAT     H1 9385   5.130   8.610   0.658
 2601WAT     H2 9386   5.184   8.526   0.772
 2602WAT      O 9387   5.247   8.766   0.393
 2602WAT     H1 9388   5.206   8.781   0.308
 2602WAT     H2 9389   5.336   8.738   0.373
 2603WAT      O 9390   6.843   8.811   1.227
 2603WAT     H1 9391   6.855   8.787   1.135
 2603WAT     H2 9392   6.847   8.728   1.274
 2604WAT      O 9393   6.828   8.016   1.324
 2604WAT     H1 9394   6.766   8.067   1.271
 2604WAT     H2 9395   6.796   7.926   1.318
 2605WAT      O 9396   5.128   8.701   1.006
 2605WAT     H1 9397   5.144   8.654   0.925
 2605WAT     H2 9398   5.175   8.650   1.073
 2606WAT      O 9399   5.605   7.614   0.510
 2606WAT     H1 9400   5.561   7.692   0.477
 2606WAT     H2 9401   5.661   7.646   0.581
 2607WAT      O 9402   6.034   7.900   1.070
 2607WAT     H1 9403   5.988   7.921   1.152
 2607WAT     H2 9404   5.994   7.819   1.040
 2608WAT      O 9405   6.534   8.022   1.183
 2608WAT     H1 9406   6.449   7.992   1.215
 2608WAT     H2 9407   6.518   8.047   1.092
 2609WAT      O 9408   6.244   8.172   1.393
 2609WAT     H1 9409   6.276   8.089   1.359
 2609WAT     H2 9410   6.322   8.225   1.408
 2610WAT      O 9411   5.809   7.668   0.696
 2610WAT     H1 9412   5.839   7.759   0.688
 2610WAT     H2 9413   5.864   7.619   0.634
 2611WAT      O 9414   5.585   8.126   0.283
 2611WAT     H1 9415   5.562   8.104   0.373
 2611WAT     H2 9416   5.506   8.169   0.248
 2612WAT      O 9417   5.829   8.216   1.349
 2612WAT     H1 9418   5.819   8.122   1.334
 2612WAT     H2 9419   5.913   8.238   1.310
 2613WAT      O 9420   6.168   7.990   0.346
 2613WAT     H1 9421   6.207   8.022   0.264
 2613WAT     H2 9422   6.204   7.902   0.357
 2614WAT      O 9423   5.342   7.857   1.165
 2614WAT     H1 9424   5.302   7.942   1.185
 2614WAT     H2 9425   5.273   7.793   1.184
 2615WAT      O 9426   5.999   7.865   1.472
 2615WAT     H1 9427   5.930   7.846   1.535
 2615WAT     H2 9428   6.073   7.894   1.525
 2616WAT      O 9429   5.072   7.649   0.568
 2616WAT     H1 9430   5.043   7.706   0.639
 2616WAT     H2 9431   5.146   7.601   0.604
 2617WAT      O 9432   6.227   8.249   0.755
 2617WAT     H1 9433   6.154   8.300   0.790
 2617WAT     H2 9434   6.187   8.168   0.725
 2618WAT      O 9435   5.870   7.917   0.596
 2618WAT     H1 9436   5.871   7.873   0.511
 2618WAT     H2 9437   5.960   7.949   0.606
 2619WAT      O 9438   5.455   7.905   0.492
 2619WAT     H1 9439   5.421   7.953   0.567
 2619WAT     H2 9440   5.379   7.860   0.456
 2620WAT      O 9441   6.273   7.795   0.696
 2620WAT     H1 9442   6.275   7.840   0.781
 2620WAT     H2 9443   6.248   7.705   0.718
 2621WAT      O 9444   6.616   7.536   1.280
 2621WAT     H1 9445   6.648   7.463   1.333
 2621WAT     H2 9446   6.619   7.504   1.190
 2622WAT      O 9447   5.286   8.638   1.222
 2622WAT     H1 9448   5.247   8.574   1.282
 2622WAT     H2 9449   5.317   8.708   1.279
 2623WAT      O 9450   5.901   8.323   0.770
 2623WAT     H1 9451   5.937   8.275   0.845
 2623WAT     H2 9452   5.882   8.410   0.804
 2624WAT      O 9453   5.187   7.797   0.383
 2624WAT     H1 9454   5.158   7.761   0.467
 2624WAT     H2 9455   5.181   7.724   0.322
 2625WAT      O 9456   5.680   8.227   1.002
 2625WAT     H1 9457   5.649   8.315   1.025
 2625WAT     H2 9458   5.775   8.233   1.006
 2626WAT      O 9459   6.608   8.547   0.641
 2626WAT     H1 9460   6.680   8.597   0.602
 2626WAT     H2 9461   6.588   8.479   0.577
 2627WAT      O 9462   6.146   8.554   1.230
 2627WAT     H1 9463   6.140   8.462   1.204
 2627WAT     H2 9464   6.083   8.564   1.301
 2628WAT      O 9465   5.537   8.614   0.426
 2628WAT     H1 9466   5.589   8.534   0.420
 2628WAT     H2 9467   5.492   8.608   0.510
 2629WAT      O 9468   5.285   8.311   1.117
 2629WAT     H1 9469   5.249   8.377   1.176
 2629WAT     H2 9470   5.256   8.228   1.154
 2630WAT      O 9471   5.605   8.357   1.405
 2630WAT     H1 9472   5.575   8.371   1.316
 2630WAT     H2 9473   5.682   8.301   1.396
 2631WAT      O 9474   6.140   8.836   1.205
 2631WAT     H1 9475   6.141   8.743   1.183
 2631WAT     H2 9476   6.069   8.845   1.269
 2632WAT      O 9477   6.761   8.501   1.140
 2632WAT     H1 9478   6.688   8.560   1.120
 2632WAT     H2 9479   6.813   8.500   1.060
 2633WAT      O 9480   6.314   8.673   0.489
 2633WAT     H1 9481   6.349   8.613   0.423
 2633WAT     H2 9482   6.225   8.641   0.507
 2634WAT      O 9483   5.922   8.749   0.230
 2634WAT     H1 9484   5.991   8.804   0.268
 2634WAT     H2 9485   5.844   8.804   0.234
 2635WAT      O 9486   5.853   8.450   0.191
 2635WAT     H1 9487   5.898   8.531   0.214
 2635WAT     H2 9488   5.817   8.418   0.275
 2636WAT      O 9489   6.083   9.001   0.914
 2636WAT     H1 9490   6.147   9.021   0.982
 2636WAT     H2 9491   6.119   8.925   0.869
 2637WAT      O 9492   5.443   7.484   0.239
 2637WAT     H1 9493   5.430   7.483   0.333
 2637WAT     H2 9494   5.360   7.518   0.204
 2638WAT      O 9495   6.210   8.801   0.786
 2638WAT     H1 9496   6.274   8.731   0.797
 2638WAT     H2 9497   6.263   8.879   0.768
 2639WAT      O 9498   6.388   8.881   1.106
 2639WAT     H1 9499   6.421   8.940   1.174
 2639WAT     H2 9500   6.296   8.868   1.129
 2640WAT      O 9501   5.143   7.660   1.185
 2640WAT     H1 9502   5.071   7.680   1.245
 2640WAT     H2 9503   5.185   7.582   1.222
 2641WAT      O 9504   5.171   9.059   1.283
 2641WAT     H1 9505   5.182   8.965   1.269
 2641WAT     H2 9506   5.106   9.085   1.218
 2642WAT      O 9507   5.971   8.886   1.423
 2642WAT     H1 9508   5.938   8.814   1.478
 2642WAT     H2 9509   5.903   8.953   1.431
 2643WAT      O 9510   6.292   7.909   0.960
 2643WAT     H1 9511   6.329   7.827   0.992
 2643WAT     H2 9512   6.206   7.915   1.001
 2644WAT      O 9513   5.826   8.033   0.182
 2644WAT     H1 9514   5.755   8.079   0.226
 2644WAT     H2 9515   5.854   7.967   0.246
 2645WAT      O 9516   5.988   8.175   0.982
 2645WAT     H1 9517   6.038   8.222   1.049
 2645WAT     H2 9518   6.002   8.082   1.003
 2646WAT      O 9519   6.229   7.705   0.326
 2646WAT     H1 9520   6.216   7.707   0.231
 2646WAT     H2 9521   6.324   7.710   0.338
 2647WAT      O 9522   6.709   7.796   1.066
 2647WAT     H1 9523   6.658   7.870   1.100
 2647WAT     H2 9524   6.790   7.835   1.035
 2648WAT      O 9525   6.538   8.321   0.411
 2648WAT     H1 9526   6.444   8.322   0.428
 2648WAT     H2 9527   6.569   8.242   0.456
 2649WAT      O 9528   6.270   8.776   1.459
 2649WAT     H1 9529   6.209   8.778   1.385
 2649WAT     H2 9530   6.239   8.703   1.513
 2650WAT      O 9531   5.158   8.414   1.359
 2650WAT     H1 9532   5.208   8.356   1.416
 2650WAT     H2 9533   5.084   8.443   1.413
 2651WAT      O 9534   5.863   8.555   1.312
 2651WAT     H1 9535   5.787   8.612   1.304
 2651WAT     H2 9536   5.881   8.526   1.223
 2652WAT      O 9537   6.578   8.728   1.368
 2652WAT     H1 9538   6.652   8.762   1.318
 2652WAT     H2 9539   6.501   8.745   1.313
 2653WAT      O 9540   5.361   8.228   1.448
 2653WAT     H1 9541   5.365   8.199   1.539
 2653WAT     H2 9542   5.447   8.268   1.432
 2654WAT      O 9543   5.555   8.086   1.245
 2654WAT     H1 9544   5.502   8.037   1.182
 2654WAT     H2 9545   5.622   8.129   1.192
 2655WAT      O 9546   6.445   8.533   1.222
 2655WAT     H1 9547   6.486   8.548   1.306
 2655WAT     H2 9548   6.352   8.546   1.238
 2656WAT      O 9549   6.492   8.267   1.422
 2656WAT     H1 9550   6.550   8.192   1.413
 2656WAT     H2 9551   6.510   8.320   1.344
 2657WAT      O 9552   5.604   7.783   1.253
 2657WAT     H1 9553   5.595   7.721   1.181
 2657WAT     H2 9554   5.546   7.856   1.230
 2658WAT      O 9555   5.881   7.639   0.956
 2658WAT     H1 9556   5.836   7.641   0.872
 2658WAT     H2 9557   5.817   7.599   1.016
 2659WAT      O 9558   5.921   8.528   1.019
 2659WAT     H1 9559   5.963   8.613   1.001
 2659WAT     H2 9560   5.829   8.542   0.996
 2660WAT      O 9561   6.155   8.301   1.157
 2660WAT     H1 9562   6.167   8.242   1.231
 2660WAT     H2 9563   6.241   8.305   1.115
 2661WAT      O 9564   6.389   8.357   1.015
 2661WAT     H1 9565   6.336   8.409   0.954
 2661WAT     H2 9566   6.423   8.420   1.078
 2662WAT      O 9567   5.832   7.956   1.283
 2662WAT     H1 9568   5.890   7.925   1.351
 2662WAT     H2 9569   5.750   7.908   1.298
 2663WAT      O 9570   6.313   7.917   1.306
 2663WAT     H1 9571   6.245   7.851   1.299
 2663WAT     H2 9572   6.385   7.873   1.350
 2664WAT      O 9573   5.132   9.015   0.486
 2664WAT     H1 9574   5.165   8.928   0.463
 2664WAT     H2 9575   5.175   9.036   0.569
 2665WAT      O 9576   5.592   8.848   0.252
 2665WAT     H1 9577   5.562   8.836   0.342
 2665WAT     H2 9578   5.581   8.762   0.211
 2666WAT      O 9579   6.745   9.052   1.189
 2666WAT     H1 9580   6.685   9.058   1.115
 2666WAT     H2 9581   6.758   8.958   1.202
 2667WAT      O 9582   5.164   8.353   0.396
 2667WAT     H1 9583   5.099   8.326   0.332
 2667WAT     H2 9584   5.248   8.342   0.351
 2668WAT      O 9585   6.915   8.586   0.457
 2668WAT     H1 9586   6.952   8.508   0.417
 2668WAT     H2 9587   6.979   8.655   0.440
 2669WAT      O 9588   6.613   8.724   0.999
 2669WAT     H1 9589   6.532   8.767   1.025
 2669WAT     H2 9590   6.654   8.786   0.937
 2670WAT      O 9591   6.809   8.324   0.188
 2670WAT     H1 9592   6.772   8.247   0.145
 2670WAT     H2 9593   6.736   8.362   0.237
 2671WAT      O 9594   5.268   8.391   0.850
 2671WAT     H1 9595   5.305   8.383   0.938
 2671WAT     H2 9596   5.211   8.315   0.840
 2672WAT      O 9597   6.748   8.238   1.151
 2672WAT     H1 9598   6.725   8.215   1.061
 2672WAT     H2 9599   6.774   8.330   1.147
 2673WAT      O 9600   5.223   8.083   1.241
 2673WAT     H1 9601   5.134   8.079   1.275
 2673WAT     H2 9602   5.277   8.102   1.317
 2674WAT      O 9603   6.592   7.761   1.429
 2674WAT     H1 9604   6.680   7.762   1.467
 2674WAT     H2 9605   6.593   7.687   1.368
 2675WAT      O 9606   6.737   8.146   0.518
 2675WAT     H1 9607   6.789   8.097   0.455
 2675WAT     H2 9608   6.795   8.160   0.592
 2676WAT      O 9609   6.755   8.155   0.870
 2676WAT     H1 9610   6.660   8.151   0.882
 2676WAT     H2 9611   6.773   8.246   0.847
 2677WAT      O 9612   5.274   7.510   0.675
 2677WAT     H1 9613   5.338   7.455   0.631
 2677WAT     H2 9614   5.316   7.535   0.758
 2678WAT      O 9615   6.828   7.935   0.365
 2678WAT     H1 9616   6.817   7.920   0.459
 2678WAT     H2 9617   6.905   7.883   0.341
 2679WAT      O 9618   6.663   7.529   1.011
 2679WAT     H1 9619   6.727   7.591   1.048
 2679WAT     H2 9620   6.678   7.533   0.917
 2680WAT      O 9621   5.249   7.526   0.950
 2680WAT     H1 9622   5.214   7.571   1.026
 2680WAT     H2 9623   5.216   7.436   0.958
 2681WAT      O 9624   5.410   8.843   1.366
 2681WAT     H1 9625   5.405   8.806   1.454
 2681WAT     H2 9626   5.423   8.937   1.380
 2682WAT      O 9627   5.780   8.998   0.926
 2682WAT     H1 9628   5.756   9.025   0.838
 2682WAT     H2 9629   5.874   9.015   0.932
 2683WAT      O 9630   6.000   7.645   1.302
 2683WAT     H1 9631   5.994   7.704   1.377
 2683WAT     H2 9632   6.094   7.634   1.287
 2684WAT      O 9633   6.264   7.610   1.266
 2684WAT     H1 9634   6.325   7.642   1.200
 2684WAT     H2 9635   6.318   7.562   1.328
 2685WAT      O 9636   5.316   7.478   1.277
 2685WAT     H1 9637   5.371   7.460   1.201
 2685WAT     H2 9638   5.323   7.399   1.331
 2686WAT      O 9639   6.338   7.467   0.899
 2686WAT     H1 9640   6.251   7.500   0.878
 2686WAT     H2 9641   6.327   7.419   0.981
 2687WAT      O 9642   6.429   7.687   1.037
 2687WAT     H1 9643   6.396   7.606   0.999
 2687WAT     H2 9644   6.524   7.683   1.025
 2688WAT      O 9645   5.357   8.874   0.973
 2688WAT     H1 9646   5.284   8.812   0.967
 2688WAT     H2 9647   5.363   8.913   0.886
 2689WAT      O 9648   6.113   7.558   0.792
 2689WAT     H1 9649   6.034   7.606   0.820
 2689WAT     H2 9650   6.083   7.468   0.782
 2690WAT      O 9651   6.568   7.629   0.597
 2690WAT     H1 9652   6.612   7.623   0.512
 2690WAT     H2 9653   6.541   7.720   0.604
 2691WAT      O 9654   6.754   7.592   0.398
 2691WAT     H1 9655   6.748   7.497   0.383
 2691WAT     H2 9656   6.832   7.603   0.453
 2692WAT      O 9657   5.901   7.800   0.344
 2692WAT     H1 9658   5.820   7.763   0.310
 2692WAT     H2 9659   5.952   7.725   0.374
 2693WAT      O 9660   6.352   7.467   0.467
 2693WAT     H1 9661   6.412   7.524   0.515
 2693WAT     H2 9662   6.277   7.523   0.445
 2694WAT      O 9663   5.704   7.615   0.204
 2694WAT     H1 9664   5.641   7.545   0.221
 2694WAT     H2 9665   5.650   7.691   0.182
 2695WAT      O 9666   5.716   7.543   1.448
 2695WAT     H1 9667   5.688   7.593   1.371
 2695WAT     H2 9668   5.755   7.463   1.411
 2696WAT      O 9669   6.376   7.485   1.505
 2696WAT     H1 9670   6.365   7.517   1.595
 2696WAT     H2 9671   6.458   7.525   1.476
 2697WAT      O 9672   6.267   6.409   6.051
 2697WAT     H1 9673   6.259   6.318   6.024
 2697WAT     H2 9674   6.226   6.459   5.981
 2698WAT      O 9675   6.080   6.587   6.240
 2698WAT     H1 9676   6.003   6.539   6.269
 2698WAT     H2 9677   6.145   6.519   6.222
 2699WAT      O 9678   5.482   6.618   6.327
 2699WAT     H1 9679   5.399   6.593   6.367
 2699WAT     H2 9680   5.543   6.625   6.401
 2700WAT      O 9681   6.482   7.028   6.118
 2700WAT     H1 9682   6.436   6.950   6.150
 2700WAT     H2 9683   6.564   7.030   6.168
 2701WAT      O 9684   5.480   7.022   6.347
 2701WAT     H1 9685   5.510   6.933   6.329
 2701WAT     H2 9686   5.554   7.077   6.324
 2702WAT      O 9687   5.323   6.114   5.706
 2702WAT     H1 9688   5.234   6.148   5.696
 2702WAT     H2 9689   5.351   6.094   5.617
 2703WAT      O 9690   5.119   6.374   6.294
 2703WAT     H1 9691   5.176   6.297   6.294
 2703WAT     H2 9692   5.119   6.404   6.203
 2704WAT      O 9693   6.105   7.256   6.080
 2704WAT     H1 9694   6.043   7.302   6.023
 2704WAT     H2 9695   6.190   7.272   6.039
 2705WAT      O 9696   6.024   6.855   6.240
 2705WAT     H1 9697   6.017   6.760   6.224
 2705WAT     H2 9698   6.101   6.864   6.297
 2706WAT      O 9699   5.243   5.915   6.473
 2706WAT     H1 9700   5.225   5.825   6.501
 2706WAT     H2 9701   5.203   5.970   6.540
 2707WAT      O 9702   6.127   6.135   6.263
 2707WAT     H1 9703   6.165   6.048   6.252
 2707WAT     H2 9704   6.118   6.169   6.174
 2708WAT      O 9705   5.540   5.972   5.809
 2708WAT     H1 9706   5.551   6.063   5.840
 2708WAT     H2 9707   5.449   5.968   5.780
 2709WAT      O 9708   6.506   5.885   5.956
 2709WAT     H1 9709   6.588   5.836   5.960
 2709WAT     H2 9710   6.509   5.944   6.032
 2710WAT      O 9711   5.305   6.165   6.334
 2710WAT     H1 9712   5.373   6.191   6.396
 2710WAT     H2 9713   5.274   6.081   6.367
 2711WAT      O 9714   5.725   6.269   6.242
 2711WAT     H1 9715   5.775   6.319   6.306
 2711WAT     H2 9716   5.778   6.192   6.225
 2712WAT      O 9717   6.192   6.745   5.819
 2712WAT     H1 9718   6.130   6.791   5.763
 2712WAT     H2 9719   6.243   6.814   5.861
 2713WAT      O 9720   5.678   6.697   6.487
 2713WAT     H1 9721   5.645   6.760   6.551
 2713WAT     H2 9722   5.696   6.750   6.409
 2714WAT      O 9723   6.529   6.079   6.234
 2714WAT     H1 9724   6.459   6.108   6.292
 2714WAT     H2 9725   6.565   6.160   6.198
 2715WAT      O 9726   5.521   5.904   6.470
 2715WAT     H1 9727   5.555   5.989   6.440
 2715WAT     H2 9728   5.427   5.919   6.481
 2716WAT      O 9729   5.128   6.813   5.556
 2716WAT     H1 9730   5.091   6.862   5.483
 2716WAT     H2 9731   5.154   6.880   5.619
 2717WAT      O 9732   6.691   7.040   6.460
 2717WAT     H1 9733   6.623   7.107   6.459
 2717WAT     H2 9734   6.745   7.060   6.383
 2718WAT      O 9735   6.836   6.023   6.273
 2718WAT     H1 9736   6.741   6.027   6.286
 2718WAT     H2 9737   6.869   6.105   6.311
 2719WAT      O 9738   5.889   5.653   6.102
 2719WAT     H1 9739   5.920   5.598   6.031
 2719WAT     H2 9740   5.796   5.667   6.084
 2720WAT      O 9741   6.444   7.225   6.331
 2720WAT     H1 9742   6.446   7.185   6.244
 2720WAT     H2 9743   6.389   7.302   6.321
 2721WAT      O 9744   6.574   6.897   5.840
 2721WAT     H1 9745   6.563   6.803   5.853
 2721WAT     H2 9746   6.574   6.933   5.929
 2722WAT      O 9747   6.384   6.715   6.464
 2722WAT     H1 9748   6.426   6.694   6.381
 2722WAT     H2 9749   6.457   6.741   6.521
 2723WAT      O 9750   6.128   6.460   5.776
 2723WAT     H1 9751   6.035   6.453   5.799
 2723WAT     H2 9752   6.143   6.554   5.764
 2724WAT      O 9753   6.127   6.087   5.475
 2724WAT     H1 9754   6.033   6.103   5.484
 2724WAT     H2 9755   6.159   6.159   5.421
 2725WAT      O 9756   6.779   6.555   6.473
 2725WAT     H1 9757   6.696   6.562   6.426
 2725WAT     H2 9758   6.838   6.614   6.426
 2726WAT      O 9759   6.531   6.616   5.826
 2726WAT     H1 9760   6.469   6.582   5.761
 2726WAT     H2 9761   6.529   6.552   5.897
 2727WAT      O 9762   6.475   6.234   6.568
 2727WAT     H1 9763   6.434   6.316   6.593
 2727WAT     H2 9764   6.402   6.175   6.549
 2728WAT      O 9765   5.689   6.512   6.054
 2728WAT     H1 9766   5.648   6.441   6.004
 2728WAT     H2 9767   5.697   6.478   6.143
 2729WAT      O 9768   5.736   6.881   6.270
 2729WAT     H1 9769   5.706   6.821   6.202
 2729WAT     H2 9770   5.831   6.885   6.259
 2730WAT      O 9771   5.560   6.190   6.432
 2730WAT     H1 9772   5.615   6.201   6.354
 2730WAT     H2 9773   5.611   6.227   6.504
 2731WAT      O 9774   6.544   7.238   6.637
 2731WAT     H1 9775   6.497   7.319   6.617
 2731WAT     H2 9776   6.476   7.173   6.652
 2732WAT      O 9777   6.349   6.540   5.527
 2732WAT     H1 9778   6.393   6.456   5.512
 2732WAT     H2 9779   6.420   6.603   5.535
 2733WAT      O 9780   6.160   7.034   5.924
 2733WAT     H1 9781   6.204   7.108   5.882
 2733WAT     H2 9782   6.154   7.058   6.016
 2734WAT      O 9783   6.707   5.665   5.358
 2734WAT     H1 9784   6.676   5.675   5.448
 2734WAT     H2 9785   6.783   5.723   5.353
 2735WAT      O 9786   5.359   6.402   5.804
 2735WAT     H1 9787   5.347   6.474   5.743
 2735WAT     H2 9788   5.328   6.325   5.756
 2736WAT      O 9789   5.123   6.719   6.385
 2736WAT     H1 9790   5.130   6.732   6.290
 2736WAT     H2 9791   5.184   6.648   6.404
 2737WAT      O 9792   5.247   6.889   6.026
 2737WAT     H1 9793   5.206   6.903   5.940
 2737WAT     H2 9794   5.336   6.861   6.005
 2738WAT      O 9795   6.426   7.332   5.659
 2738WAT     H1 9796   6.410   7.303   5.749
 2738WAT     H2 9797   6.410   7.255   5.606
 2739WAT      O 9798   5.674   7.310   5.837
 2739WAT     H1 9799   5.657   7.219   5.816
 2739WAT     H2 9800   5.589   7.346   5.861
 2740WAT      O 9801   6.397   7.083   5.515
 2740WAT     H1 9802   6.327   7.083   5.449
 2740WAT     H2 9803   6.471   7.041   5.472
 2741WAT      O 9804   6.353   7.246   5.923
 2741WAT     H1 9805   6.399   7.168   5.954
 2741WAT     H2 9806   6.387   7.317   5.977
 2742WAT      O 9807   5.605   5.736   6.142
 2742WAT     H1 9808   5.561   5.814   6.109
 2742WAT     H2 9809   5.661   5.768   6.213
 2743WAT      O 9810   5.917   5.698   5.630
 2743WAT     H1 9811   5.855   5.698   5.703
 2743WAT     H2 9812   5.908   5.612   5.591
 2744WAT      O 9813   5.809   5.791   6.328
 2744WAT     H1 9814   5.839   5.881   6.320
 2744WAT     H2 9815   5.864   5.742   6.267
 2745WAT      O 9816   5.585   6.249   5.915
 2745WAT     H1 9817   5.562   6.227   6.006
 2745WAT     H2 9818   5.506   6.292   5.881
 2746WAT      O 9819   6.307   6.249   5.775
 2746WAT     H1 9820   6.248   6.322   5.757
 2746WAT     H2 9821   6.362   6.243   5.697
 2747WAT      O 9822   6.168   6.113   5.978
 2747WAT     H1 9823   6.207   6.145   5.897
 2747WAT     H2 9824   6.204   6.025   5.989
 2748WAT      O 9825   5.072   5.772   6.200
 2748WAT     H1 9826   5.043   5.829   6.272
 2748WAT     H2 9827   5.146   5.724   6.237
 2749WAT      O 9828   5.090   6.166   5.321
 2749WAT     H1 9829   5.082   6.260   5.336
 2749WAT     H2 9830   5.055   6.152   5.233
 2750WAT      O 9831   6.227   6.372   6.388
 2750WAT     H1 9832   6.154   6.423   6.422
 2750WAT     H2 9833   6.187   6.290   6.357
 2751WAT      O 9834   5.870   6.039   6.228
 2751WAT     H1 9835   5.871   5.995   6.143
 2751WAT     H2 9836   5.960   6.072   6.239
 2752WAT      O 9837   5.455   6.028   6.124
 2752WAT     H1 9838   5.421   6.075   6.200
 2752WAT     H2 9839   5.379   5.982   6.088
 2753WAT      O 9840   5.877   6.140   5.527
 2753WAT     H1 9841   5.889   6.135   5.622
 2753WAT     H2 9842   5.838   6.226   5.512
 2754WAT      O 9843   6.273   5.917   6.329
 2754WAT     H1 9844   6.275   5.962   6.413
 2754WAT     H2 9845   6.248   5.827   6.350
 2755WAT      O 9846   5.778   6.371   5.467
 2755WAT     H1 9847   5.721   6.326   5.404
 2755WAT     H2 9848   5.849   6.406   5.414
 2756WAT      O 9849   5.901   6.445   6.403
 2756WAT     H1 9850   5.937   6.398   6.477
 2756WAT     H2 9851   5.882   6.533   6.437
 2757WAT      O 9852   5.187   5.920   6.016
 2757WAT     H1 9853   5.158   5.883   6.099
 2757WAT     H2 9854   5.181   5.847   5.954
 2758WAT      O 9855   5.532   6.770   5.694
 2758WAT     H1 9856   5.455   6.716   5.678
 2758WAT     H2 9857   5.605   6.718   5.660
 2759WAT      O 9858   6.608   6.670   6.273
 2759WAT     H1 9859   6.680   6.719   6.234
 2759WAT     H2 9860   6.588   6.602   6.209
 2760WAT      O 9861   6.154   5.809   5.688
 2760WAT     H1 9862   6.073   5.759   5.680
 2760WAT     H2 9863   6.135   5.893   5.646
 2761WAT      O 9864   6.426   6.246   5.517
 2761WAT     H1 9865   6.515   6.278   5.500
 2761WAT     H2 9866   6.423   6.159   5.478
 2762WAT      O 9867   5.537   6.737   6.058
 2762WAT     H1 9868   5.589   6.657   6.053
 2762WAT     H2 9869   5.492   6.731   6.142
 2763WAT      O 9870   6.025   6.864   5.585
 2763WAT     H1 9871   6.060   6.938   5.536
 2763WAT     H2 9872   5.943   6.895   5.622
 2764WAT      O 9873   6.653   6.377   5.464
 2764WAT     H1 9874   6.645   6.421   5.379
 2764WAT     H2 9875   6.725   6.423   5.507
 2765WAT      O 9876   6.756   7.063   5.737
 2765WAT     H1 9877   6.692   6.997   5.764
 2765WAT     H2 9878   6.717   7.103   5.659
 2766WAT      O 9879   6.314   6.796   6.122
 2766WAT     H1 9880   6.349   6.736   6.056
 2766WAT     H2 9881   6.225   6.763   6.139
 2767WAT      O 9882   5.922   6.872   5.862
 2767WAT     H1 9883   5.991   6.926   5.901
 2767WAT     H2 9884   5.844   6.926   5.866
 2768WAT      O 9885   5.136   6.433   5.412
 2768WAT     H1 9886   5.223   6.462   5.440
 2768WAT     H2 9887   5.087   6.515   5.400
 2769WAT      O 9888   5.853   6.572   5.824
 2769WAT     H1 9889   5.898   6.653   5.846
 2769WAT     H2 9890   5.817   6.540   5.907
 2770WAT      O 9891   6.083   7.123   6.547
 2770WAT     H1 9892   6.147   7.144   6.614
 2770WAT     H2 9893   6.119   7.047   6.501
 2771WAT      O 9894   5.443   5.607   5.871
 2771WAT     H1 9895   5.430   5.606   5.966
 2771WAT     H2 9896   5.360   5.640   5.836
 2772WAT      O 9897   6.210   6.924   6.418
 2772WAT     H1 9898   6.274   6.853   6.430
 2772WAT     H2 9899   6.263   7.002   6.400
 2773WAT      O 9900   6.595   6.952   5.391
 2773WAT     H1 9901   6.572   6.880   5.450
 2773WAT     H2 9902   6.556   6.927   5.307
 2774WAT      O 9903   5.173   7.355   5.468
 2774WAT     H1 9904   5.209   7.415   5.403
 2774WAT     H2 9905   5.159   7.409   5.546
 2775WAT      O 9906   6.553   6.744   5.557
 2775WAT     H1 9907   6.524   6.790   5.636
 2775WAT     H2 9908   6.632   6.698   5.584
 2776WAT      O 9909   5.775   7.093   5.550
 2776WAT     H1 9910   5.774   7.166   5.488
 2776WAT     H2 9911   5.683   7.068   5.559
 2777WAT      O 9912   5.335   6.615   5.624
 2777WAT     H1 9913   5.274   6.689   5.625
 2777WAT     H2 9914   5.382   6.624   5.542
 2778WAT      O 9915   6.292   6.032   6.592
 2778WAT     H1 9916   6.329   5.950   6.625
 2778WAT     H2 9917   6.206   6.038   6.634
 2779WAT      O 9918   6.629   5.927   5.673
 2779WAT     H1 9919   6.566   5.938   5.601
 2779WAT     H2 9920   6.579   5.949   5.752
 2780WAT      O 9921   6.073   7.099   5.416
 2780WAT     H1 9922   6.083   7.079   5.323
 2780WAT     H2 9923   5.983   7.074   5.437
 2781WAT      O 9924   5.826   6.155   5.814
 2781WAT     H1 9925   5.755   6.202   5.859
 2781WAT     H2 9926   5.854   6.089   5.878
 2782WAT      O 9927   6.229   5.828   5.958
 2782WAT     H1 9928   6.216   5.829   5.864
 2782WAT     H2 9929   6.324   5.832   5.970
 2783WAT      O 9930   5.937   7.351   5.886
 2783WAT     H1 9931   5.963   7.347   5.793
 2783WAT     H2 9932   5.843   7.338   5.885
 2784WAT      O 9933   5.646   5.986   5.552
 2784WAT     H1 9934   5.731   6.030   5.545
 2784WAT     H2 9935   5.609   6.017   5.635
 2785WAT      O 9936   6.538   6.443   6.043
 2785WAT     H1 9937   6.444   6.445   6.061
 2785WAT     H2 9938   6.569   6.364   6.088
 2786WAT      O 9939   5.536   6.611   5.399
 2786WAT     H1 9940   5.612   6.600   5.456
 2786WAT     H2 9941   5.544   6.542   5.334
 2787WAT      O 9942   5.405   6.355   5.468
 2787WAT     H1 9943   5.413   6.260   5.479
 2787WAT     H2 9944   5.494   6.388   5.478
 2788WAT      O 9945   6.738   7.160   6.211
 2788WAT     H1 9946   6.751   7.242   6.258
 2788WAT     H2 9947   6.825   7.139   6.176
 2789WAT      O 9948   5.485   7.369   6.178
 2789WAT     H1 9949   5.559   7.315   6.205
 2789WAT     H2 9950   5.524   7.456   6.164
 2790WAT      O 9951   5.174   6.976   5.765
 2790WAT     H1 9952   5.081   7.000   5.764
 2790WAT     H2 9953   5.220   7.059   5.753
 2791WAT      O 9954   5.796   7.287   5.360
 2791WAT     H1 9955   5.876   7.316   5.315
 2791WAT     H2 9956   5.744   7.244   5.292
 2792WAT      O 9957   6.702   7.209   5.503
 2792WAT     H1 9958   6.673   7.168   5.421
 2792WAT     H2 9959   6.682   7.302   5.491
 2793WAT      O 9960   5.848   6.809   5.347
 2793WAT     H1 9961   5.838   6.747   5.419
 2793WAT     H2 9962   5.831   6.756   5.268
 2794WAT      O 9963   6.172   6.715   5.407
 2794WAT     H1 9964   6.117   6.760   5.472
 2794WAT     H2 9965   6.234   6.665   5.459
 2795WAT      O 9966   5.739   6.611   5.597
 2795WAT     H1 9967   5.781   6.594   5.681
 2795WAT     H2 9968   5.751   6.530   5.547
 2796WAT      O 9969   5.990   6.513   5.322
 2796WAT     H1 9970   6.042   6.442   5.285
 2796WAT     H2 9971   6.055   6.577   5.352
 2797WAT      O 9972   5.881   5.761   6.589
 2797WAT     H1 9973   5.836   5.763   6.504
 2797WAT     H2 9974   5.817   5.721   6.648
 2798WAT      O 9975   5.921   6.651   6.651
 2798WAT     H1 9976   5.963   6.735   6.634
 2798WAT     H2 9977   5.829   6.665   6.628
 2799WAT      O 9978   5.629   6.218   5.291
 2799WAT     H1 9979   5.608   6.132   5.327
 2799WAT     H2 9980   5.611   6.210   5.198
 2800WAT      O 9981   6.376   5.699   5.544
 2800WAT     H1 9982   6.404   5.615   5.580
 2800WAT     H2 9983   6.299   5.723   5.596
 2801WAT      O 9984   5.508   5.928   5.290
 2801WAT     H1 9985   5.539   5.929   5.199
 2801WAT     H2 9986   5.582   5.893   5.340
 2802WAT      O 9987   5.830   5.823   5.389
 2802WAT     H1 9988   5.795   5.755   5.331
 2802WAT     H2 9989   5.850   5.777   5.470
 2803WAT      O 9990   6.047   7.321   5.551
 2803WAT     H1 9991   6.136   7.355   5.553
 2803WAT     H2 9992   6.050   7.249   5.488
 2804WAT      O 9993   5.411   6.859   5.373
 2804WAT     H1 9994   5.454   6.913   5.439
 2804WAT     H2 9995   5.459   6.776   5.374
 2805WAT      O 9996   5.132   7.138   6.119
 2805WAT     H1 9997   5.165   7.051   6.095
 2805WAT     H2 9998   5.175   7.158   6.202
 2806WAT      O 9999   5.592   6.971   5.885
 2806WAT     H110000   5.562   6.958   5.975
 2806WAT     H210001   5.581   6.885   5.844
 2807WAT      O10002   5.181   7.224   6.392
 2807WAT     H110003   5.137   7.242   6.476
 2807WAT     H210004   5.238   7.300   6.378
 2808WAT      O10005   6.869   6.949   5.355
 2808WAT     H110006   6.786   6.955   5.402
 2808WAT     H210007   6.886   7.038   5.325
 2809WAT      O10008   6.814   6.623   5.605
 2809WAT     H110009   6.890   6.680   5.616
 2809WAT     H210010   6.816   6.566   5.682
 2810WAT      O10011   5.164   6.475   6.028
 2810WAT     H110012   5.099   6.449   5.964
 2810WAT     H210013   5.248   6.465   5.983
 2811WAT      O10014   6.915   6.709   6.090
 2811WAT     H110015   6.952   6.630   6.049
 2811WAT     H210016   6.979   6.778   6.072
 2812WAT      O10017   6.819   6.652   5.321
 2812WAT     H110018   6.847   6.743   5.308
 2812WAT     H210019   6.801   6.646   5.415
 2813WAT      O10020   6.459   5.955   5.450
 2813WAT     H110021   6.501   5.936   5.366
 2813WAT     H210022   6.429   5.870   5.482
 2814WAT      O10023   6.809   6.446   5.820
 2814WAT     H110024   6.772   6.369   5.777
 2814WAT     H210025   6.736   6.484   5.869
 2815WAT      O10026   5.268   6.514   6.482
 2815WAT     H110027   5.305   6.505   6.570
 2815WAT     H210028   5.211   6.438   6.472
 2816WAT      O10029   5.086   6.196   5.623
 2816WAT     H110030   4.995   6.223   5.605
 2816WAT     H210031   5.134   6.224   5.545
 2817WAT      O10032   6.737   6.269   6.150
 2817WAT     H110033   6.789   6.219   6.087
 2817WAT     H210034   6.795   6.282   6.225
 2818WAT      O10035   6.755   6.277   6.503
 2818WAT     H110036   6.660   6.274   6.514
 2818WAT     H210037   6.773   6.368   6.479
 2819WAT      O10038   5.340   6.102   5.414
 2819WAT     H110039   5.411   6.060   5.365
 2819WAT     H210040   5.268   6.109   5.350
 2820WAT      O10041   5.305   5.708   5.318
 2820WAT     H110042   5.377   5.762   5.349
 2820WAT     H210043   5.332   5.680   5.230
 2821WAT      O10044   6.686   6.194   5.744
 2821WAT     H110045   6.735   6.171   5.823
 2821WAT     H210046   6.666   6.111   5.703
 2822WAT      O10047   5.274   5.633   6.308
 2822WAT     H110048   5.338   5.578   6.264
 2822WAT     H210049   5.316   5.658   6.390
 2823WAT      O10050   6.828   6.058   5.998
 2823WAT     H110051   6.817   6.043   6.091
 2823WAT     H210052   6.905   6.005   5.973
 2824WAT      O10053   6.917   5.841   5.322
 2824WAT     H110054   7.010   5.828   5.301
 2824WAT     H210055   6.915   5.849   5.417
 2825WAT      O10056   6.925   5.918   5.584
 2825WAT     H110057   6.845   5.912   5.637
 2825WAT     H210058   6.945   6.012   5.583
 2826WAT      O10059   6.619   7.322   5.984
 2826WAT     H110060   6.679   7.290   5.916
 2826WAT     H210061   6.645   7.275   6.063
 2827WAT      O10062   5.780   7.121   6.559
 2827WAT     H110063   5.756   7.148   6.470
 2827WAT     H210064   5.874   7.138   6.564
 2828WAT      O10065   6.338   5.589   6.531
 2828WAT     H110066   6.251   5.623   6.511
 2828WAT     H210067   6.327   5.542   6.613
 2829WAT      O10068   6.674   7.387   6.367
 2829WAT     H110069   6.628   7.462   6.329
 2829WAT     H210070   6.611   7.315   6.361
 2830WAT      O10071   5.357   6.997   6.606
 2830WAT     H110072   5.284   6.935   6.599
 2830WAT     H210073   5.363   7.036   6.519
 2831WAT      O10074   5.717   7.218   6.284
 2831WAT     H110075   5.769   7.157   6.232
 2831WAT     H210076   5.782   7.268   6.333
 2832WAT      O10077   5.991   7.307   6.367
 2832WAT     H110078   6.020   7.282   6.279
 2832WAT     H210079   6.042   7.252   6.426
 2833WAT      O10080   6.113   5.681   6.425
 2833WAT     H110081   6.034   5.728   6.453
 2833WAT     H210082   6.083   5.591   6.414
 2834WAT      O10083   6.568   5.751   6.229
 2834WAT     H110084   6.612   5.746   6.144
 2834WAT     H210085   6.541   5.843   6.236
 2835WAT      O10086   6.754   5.714   6.030
 2835WAT     H110087   6.748   5.620   6.016
 2835WAT     H210088   6.832   5.725   6.085
 2836WAT      O10089   5.185   7.328   5.927
 2836WAT     H110090   5.168   7.265   5.996
 2836WAT     H210091   5.098   7.349   5.892
 2837WAT      O10092   5.247   5.711   5.677
 2837WAT     H110093   5.323   5.723   5.620
 2837WAT     H210094   5.201   5.795   5.672
 2838WAT      O10095   5.901   5.923   5.976
 2838WAT     H110096   5.820   5.885   5.942
 2838WAT     H210097   5.952   5.847   6.006
 2839WAT      O10098   6.352   5.589   6.100
 2839WAT     H110099   6.412   5.646   6.147
 2839WAT     H210100   6.277   5.646   6.077
 2840WAT      O10101   6.666   5.629   5.627
 2840WAT     H110102   6.685   5.719   5.654
 2840WAT     H210103   6.587   5.606   5.676
 2841WAT      O10104   5.346   7.198   5.671
 2841WAT     H110105   5.293   7.236   5.601
 2841WAT     H210106   5.338   7.260   5.743
 2842WAT      O10107   5.484   5.764   5.531
 2842WAT     H110108   5.537   5.685   5.518
 2842WAT     H210109   5.548   5.832   5.554
 2843WAT      O10110   5.704   5.738   5.836
 2843WAT     H110111   5.641   5.668   5.853
 2843WAT     H210112   5.650   5.814   5.815
 2844WAT      O10113   6.821   7.354   5.803
 2844WAT     H110114   6.839   7.285   5.739
 2844WAT     H210115   6.751   7.406   5.764
 2845WAT      O10116   5.605   7.392   5.559
 2845WAT     H110117   5.679   7.364   5.504
 2845WAT     H210118   5.631   7.369   5.648
 2846WAT      O10119   5.522   7.004   5.559
 2846WAT     H110120   5.459   7.051   5.614
 2846WAT     H210121   5.533   6.920   5.602
 2847WAT      O10122   6.267   6.409   4.174
 2847WAT     H110123   6.259   6.318   4.147
 2847WAT     H210124   6.226   6.459   4.103
 2848WAT      O10125   6.080   6.587   4.362
 2848WAT     H110126   6.003   6.539   4.391
 2848WAT     H210127   6.145   6.519   4.345
 2849WAT      O10128   5.482   6.618   4.450
 2849WAT     H110129   5.399   6.593   4.490
 2849WAT     H210130   5.543   6.625   4.523
 2850WAT      O10131   6.482   7.028   4.240
 2850WAT     H110132   6.436   6.950   4.273
 2850WAT     H210133   6.564   7.030   4.291
 2851WAT      O10134   5.480   7.022   4.469
 2851WAT     H110135   5.510   6.933   4.452
 2851WAT     H210136   5.554   7.077   4.447
 2852WAT      O10137   5.323   6.114   3.828
 2852WAT     H110138   5.234   6.148   3.818
 2852WAT     H210139   5.351   6.094   3.739
 2853WAT      O10140   5.119   6.374   4.417
 2853WAT     H110141   5.176   6.297   4.417
 2853WAT     H210142   5.119   6.404   4.326
 2854WAT      O10143   6.105   7.256   4.202
 2854WAT     H110144   6.043   7.302   4.145
 2854WAT     H210145   6.190   7.272   4.162
 2855WAT      O10146   6.024   6.855   4.363
 2855WAT     H110147   6.017   6.760   4.347
 2855WAT     H210148   6.101   6.864   4.420
 2856WAT      O10149   5.243   5.915   4.595
 2856WAT     H110150   5.225   5.825   4.623
 2856WAT     H210151   5.203   5.970   4.663
 2857WAT      O10152   6.127   6.135   4.386
 2857WAT     H110153   6.165   6.048   4.374
 2857WAT     H210154   6.118   6.169   4.296
 2858WAT      O10155   5.540   5.972   3.932
 2858WAT     H110156   5.551   6.063   3.962
 2858WAT     H210157   5.449   5.968   3.903
 2859WAT      O10158   6.506   5.885   4.079
 2859WAT     H110159   6.588   5.836   4.083
 2859WAT     H210160   6.509   5.944   4.154
 2860WAT      O10161   5.305   6.165   4.456
 2860WAT     H110162   5.373   6.191   4.518
 2860WAT     H210163   5.274   6.081   4.490
 2861WAT      O10164   5.725   6.269   4.365
 2861WAT     H110165   5.775   6.319   4.429
 2861WAT     H210166   5.778   6.192   4.347
 2862WAT      O10167   6.935   6.086   4.735
 2862WAT     H110168   6.864   6.125   4.683
 2862WAT     H210169   6.961   6.156   4.795
 2863WAT      O10170   5.553   5.733   4.792
 2863WAT     H110171   5.553   5.785   4.711
 2863WAT     H210172   5.470   5.686   4.789
 2864WAT      O10173   6.192   6.745   3.941
 2864WAT     H110174   6.130   6.791   3.885
 2864WAT     H210175   6.243   6.814   3.983
 2865WAT      O10176   5.678   6.697   4.609
 2865WAT     H110177   5.645   6.760   4.674
 2865WAT     H210178   5.696   6.750   4.531
 2866WAT      O10179   6.529   6.079   4.356
 2866WAT     H110180   6.459   6.108   4.414
 2866WAT     H210181   6.565   6.160   4.320
 2867WAT      O10182   5.521   5.904   4.592
 2867WAT     H110183   5.555   5.989   4.563
 2867WAT     H210184   5.427   5.919   4.604
 2868WAT      O10185   5.599   6.894   4.791
 2868WAT     H110186   5.661   6.962   4.763
 2868WAT     H210187   5.513   6.935   4.782
 2869WAT      O10188   5.128   6.813   3.679
 2869WAT     H110189   5.091   6.862   3.606
 2869WAT     H210190   5.154   6.880   3.742
 2870WAT      O10191   6.691   7.040   4.582
 2870WAT     H110192   6.623   7.107   4.582
 2870WAT     H210193   6.745   7.060   4.506
 2871WAT      O10194   6.836   6.023   4.395
 2871WAT     H110195   6.741   6.027   4.408
 2871WAT     H210196   6.869   6.105   4.434
 2872WAT      O10197   5.889   5.653   4.225
 2872WAT     H110198   5.920   5.598   4.153
 2872WAT     H210199   5.796   5.667   4.206
 2873WAT      O10200   6.444   7.225   4.454
 2873WAT     H110201   6.446   7.185   4.367
 2873WAT     H210202   6.389   7.302   4.443
 2874WAT      O10203   6.574   6.897   3.963
 2874WAT     H110204   6.563   6.803   3.975
 2874WAT     H210205   6.574   6.933   4.051
 2875WAT      O10206   6.384   6.715   4.587
 2875WAT     H110207   6.426   6.694   4.503
 2875WAT     H210208   6.457   6.741   4.644
 2876WAT      O10209   6.128   6.460   3.898
 2876WAT     H110210   6.035   6.453   3.921
 2876WAT     H210211   6.143   6.554   3.887
 2877WAT      O10212   6.127   6.087   3.598
 2877WAT     H110213   6.033   6.103   3.607
 2877WAT     H210214   6.159   6.159   3.543
 2878WAT      O10215   6.779   6.555   4.596
 2878WAT     H110216   6.696   6.562   4.548
 2878WAT     H210217   6.838   6.614   4.549
 2879WAT      O10218   6.531   6.616   3.949
 2879WAT     H110219   6.469   6.582   3.884
 2879WAT     H210220   6.529   6.552   4.019
 2880WAT      O10221   6.475   6.234   4.690
 2880WAT     H110222   6.434   6.316   4.716
 2880WAT     H210223   6.402   6.175   4.671
 2881WAT      O10224   5.689   6.512   4.177
 2881WAT     H110225   5.648   6.441   4.127
 2881WAT     H210226   5.697   6.478   4.265
 2882WAT      O10227   5.736   6.881   4.393
 2882WAT     H110228   5.706   6.821   4.325
 2882WAT     H210229   5.831   6.885   4.382
 2883WAT      O10230   5.560   6.190   4.555
 2883WAT     H110231   5.615   6.201   4.477
 2883WAT     H210232   5.611   6.227   4.626
 2884WAT      O10233   6.544   7.238   4.759
 2884WAT     H110234   6.497   7.319   4.740
 2884WAT     H210235   6.476   7.173   4.774
 2885WAT      O10236   5.645   6.855   5.058
 2885WAT     H110237   5.555   6.877   5.083
 2885WAT     H210238   5.647   6.867   4.963
 2886WAT      O10239   6.349   6.540   3.649
 2886WAT     H110240   6.393   6.456   3.635
 2886WAT     H210241   6.420   6.603   3.658
 2887WAT      O10242   5.527   6.542   4.916
 2887WAT     H110243   5.513   6.629   4.952
 2887WAT     H210244   5.439   6.508   4.901
 2888WAT      O10245   6.160   7.034   4.046
 2888WAT     H110246   6.204   7.108   4.005
 2888WAT     H210247   6.154   7.058   4.139
 2889WAT      O10248   5.707   7.136   5.136
 2889WAT     H110249   5.704   7.177   5.050
 2889WAT     H210250   5.691   7.043   5.120
 2890WAT      O10251   6.707   5.665   3.481
 2890WAT     H110252   6.676   5.675   3.571
 2890WAT     H210253   6.783   5.723   3.476
 2891WAT      O10254   5.359   6.402   3.927
 2891WAT     H110255   5.347   6.474   3.865
 2891WAT     H210256   5.328   6.325   3.879
 2892WAT      O10257   6.902   7.214   5.266
 2892WAT     H110258   6.950   7.262   5.334
 2892WAT     H210259   6.964   7.208   5.194
 2893WAT      O10260   5.123   6.719   4.507
 2893WAT     H110261   5.130   6.732   4.413
 2893WAT     H210262   5.184   6.648   4.527
 2894WAT      O10263   5.247   6.889   4.148
 2894WAT     H110264   5.206   6.903   4.063
 2894WAT     H210265   5.336   6.861   4.128
 2895WAT      O10266   6.843   6.934   4.982
 2895WAT     H110267   6.855   6.910   4.890
 2895WAT     H210268   6.847   6.850   5.029
 2896WAT      O10269   6.229   7.304   4.839
 2896WAT     H110270   6.280   7.295   4.919
 2896WAT     H210271   6.145   7.339   4.868
 2897WAT      O10272   6.426   7.332   3.782
 2897WAT     H110273   6.410   7.303   3.872
 2897WAT     H210274   6.410   7.255   3.728
 2898WAT      O10275   5.674   7.310   3.960
 2898WAT     H110276   5.657   7.219   3.938
 2898WAT     H210277   5.589   7.346   3.984
 2899WAT      O10278   6.397   7.083   3.638
 2899WAT     H110279   6.327   7.083   3.572
 2899WAT     H210280   6.471   7.041   3.595
 2900WAT      O10281   6.353   7.246   4.045
 2900WAT     H110282   6.399   7.168   4.077
 2900WAT     H210283   6.387   7.317   4.100
 2901WAT      O10284   6.828   6.139   5.079
 2901WAT     H110285   6.766   6.190   5.026
 2901WAT     H210286   6.796   6.049   5.073
 2902WAT      O10287   5.128   6.823   4.761
 2902WAT     H110288   5.144   6.776   4.679
 2902WAT     H210289   5.175   6.772   4.828
 2903WAT      O10290   5.605   5.736   4.265
 2903WAT     H110291   5.561   5.814   4.232
 2903WAT     H210292   5.661   5.768   4.336
 2904WAT      O10293   6.034   6.023   4.825
 2904WAT     H110294   5.988   6.044   4.906
 2904WAT     H210295   5.994   5.941   4.795
 2905WAT      O10296   6.534   6.145   4.938
 2905WAT     H110297   6.449   6.115   4.970
 2905WAT     H210298   6.518   6.169   4.847
 2906WAT      O10299   6.244   6.295   5.148
 2906WAT     H110300   6.276   6.212   5.114
 2906WAT     H210301   6.322   6.347   5.163
 2907WAT      O10302   5.917   5.698   3.753
 2907WAT     H110303   5.855   5.698   3.825
 2907WAT     H210304   5.908   5.612   3.713
 2908WAT      O10305   5.809   5.791   4.451
 2908WAT     H110306   5.839   5.881   4.443
 2908WAT     H210307   5.864   5.742   4.389
 2909WAT      O10308   5.585   6.249   4.038
 2909WAT     H110309   5.562   6.227   4.128
 2909WAT     H210310   5.506   6.292   4.003
 2910WAT      O10311   6.307   6.249   3.898
 2910WAT     H110312   6.248   6.322   3.879
 2910WAT     H210313   6.362   6.243   3.819
 2911WAT      O10314   5.829   6.338   5.104
 2911WAT     H110315   5.819   6.244   5.089
 2911WAT     H210316   5.913   6.361   5.065
 2912WAT      O10317   6.168   6.113   4.101
 2912WAT     H110318   6.207   6.145   4.019
 2912WAT     H210319   6.204   6.025   4.112
 2913WAT      O10320   5.342   5.980   4.920
 2913WAT     H110321   5.302   6.064   4.940
 2913WAT     H210322   5.273   5.916   4.939
 2914WAT      O10323   5.999   5.988   5.227
 2914WAT     H110324   5.930   5.969   5.290
 2914WAT     H210325   6.073   6.016   5.280
 2915WAT      O10326   5.072   5.772   4.323
 2915WAT     H110327   5.043   5.829   4.394
 2915WAT     H210328   5.146   5.724   4.359
 2916WAT      O10329   5.090   6.166   3.444
 2916WAT     H110330   5.082   6.260   3.458
 2916WAT     H210331   5.055   6.152   3.356
 2917WAT      O10332   6.227   6.372   4.510
 2917WAT     H110333   6.154   6.423   4.545
 2917WAT     H210334   6.187   6.290   4.480
 2918WAT      O10335   5.870   6.039   4.351
 2918WAT     H110336   5.871   5.995   4.266
 2918WAT     H210337   5.960   6.072   4.361
 2919WAT      O10338   5.455   6.028   4.247
 2919WAT     H110339   5.421   6.075   4.322
 2919WAT     H210340   5.379   5.982   4.211
 2920WAT      O10341   5.877   6.140   3.650
 2920WAT     H110342   5.889   6.135   3.745
 2920WAT     H210343   5.838   6.226   3.634
 2921WAT      O10344   6.273   5.917   4.451
 2921WAT     H110345   6.275   5.962   4.536
 2921WAT     H210346   6.248   5.827   4.473
 2922WAT      O10347   5.778   6.371   3.590
 2922WAT     H110348   5.721   6.326   3.527
 2922WAT     H210349   5.849   6.406   3.536
 2923WAT      O10350   6.616   5.659   5.035
 2923WAT     H110351   6.648   5.585   5.088
 2923WAT     H210352   6.619   5.627   4.945
 2924WAT      O10353   5.286   6.761   4.977
 2924WAT     H110354   5.247   6.697   5.037
 2924WAT     H210355   5.317   6.831   5.034
 2925WAT      O10356   5.901   6.445   4.525
 2925WAT     H110357   5.937   6.398   4.600
 2925WAT     H210358   5.882   6.533   4.559
 2926WAT      O10359   5.187   5.920   4.138
 2926WAT     H110360   5.158   5.883   4.222
 2926WAT     H210361   5.181   5.847   4.077
 2927WAT      O10362   5.680   6.349   4.757
 2927WAT     H110363   5.649   6.437   4.780
 2927WAT     H210364   5.775   6.355   4.761
 2928WAT      O10365   5.532   6.770   3.817
 2928WAT     H110366   5.455   6.716   3.801
 2928WAT     H210367   5.605   6.718   3.783
 2929WAT      O10368   6.608   6.670   4.396
 2929WAT     H110369   6.680   6.719   4.357
 2929WAT     H210370   6.588   6.602   4.332
 2930WAT      O10371   6.154   5.809   3.810
 2930WAT     H110372   6.073   5.759   3.803
 2930WAT     H210373   6.135   5.893   3.769
 2931WAT      O10374   6.146   6.677   4.985
 2931WAT     H110375   6.140   6.585   4.959
 2931WAT     H210376   6.083   6.687   5.056
 2932WAT      O10377   6.426   6.246   3.640
 2932WAT     H110378   6.515   6.278   3.622
 2932WAT     H210379   6.423   6.159   3.601
 2933WAT      O10380   5.537   6.737   4.181
 2933WAT     H110381   5.589   6.657   4.175
 2933WAT     H210382   5.492   6.731   4.265
 2934WAT      O10383   6.025   6.864   3.708
 2934WAT     H110384   6.060   6.938   3.658
 2934WAT     H210385   5.943   6.895   3.744
 2935WAT      O10386   5.285   6.434   4.872
 2935WAT     H110387   5.249   6.500   4.931
 2935WAT     H210388   5.256   6.350   4.909
 2936WAT      O10389   5.605   6.479   5.160
 2936WAT     H110390   5.575   6.494   5.071
 2936WAT     H210391   5.682   6.423   5.151
 2937WAT      O10392   6.140   6.959   4.960
 2937WAT     H110393   6.141   6.866   4.938
 2937WAT     H210394   6.069   6.968   5.024
 2938WAT      O10395   6.653   6.377   3.587
 2938WAT     H110396   6.645   6.421   3.502
 2938WAT     H210397   6.725   6.423   3.630
 2939WAT      O10398   6.761   6.623   4.894
 2939WAT     H110399   6.688   6.682   4.875
 2939WAT     H210400   6.813   6.622   4.815
 2940WAT      O10401   6.756   7.063   3.860
 2940WAT     H110402   6.692   6.997   3.887
 2940WAT     H210403   6.717   7.103   3.782
 2941WAT      O10404   6.314   6.796   4.244
 2941WAT     H110405   6.349   6.736   4.178
 2941WAT     H210406   6.225   6.763   4.261
 2942WAT      O10407   5.922   6.872   3.985
 2942WAT     H110408   5.991   6.926   4.023
 2942WAT     H210409   5.844   6.926   3.989
 2943WAT      O10410   5.136   6.433   3.534
 2943WAT     H110411   5.223   6.462   3.563
 2943WAT     H210412   5.087   6.515   3.523
 2944WAT      O10413   5.853   6.572   3.946
 2944WAT     H110414   5.898   6.653   3.969
 2944WAT     H210415   5.817   6.540   4.029
 2945WAT      O10416   6.083   7.123   4.669
 2945WAT     H110417   6.147   7.144   4.737
 2945WAT     H210418   6.119   7.047   4.624
 2946WAT      O10419   5.443   5.607   3.993
 2946WAT     H110420   5.430   5.606   4.088
 2946WAT     H210421   5.360   5.640   3.958
 2947WAT      O10422   6.210   6.924   4.541
 2947WAT     H110423   6.274   6.853   4.552
 2947WAT     H210424   6.263   7.002   4.523
 2948WAT      O10425   6.595   6.952   3.513
 2948WAT     H110426   6.572   6.880   3.573
 2948WAT     H210427   6.556   6.927   3.430
 2949WAT      O10428   6.388   7.003   4.861
 2949WAT     H110429   6.421   7.062   4.929
 2949WAT     H210430   6.296   6.990   4.884
 2950WAT      O10431   5.173   7.355   3.591
 2950WAT     H110432   5.209   7.415   3.525
 2950WAT     H210433   5.159   7.409   3.668
 2951WAT      O10434   5.143   5.782   4.940
 2951WAT     H110435   5.071   5.802   5.000
 2951WAT     H210436   5.185   5.705   4.977
 2952WAT      O10437   6.553   6.744   3.679
 2952WAT     H110438   6.524   6.790   3.758
 2952WAT     H210439   6.632   6.698   3.706
 2953WAT      O10440   5.171   7.181   5.038
 2953WAT     H110441   5.182   7.087   5.024
 2953WAT     H210442   5.106   7.208   4.973
 2954WAT      O10443   5.971   7.008   5.178
 2954WAT     H110444   5.938   6.937   5.233
 2954WAT     H210445   5.903   7.076   5.186
 2955WAT      O10446   5.775   7.093   3.673
 2955WAT     H110447   5.774   7.166   3.611
 2955WAT     H210448   5.683   7.068   3.682
 2956WAT      O10449   5.335   6.615   3.747
 2956WAT     H110450   5.274   6.689   3.748
 2956WAT     H210451   5.382   6.624   3.664
 2957WAT      O10452   6.292   6.032   4.715
 2957WAT     H110453   6.329   5.950   4.747
 2957WAT     H210454   6.206   6.038   4.756
 2958WAT      O10455   6.629   5.927   3.795
 2958WAT     H110456   6.566   5.938   3.724
 2958WAT     H210457   6.579   5.949   3.874
 2959WAT      O10458   6.073   7.099   3.539
 2959WAT     H110459   6.083   7.079   3.446
 2959WAT     H210460   5.983   7.074   3.559
 2960WAT      O10461   5.826   6.155   3.937
 2960WAT     H110462   5.755   6.202   3.981
 2960WAT     H210463   5.854   6.089   4.000
 2961WAT      O10464   5.988   6.297   4.737
 2961WAT     H110465   6.038   6.345   4.803
 2961WAT     H210466   6.002   6.205   4.758
 2962WAT      O10467   6.229   5.828   4.081
 2962WAT     H110468   6.216   5.829   3.986
 2962WAT     H210469   6.324   5.832   4.093
 2963WAT      O10470   5.937   7.351   4.008
 2963WAT     H110471   5.963   7.347   3.916
 2963WAT     H210472   5.843   7.338   4.008
 2964WAT      O10473   5.646   5.986   3.675
 2964WAT     H110474   5.731   6.030   3.668
 2964WAT     H210475   5.609   6.017   3.757
 2965WAT      O10476   6.709   5.919   4.821
 2965WAT     H110477   6.658   5.993   4.855
 2965WAT     H210478   6.790   5.958   4.790
 2966WAT      O10479   6.538   6.443   4.166
 2966WAT     H110480   6.444   6.445   4.183
 2966WAT     H210481   6.569   6.364   4.210
 2967WAT      O10482   5.536   6.611   3.522
 2967WAT     H110483   5.612   6.600   3.578
 2967WAT     H210484   5.544   6.542   3.457
 2968WAT      O10485   5.405   6.355   3.590
 2968WAT     H110486   5.413   6.260   3.601
 2968WAT     H210487   5.494   6.388   3.601
 2969WAT      O10488   6.738   7.160   4.333
 2969WAT     H110489   6.751   7.242   4.381
 2969WAT     H210490   6.825   7.139   4.299
 2970WAT      O10491   5.485   7.369   4.301
 2970WAT     H110492   5.559   7.315   4.328
 2970WAT     H210493   5.524   7.456   4.287
 2971WAT      O10494   5.174   6.976   3.888
 2971WAT     H110495   5.081   7.000   3.887
 2971WAT     H210496   5.220   7.059   3.876
 2972WAT      O10497   5.386   7.288   5.219
 2972WAT     H110498   5.466   7.320   5.261
 2972WAT     H210499   5.334   7.252   5.292
 2973WAT      O10500   5.796   7.287   3.483
 2973WAT     H110501   5.876   7.316   3.438
 2973WAT     H210502   5.744   7.244   3.415
 2974WAT      O10503   6.270   6.899   5.214
 2974WAT     H110504   6.209   6.901   5.140
 2974WAT     H210505   6.239   6.826   5.268
 2975WAT      O10506   6.413   7.272   5.075
 2975WAT     H110507   6.508   7.263   5.070
 2975WAT     H210508   6.398   7.338   5.143
 2976WAT      O10509   6.702   7.209   3.625
 2976WAT     H110510   6.673   7.168   3.544
 2976WAT     H210511   6.682   7.302   3.613
 2977WAT      O10512   5.158   6.537   5.114
 2977WAT     H110513   5.208   6.479   5.171
 2977WAT     H210514   5.084   6.565   5.168
 2978WAT      O10515   5.848   6.809   3.469
 2978WAT     H110516   5.838   6.747   3.542
 2978WAT     H210517   5.831   6.756   3.391
 2979WAT      O10518   5.863   6.677   5.067
 2979WAT     H110519   5.787   6.734   5.059
 2979WAT     H210520   5.881   6.648   4.978
 2980WAT      O10521   6.172   6.715   3.530
 2980WAT     H110522   6.117   6.760   3.594
 2980WAT     H210523   6.234   6.665   3.582
 2981WAT      O10524   6.578   6.850   5.123
 2981WAT     H110525   6.652   6.884   5.073
 2981WAT     H210526   6.501   6.867   5.068
 2982WAT      O10527   5.361   6.351   5.203
 2982WAT     H110528   5.365   6.321   5.294
 2982WAT     H210529   5.447   6.391   5.187
 2983WAT      O10530   5.739   6.611   3.719
 2983WAT     H110531   5.781   6.594   3.804
 2983WAT     H210532   5.751   6.530   3.670
 2984WAT      O10533   5.555   6.209   5.000
 2984WAT     H110534   5.502   6.160   4.937
 2984WAT     H210535   5.622   6.252   4.947
 2985WAT      O10536   5.990   6.513   3.444
 2985WAT     H110537   6.042   6.442   3.407
 2985WAT     H210538   6.055   6.577   3.474
 2986WAT      O10539   6.445   6.656   4.976
 2986WAT     H110540   6.486   6.671   5.061
 2986WAT     H210541   6.352   6.668   4.993
 2987WAT      O10542   6.492   6.390   5.177
 2987WAT     H110543   6.550   6.314   5.168
 2987WAT     H210544   6.510   6.443   5.099
 2988WAT      O10545   5.604   5.906   5.008
 2988WAT     H110546   5.595   5.844   4.936
 2988WAT     H210547   5.546   5.978   4.985
 2989WAT      O10548   5.881   5.761   4.711
 2989WAT     H110549   5.836   5.763   4.627
 2989WAT     H210550   5.817   5.721   4.771
 2990WAT      O10551   5.921   6.651   4.773
 2990WAT     H110552   5.963   6.735   4.756
 2990WAT     H210553   5.829   6.665   4.750
 2991WAT      O10554   6.155   6.424   4.912
 2991WAT     H110555   6.167   6.364   4.986
 2991WAT     H210556   6.241   6.428   4.870
 2992WAT      O10557   6.389   6.479   4.769
 2992WAT     H110558   6.336   6.532   4.709
 2992WAT     H210559   6.423   6.543   4.832
 2993WAT      O10560   5.629   6.218   3.414
 2993WAT     H110561   5.608   6.132   3.450
 2993WAT     H210562   5.611   6.210   3.320
 2994WAT      O10563   5.706   7.281   4.885
 2994WAT     H110564   5.652   7.354   4.853
 2994WAT     H210565   5.732   7.234   4.806
 2995WAT      O10566   5.832   6.078   5.038
 2995WAT     H110567   5.890   6.047   5.106
 2995WAT     H210568   5.750   6.031   5.053
 2996WAT      O10569   6.313   6.040   5.061
 2996WAT     H110570   6.245   5.974   5.054
 2996WAT     H210571   6.385   5.995   5.105
 2997WAT      O10572   6.376   5.699   3.667
 2997WAT     H110573   6.404   5.615   3.702
 2997WAT     H210574   6.299   5.723   3.718
 2998WAT      O10575   5.992   7.405   4.911
 2998WAT     H110576   5.984   7.495   4.942
 2998WAT     H210577   5.902   7.373   4.908
 2999WAT      O10578   5.830   5.823   3.511
 2999WAT     H110579   5.795   5.755   3.453
 2999WAT     H210580   5.850   5.777   3.593
 3000WAT      O10581   6.047   7.321   3.673
 3000WAT     H110582   6.136   7.355   3.675
 3000WAT     H210583   6.050   7.249   3.610
 3001WAT      O10584   5.411   6.859   3.496
 3001WAT     H110585   5.454   6.913   3.562
 3001WAT     H210586   5.459   6.776   3.497
 3002WAT      O10587   5.132   7.138   4.241
 3002WAT     H110588   5.165   7.051   4.218
 3002WAT     H210589   5.175   7.158   4.324
 3003WAT      O10590   5.592   6.971   4.007
 3003WAT     H110591   5.562   6.958   4.097
 3003WAT     H210592   5.581   6.885   3.966
 3004WAT      O10593   5.181   7.224   4.515
 3004WAT     H110594   5.137   7.242   4.598
 3004WAT     H210595   5.238   7.300   4.501
 3005WAT      O10596   6.745   7.174   4.944
 3005WAT     H110597   6.685   7.180   4.869
 3005WAT     H210598   6.758   7.081   4.957
 3006WAT      O10599   6.869   6.949   3.477
 3006WAT     H110600   6.786   6.955   3.525
 3006WAT     H210601   6.886   7.038   3.447
 3007WAT      O10602   6.814   6.623   3.728
 3007WAT     H110603   6.890   6.680   3.738
 3007WAT     H210604   6.816   6.566   3.805
 3008WAT      O10605   5.164   6.475   4.151
 3008WAT     H110606   5.099   6.449   4.086
 3008WAT     H210607   5.248   6.465   4.106
 3009WAT      O10608   6.915   6.709   4.212
 3009WAT     H110609   6.952   6.630   4.172
 3009WAT     H210610   6.979   6.778   4.194
 3010WAT      O10611   6.613   6.847   4.754
 3010WAT     H110612   6.532   6.890   4.780
 3010WAT     H210613   6.654   6.908   4.692
 3011WAT      O10614   6.819   6.652   3.444
 3011WAT     H110615   6.847   6.743   3.431
 3011WAT     H210616   6.801   6.646   3.537
 3012WAT      O10617   6.459   5.955   3.573
 3012WAT     H110618   6.501   5.936   3.489
 3012WAT     H210619   6.429   5.870   3.604
 3013WAT      O10620   6.809   6.446   3.943
 3013WAT     H110621   6.772   6.369   3.900
 3013WAT     H210622   6.736   6.484   3.992
 3014WAT      O10623   5.268   6.514   4.605
 3014WAT     H110624   5.305   6.505   4.693
 3014WAT     H210625   5.211   6.438   4.595
 3015WAT      O10626   6.748   6.361   4.906
 3015WAT     H110627   6.725   6.338   4.816
 3015WAT     H210628   6.774   6.453   4.902
 3016WAT      O10629   5.223   6.205   4.995
 3016WAT     H110630   5.134   6.202   5.029
 3016WAT     H210631   5.277   6.225   5.072
 3017WAT      O10632   6.592   5.883   5.184
 3017WAT     H110633   6.680   5.884   5.222
 3017WAT     H210634   6.593   5.810   5.123
 3018WAT      O10635   5.086   6.196   3.745
 3018WAT     H110636   4.995   6.223   3.728
 3018WAT     H210637   5.134   6.224   3.667
 3019WAT      O10638   6.737   6.269   4.273
 3019WAT     H110639   6.789   6.219   4.210
 3019WAT     H210640   6.795   6.282   4.347
 3020WAT      O10641   6.755   6.277   4.625
 3020WAT     H110642   6.660   6.274   4.637
 3020WAT     H210643   6.773   6.368   4.602
 3021WAT      O10644   5.340   6.102   3.536
 3021WAT     H110645   5.411   6.060   3.488
 3021WAT     H210646   5.268   6.109   3.473
 3022WAT      O10647   5.305   5.708   3.440
 3022WAT     H110648   5.377   5.762   3.472
 3022WAT     H210649   5.332   5.680   3.353
 3023WAT      O10650   6.686   6.194   3.867
 3023WAT     H110651   6.735   6.171   3.945
 3023WAT     H210652   6.666   6.111   3.825
 3024WAT      O10653   5.274   5.633   4.430
 3024WAT     H110654   5.338   5.578   4.386
 3024WAT     H210655   5.316   5.658   4.512
 3025WAT      O10656   6.828   6.058   4.120
 3025WAT     H110657   6.817   6.043   4.214
 3025WAT     H210658   6.905   6.005   4.096
 3026WAT      O10659   6.663   5.652   4.766
 3026WAT     H110660   6.727   5.713   4.803
 3026WAT     H210661   6.678   5.656   4.672
 3027WAT      O10662   6.917   5.841   3.444
 3027WAT     H110663   7.010   5.828   3.423
 3027WAT     H210664   6.915   5.849   3.540
 3028WAT      O10665   6.925   5.918   3.707
 3028WAT     H110666   6.845   5.912   3.760
 3028WAT     H210667   6.945   6.012   3.706
 3029WAT      O10668   6.619   7.322   4.106
 3029WAT     H110669   6.679   7.290   4.039
 3029WAT     H210670   6.645   7.275   4.185
 3030WAT      O10671   5.249   5.648   4.705
 3030WAT     H110672   5.214   5.694   4.781
 3030WAT     H210673   5.216   5.559   4.713
 3031WAT      O10674   5.410   6.965   5.121
 3031WAT     H110675   5.405   6.928   5.209
 3031WAT     H210676   5.423   7.059   5.135
 3032WAT      O10677   5.780   7.121   4.681
 3032WAT     H110678   5.756   7.148   4.593
 3032WAT     H210679   5.874   7.138   4.687
 3033WAT      O10680   6.000   5.767   5.057
 3033WAT     H110681   5.994   5.826   5.132
 3033WAT     H210682   6.094   5.757   5.042
 3034WAT      O10683   6.264   5.733   5.021
 3034WAT     H110684   6.325   5.765   4.955
 3034WAT     H210685   6.318   5.684   5.083
 3035WAT      O10686   6.906   7.323   4.761
 3035WAT     H110687   6.856   7.363   4.690
 3035WAT     H210688   6.845   7.260   4.801
 3036WAT      O10689   5.316   5.601   5.032
 3036WAT     H110690   5.371   5.583   4.956
 3036WAT     H210691   5.323   5.522   5.086
 3037WAT      O10692   5.393   7.260   4.833
 3037WAT     H110693   5.334   7.247   4.907
 3037WAT     H210694   5.393   7.176   4.787
 3038WAT      O10695   6.338   5.589   4.653
 3038WAT     H110696   6.251   5.623   4.633
 3038WAT     H210697   6.327   5.542   4.736
 3039WAT      O10698   6.429   5.810   4.792
 3039WAT     H110699   6.396   5.729   4.754
 3039WAT     H210700   6.524   5.806   4.779
 3040WAT      O10701   6.674   7.387   4.489
 3040WAT     H110702   6.628   7.462   4.452
 3040WAT     H210703   6.611   7.315   4.483
 3041WAT      O10704   5.357   6.997   4.728
 3041WAT     H110705   5.284   6.935   4.721
 3041WAT     H210706   5.363   7.036   4.641
 3042WAT      O10707   5.717   7.218   4.407
 3042WAT     H110708   5.769   7.157   4.354
 3042WAT     H210709   5.782   7.268   4.456
 3043WAT      O10710   5.991   7.307   4.489
 3043WAT     H110711   6.020   7.282   4.402
 3043WAT     H210712   6.042   7.252   4.548
 3044WAT      O10713   6.113   5.681   4.547
 3044WAT     H110714   6.034   5.728   4.575
 3044WAT     H210715   6.083   5.591   4.536
 3045WAT      O10716   6.568   5.751   4.352
 3045WAT     H110717   6.612   5.746   4.267
 3045WAT     H210718   6.541   5.843   4.359
 3046WAT      O10719   6.754   5.714   4.153
 3046WAT     H110720   6.748   5.620   4.138
 3046WAT     H210721   6.832   5.725   4.207
 3047WAT      O10722   5.185   7.328   4.049
 3047WAT     H110723   5.168   7.265   4.119
 3047WAT     H210724   5.098   7.349   4.014
 3048WAT      O10725   5.247   5.711   3.799
 3048WAT     H110726   5.323   5.723   3.742
 3048WAT     H210727   5.201   5.795   3.795
 3049WAT      O10728   5.901   5.923   4.098
 3049WAT     H110729   5.820   5.885   4.064
 3049WAT     H210730   5.952   5.847   4.129
 3050WAT      O10731   6.352   5.589   4.222
 3050WAT     H110732   6.412   5.646   4.270
 3050WAT     H210733   6.277   5.646   4.200
 3051WAT      O10734   6.666   5.629   3.750
 3051WAT     H110735   6.685   5.719   3.776
 3051WAT     H210736   6.587   5.606   3.799
 3052WAT      O10737   5.346   7.198   3.794
 3052WAT     H110738   5.293   7.236   3.723
 3052WAT     H210739   5.338   7.260   3.866
 3053WAT      O10740   5.484   5.764   3.653
 3053WAT     H110741   5.537   5.685   3.641
 3053WAT     H210742   5.548   5.832   3.677
 3054WAT      O10743   5.704   5.738   3.959
 3054WAT     H110744   5.641   5.668   3.976
 3054WAT     H210745   5.650   5.814   3.937
 3055WAT      O10746   5.998   7.399   5.226
 3055WAT     H110747   6.090   7.376   5.230
 3055WAT     H210748   5.996   7.482   5.178
 3056WAT      O10749   6.821   7.354   3.926
 3056WAT     H110750   6.839   7.285   3.861
 3056WAT     H210751   6.751   7.406   3.887
 3057WAT      O10752   5.716   5.666   5.202
 3057WAT     H110753   5.688   5.716   5.126
 3057WAT     H210754   5.755   5.586   5.166
 3058WAT      O10755   5.605   7.392   3.681
 3058WAT     H110756   5.679   7.364   3.626
 3058WAT     H210757   5.631   7.369   3.770
 3059WAT      O10758   5.522   7.004   3.682
 3059WAT     H110759   5.459   7.051   3.736
 3059WAT     H210760   5.533   6.920   3.725
 3060WAT      O10761   6.376   5.607   5.260
 3060WAT     H110762   6.365   5.639   5.350
 3060WAT     H210763   6.458   5.647   5.231
 3061WAT      O10764   6.654   7.322   5.208
 3061WAT     H110765   6.734   7.272   5.188
 3061WAT     H210766   6.684   7.390   5.269
 3062WAT      O10767   6.267   6.409   2.297
 3062WAT     H110768   6.259   6.318   2.270
 3062WAT     H210769   6.226   6.459   2.226
 3063WAT      O10770   6.080   6.587   2.485
 3063WAT     H110771   6.003   6.539   2.514
 3063WAT     H210772   6.145   6.519   2.467
 3064WAT      O10773   5.482   6.618   2.572
 3064WAT     H110774   5.399   6.593   2.612
 3064WAT     H210775   5.543   6.625   2.646
 3065WAT      O10776   6.482   7.028   2.363
 3065WAT     H110777   6.436   6.950   2.396
 3065WAT     H210778   6.564   7.030   2.413
 3066WAT      O10779   5.480   7.022   2.592
 3066WAT     H110780   5.510   6.933   2.574
 3066WAT     H210781   5.554   7.077   2.569
 3067WAT      O10782   5.323   6.114   1.951
 3067WAT     H110783   5.234   6.148   1.941
 3067WAT     H210784   5.351   6.094   1.862
 3068WAT      O10785   6.105   7.256   2.325
 3068WAT     H110786   6.043   7.302   2.268
 3068WAT     H210787   6.190   7.272   2.285
 3069WAT      O10788   6.024   6.855   2.485
 3069WAT     H110789   6.017   6.760   2.469
 3069WAT     H210790   6.101   6.864   2.543
 3070WAT      O10791   5.540   5.972   2.054
 3070WAT     H110792   5.551   6.063   2.085
 3070WAT     H210793   5.449   5.968   2.025
 3071WAT      O10794   6.506   5.885   2.201
 3071WAT     H110795   6.588   5.836   2.206
 3071WAT     H210796   6.509   5.944   2.277
 3072WAT      O10797   6.935   6.086   2.858
 3072WAT     H110798   6.864   6.125   2.806
 3072WAT     H210799   6.961   6.156   2.918
 3073WAT      O10800   6.192   6.745   2.064
 3073WAT     H110801   6.130   6.791   2.008
 3073WAT     H210802   6.243   6.814   2.106
 3074WAT      O10803   5.678   6.697   2.732
 3074WAT     H110804   5.645   6.760   2.796
 3074WAT     H210805   5.696   6.750   2.654
 3075WAT      O10806   6.529   6.079   2.479
 3075WAT     H110807   6.459   6.108   2.537
 3075WAT     H210808   6.565   6.160   2.443
 3076WAT      O10809   5.599   6.894   2.913
 3076WAT     H110810   5.661   6.962   2.885
 3076WAT     H210811   5.513   6.935   2.904
 3077WAT      O10812   5.128   6.813   1.801
 3077WAT     H110813   5.091   6.862   1.728
 3077WAT     H210814   5.154   6.880   1.865
 3078WAT      O10815   6.691   7.040   2.705
 3078WAT     H110816   6.623   7.107   2.704
 3078WAT     H210817   6.745   7.060   2.628
 3079WAT      O10818   6.836   6.023   2.518
 3079WAT     H110819   6.741   6.027   2.531
 3079WAT     H210820   6.869   6.105   2.556
 3080WAT      O10821   6.444   7.225   2.576
 3080WAT     H110822   6.446   7.185   2.490
 3080WAT     H210823   6.389   7.302   2.566
 3081WAT      O10824   6.574   6.897   2.085
 3081WAT     H110825   6.563   6.803   2.098
 3081WAT     H210826   6.574   6.933   2.174
 3082WAT      O10827   6.384   6.715   2.709
 3082WAT     H110828   6.426   6.694   2.626
 3082WAT     H210829   6.457   6.741   2.766
 3083WAT      O10830   6.128   6.460   2.021
 3083WAT     H110831   6.035   6.453   2.044
 3083WAT     H210832   6.143   6.554   2.009
 3084WAT      O10833   6.127   6.087   1.721
 3084WAT     H110834   6.033   6.103   1.729
 3084WAT     H210835   6.159   6.159   1.666
 3085WAT      O10836   6.779   6.555   2.718
 3085WAT     H110837   6.696   6.562   2.671
 3085WAT     H210838   6.838   6.614   2.672
 3086WAT      O10839   6.531   6.616   2.071
 3086WAT     H110840   6.469   6.582   2.007
 3086WAT     H210841   6.529   6.552   2.142
 3087WAT      O10842   6.475   6.234   2.813
 3087WAT     H110843   6.434   6.316   2.838
 3087WAT     H210844   6.402   6.175   2.794
 3088WAT      O10845   5.689   6.512   2.299
 3088WAT     H110846   5.648   6.441   2.250
 3088WAT     H210847   5.697   6.478   2.388
 3089WAT      O10848   5.736   6.881   2.515
 3089WAT     H110849   5.706   6.821   2.448
 3089WAT     H210850   5.831   6.885   2.504
 3090WAT      O10851   6.544   7.238   2.882
 3090WAT     H110852   6.497   7.319   2.862
 3090WAT     H210853   6.476   7.173   2.897
 3091WAT      O10854   5.645   6.855   3.181
 3091WAT     H110855   5.555   6.877   3.205
 3091WAT     H210856   5.647   6.867   3.086
 3092WAT      O10857   6.349   6.540   1.772
 3092WAT     H110858   6.393   6.456   1.757
 3092WAT     H210859   6.420   6.603   1.781
 3093WAT      O10860   5.527   6.542   3.038
 3093WAT     H110861   5.513   6.629   3.075
 3093WAT     H210862   5.439   6.508   3.024
 3094WAT      O10863   6.160   7.034   2.169
 3094WAT     H110864   6.204   7.108   2.127
 3094WAT     H210865   6.154   7.058   2.261
 3095WAT      O10866   5.707   7.136   3.259
 3095WAT     H110867   5.704   7.177   3.172
 3095WAT     H210868   5.691   7.043   3.243
 3096WAT      O10869   6.707   5.665   1.603
 3096WAT     H110870   6.676   5.675   1.693
 3096WAT     H210871   6.783   5.723   1.598
 3097WAT      O10872   5.359   6.402   2.049
 3097WAT     H110873   5.347   6.474   1.988
 3097WAT     H210874   5.328   6.325   2.001
 3098WAT      O10875   6.902   7.214   3.389
 3098WAT     H110876   6.950   7.262   3.457
 3098WAT     H210877   6.964   7.208   3.316
 3099WAT      O10878   5.123   6.719   2.630
 3099WAT     H110879   5.130   6.732   2.535
 3099WAT     H210880   5.184   6.648   2.649
 3100WAT      O10881   5.247   6.889   2.271
 3100WAT     H110882   5.206   6.903   2.185
 3100WAT     H210883   5.336   6.861   2.251
 3101WAT      O10884   6.843   6.934   3.105
 3101WAT     H110885   6.855   6.910   3.013
 3101WAT     H210886   6.847   6.850   3.152
 3102WAT      O10887   6.229   7.304   2.962
 3102WAT     H110888   6.280   7.295   3.042
 3102WAT     H210889   6.145   7.339   2.991
 3103WAT      O10890   6.426   7.332   1.904
 3103WAT     H110891   6.410   7.303   1.994
 3103WAT     H210892   6.410   7.255   1.851
 3104WAT      O10893   5.674   7.310   2.082
 3104WAT     H110894   5.657   7.219   2.061
 3104WAT     H210895   5.589   7.346   2.106
 3105WAT      O10896   6.397   7.083   1.760
 3105WAT     H110897   6.327   7.083   1.694
 3105WAT     H210898   6.471   7.041   1.717
 3106WAT      O10899   6.353   7.246   2.168
 3106WAT     H110900   6.399   7.168   2.199
 3106WAT     H210901   6.387   7.317   2.222
 3107WAT      O10902   6.828   6.139   3.201
 3107WAT     H110903   6.766   6.190   3.148
 3107WAT     H210904   6.796   6.049   3.195
 3108WAT      O10905   5.128   6.823   2.884
 3108WAT     H110906   5.144   6.776   2.802
 3108WAT     H210907   5.175   6.772   2.950
 3109WAT      O10908   6.534   6.145   3.061
 3109WAT     H110909   6.449   6.115   3.093
 3109WAT     H210910   6.518   6.169   2.970
 3110WAT      O10911   6.244   6.295   3.271
 3110WAT     H110912   6.276   6.212   3.237
 3110WAT     H210913   6.322   6.347   3.285
 3111WAT      O10914   5.917   5.698   1.875
 3111WAT     H110915   5.855   5.698   1.948
 3111WAT     H210916   5.908   5.612   1.836
 3112WAT      O10917   5.585   6.249   2.160
 3112WAT     H110918   5.562   6.227   2.251
 3112WAT     H210919   5.506   6.292   2.126
 3113WAT      O10920   6.307   6.249   2.020
 3113WAT     H110921   6.248   6.322   2.002
 3113WAT     H210922   6.362   6.243   1.942
 3114WAT      O10923   5.829   6.338   3.227
 3114WAT     H110924   5.819   6.244   3.212
 3114WAT     H210925   5.913   6.361   3.187
 3115WAT      O10926   6.168   6.113   2.223
 3115WAT     H110927   6.207   6.145   2.142
 3115WAT     H210928   6.204   6.025   2.235
 3116WAT      O10929   5.999   5.988   3.349
 3116WAT     H110930   5.930   5.969   3.413
 3116WAT     H210931   6.073   6.016   3.402
 3117WAT      O10932   5.090   6.166   1.566
 3117WAT     H110933   5.082   6.260   1.581
 3117WAT     H210934   5.055   6.152   1.479
 3118WAT      O10935   6.227   6.372   2.633
 3118WAT     H110936   6.154   6.423   2.668
 3118WAT     H210937   6.187   6.290   2.603
 3119WAT      O10938   5.877   6.140   1.772
 3119WAT     H110939   5.889   6.135   1.867
 3119WAT     H210940   5.838   6.226   1.757
 3120WAT      O10941   5.778   6.371   1.712
 3120WAT     H110942   5.721   6.326   1.649
 3120WAT     H210943   5.849   6.406   1.659
 3121WAT      O10944   6.616   5.659   3.158
 3121WAT     H110945   6.648   5.585   3.210
 3121WAT     H210946   6.619   5.627   3.068
 3122WAT      O10947   5.286   6.761   3.100
 3122WAT     H110948   5.247   6.697   3.160
 3122WAT     H210949   5.317   6.831   3.157
 3123WAT      O10950   5.901   6.445   2.648
 3123WAT     H110951   5.937   6.398   2.722
 3123WAT     H210952   5.882   6.533   2.682
 3124WAT      O10953   5.532   6.770   1.939
 3124WAT     H110954   5.455   6.716   1.923
 3124WAT     H210955   5.605   6.718   1.906
 3125WAT      O10956   6.608   6.670   2.519
 3125WAT     H110957   6.680   6.719   2.480
 3125WAT     H210958   6.588   6.602   2.454
 3126WAT      O10959   6.154   5.809   1.933
 3126WAT     H110960   6.073   5.759   1.925
 3126WAT     H210961   6.135   5.893   1.891
 3127WAT      O10962   6.146   6.677   3.107
 3127WAT     H110963   6.140   6.585   3.082
 3127WAT     H210964   6.083   6.687   3.179
 3128WAT      O10965   6.426   6.246   1.763
 3128WAT     H110966   6.515   6.278   1.745
 3128WAT     H210967   6.423   6.159   1.723
 3129WAT      O10968   5.537   6.737   2.303
 3129WAT     H110969   5.589   6.657   2.298
 3129WAT     H210970   5.492   6.731   2.387
 3130WAT      O10971   6.025   6.864   1.830
 3130WAT     H110972   6.060   6.938   1.781
 3130WAT     H210973   5.943   6.895   1.867
 3131WAT      O10974   5.285   6.434   2.994
 3131WAT     H110975   5.249   6.500   3.053
 3131WAT     H210976   5.256   6.350   3.032
 3132WAT      O10977   5.605   6.479   3.283
 3132WAT     H110978   5.575   6.494   3.193
 3132WAT     H210979   5.682   6.423   3.274
 3133WAT      O10980   6.140   6.959   3.082
 3133WAT     H110981   6.141   6.866   3.061
 3133WAT     H210982   6.069   6.968   3.146
 3134WAT      O10983   6.653   6.377   1.709
 3134WAT     H110984   6.645   6.421   1.624
 3134WAT     H210985   6.725   6.423   1.753
 3135WAT      O10986   6.761   6.623   3.017
 3135WAT     H110987   6.688   6.682   2.997
 3135WAT     H210988   6.813   6.622   2.937
 3136WAT      O10989   6.756   7.063   1.982
 3136WAT     H110990   6.692   6.997   2.010
 3136WAT     H210991   6.717   7.103   1.905
 3137WAT      O10992   6.314   6.796   2.367
 3137WAT     H110993   6.349   6.736   2.301
 3137WAT     H210994   6.225   6.763   2.384
 3138WAT      O10995   5.922   6.872   2.108
 3138WAT     H110996   5.991   6.926   2.146
 3138WAT     H210997   5.844   6.926   2.111
 3139WAT      O10998   5.136   6.433   1.657
 3139WAT     H110999   5.223   6.462   1.685
 3139WAT     H211000   5.087   6.515   1.645
 3140WAT      O11001   5.853   6.572   2.069
 3140WAT     H111002   5.898   6.653   2.091
 3140WAT     H211003   5.817   6.540   2.152
 3141WAT      O11004   6.083   7.123   2.792
 3141WAT     H111005   6.147   7.144   2.859
 3141WAT     H211006   6.119   7.047   2.746
 3142WAT      O11007   5.443   5.607   2.116
 3142WAT     H111008   5.430   5.606   2.211
 3142WAT     H211009   5.360   5.640   2.081
 3143WAT      O11010   6.210   6.924   2.664
 3143WAT     H111011   6.274   6.853   2.675
 3143WAT     H211012   6.263   7.002   2.645
 3144WAT      O11013   6.595   6.952   1.636
 3144WAT     H111014   6.572   6.880   1.695
 3144WAT     H211015   6.556   6.927   1.552
 3145WAT      O11016   6.388   7.003   2.984
 3145WAT     H111017   6.421   7.062   3.052
 3145WAT     H211018   6.296   6.990   3.007
 3146WAT      O11019   5.173   7.355   1.713
 3146WAT     H111020   5.209   7.415   1.648
 3146WAT     H211021   5.159   7.409   1.791
 3147WAT      O11022   6.553   6.744   1.802
 3147WAT     H111023   6.524   6.790   1.881
 3147WAT     H211024   6.632   6.698   1.829
 3148WAT      O11025   5.171   7.181   3.161
 3148WAT     H111026   5.182   7.087   3.147
 3148WAT     H211027   5.106   7.208   3.096
 3149WAT      O11028   5.971   7.008   3.301
 3149WAT     H111029   5.938   6.937   3.355
 3149WAT     H211030   5.903   7.076   3.308
 3150WAT      O11031   5.775   7.093   1.795
 3150WAT     H111032   5.774   7.166   1.734
 3150WAT     H211033   5.683   7.068   1.804
 3151WAT      O11034   5.335   6.615   1.870
 3151WAT     H111035   5.274   6.689   1.871
 3151WAT     H211036   5.382   6.624   1.787
 3152WAT      O11037   6.292   6.032   2.837
 3152WAT     H111038   6.329   5.950   2.870
 3152WAT     H211039   6.206   6.038   2.879
 3153WAT      O11040   6.629   5.927   1.918
 3153WAT     H111041   6.566   5.938   1.847
 3153WAT     H211042   6.579   5.949   1.997
 3154WAT      O11043   6.073   7.099   1.661
 3154WAT     H111044   6.083   7.079   1.568
 3154WAT     H211045   5.983   7.074   1.682
 3155WAT      O11046   5.826   6.155   2.060
 3155WAT     H111047   5.755   6.202   2.104
 3155WAT     H211048   5.854   6.089   2.123
 3156WAT      O11049   5.988   6.297   2.860
 3156WAT     H111050   6.038   6.345   2.926
 3156WAT     H211051   6.002   6.205   2.880
 3157WAT      O11052   6.229   5.828   2.204
 3157WAT     H111053   6.216   5.829   2.109
 3157WAT     H211054   6.324   5.832   2.216
 3158WAT      O11055   5.937   7.351   2.131
 3158WAT     H111056   5.963   7.347   2.039
 3158WAT     H211057   5.843   7.338   2.130
 3159WAT      O11058   5.646   5.986   1.797
 3159WAT     H111059   5.731   6.030   1.790
 3159WAT     H211060   5.609   6.017   1.880
 3160WAT      O11061   6.709   5.919   2.944
 3160WAT     H111062   6.658   5.993   2.978
 3160WAT     H211063   6.790   5.958   2.912
 3161WAT      O11064   6.538   6.443   2.288
 3161WAT     H111065   6.444   6.445   2.306
 3161WAT     H211066   6.569   6.364   2.333
 3162WAT      O11067   5.536   6.611   1.644
 3162WAT     H111068   5.612   6.600   1.701
 3162WAT     H211069   5.544   6.542   1.579
 3163WAT      O11070   5.405   6.355   1.713
 3163WAT     H111071   5.413   6.260   1.724
 3163WAT     H211072   5.494   6.388   1.723
 3164WAT      O11073   6.738   7.160   2.456
 3164WAT     H111074   6.751   7.242   2.503
 3164WAT     H211075   6.825   7.139   2.421
 3165WAT      O11076   5.485   7.369   2.423
 3165WAT     H111077   5.559   7.315   2.450
 3165WAT     H211078   5.524   7.456   2.409
 3166WAT      O11079   5.174   6.976   2.011
 3166WAT     H111080   5.081   7.000   2.010
 3166WAT     H211081   5.220   7.059   1.998
 3167WAT      O11082   5.386   7.288   3.342
 3167WAT     H111083   5.466   7.320   3.383
 3167WAT     H211084   5.334   7.252   3.414
 3168WAT      O11085   5.796   7.287   1.605
 3168WAT     H111086   5.876   7.316   1.560
 3168WAT     H211087   5.744   7.244   1.538
 3169WAT      O11088   6.270   6.899   3.337
 3169WAT     H111089   6.209   6.901   3.263
 3169WAT     H211090   6.239   6.826   3.390
 3170WAT      O11091   6.413   7.272   3.198
 3170WAT     H111092   6.508   7.263   3.193
 3170WAT     H211093   6.398   7.338   3.265
 3171WAT      O11094   6.702   7.209   1.748
 3171WAT     H111095   6.673   7.168   1.666
 3171WAT     H211096   6.682   7.302   1.736
 3172WAT      O11097   5.158   6.537   3.236
 3172WAT     H111098   5.208   6.479   3.294
 3172WAT     H211099   5.084   6.565   3.290
 3173WAT      O11100   5.848   6.809   1.592
 3173WAT     H111101   5.838   6.747   1.664
 3173WAT     H211102   5.831   6.756   1.513
 3174WAT      O11103   5.863   6.677   3.190
 3174WAT     H111104   5.787   6.734   3.181
 3174WAT     H211105   5.881   6.648   3.100
 3175WAT      O11106   6.172   6.715   1.652
 3175WAT     H111107   6.117   6.760   1.717
 3175WAT     H211108   6.234   6.665   1.705
 3176WAT      O11109   6.578   6.850   3.245
 3176WAT     H111110   6.652   6.884   3.195
 3176WAT     H211111   6.501   6.867   3.190
 3177WAT      O11112   5.361   6.351   3.326
 3177WAT     H111113   5.365   6.321   3.417
 3177WAT     H211114   5.447   6.391   3.310
 3178WAT      O11115   5.739   6.611   1.842
 3178WAT     H111116   5.781   6.594   1.926
 3178WAT     H211117   5.751   6.530   1.792
 3179WAT      O11118   5.990   6.513   1.567
 3179WAT     H111119   6.042   6.442   1.530
 3179WAT     H211120   6.055   6.577   1.597
 3180WAT      O11121   6.445   6.656   3.099
 3180WAT     H111122   6.486   6.671   3.184
 3180WAT     H211123   6.352   6.668   3.115
 3181WAT      O11124   6.492   6.390   3.299
 3181WAT     H111125   6.550   6.314   3.291
 3181WAT     H211126   6.510   6.443   3.222
 3182WAT      O11127   5.921   6.651   2.896
 3182WAT     H111128   5.963   6.735   2.879
 3182WAT     H211129   5.829   6.665   2.873
 3183WAT      O11130   6.155   6.424   3.034
 3183WAT     H111131   6.167   6.364   3.108
 3183WAT     H211132   6.241   6.428   2.992
 3184WAT      O11133   6.389   6.479   2.892
 3184WAT     H111134   6.336   6.532   2.832
 3184WAT     H211135   6.423   6.543   2.955
 3185WAT      O11136   5.629   6.218   1.536
 3185WAT     H111137   5.608   6.132   1.573
 3185WAT     H211138   5.611   6.210   1.443
 3186WAT      O11139   5.706   7.281   3.008
 3186WAT     H111140   5.652   7.354   2.976
 3186WAT     H211141   5.732   7.234   2.929
 3187WAT      O11142   6.313   6.040   3.183
 3187WAT     H111143   6.245   5.974   3.177
 3187WAT     H211144   6.385   5.995   3.228
 3188WAT      O11145   6.376   5.699   1.789
 3188WAT     H111146   6.404   5.615   1.825
 3188WAT     H211147   6.299   5.723   1.841
 3189WAT      O11148   5.508   5.928   1.535
 3189WAT     H111149   5.539   5.929   1.444
 3189WAT     H211150   5.582   5.893   1.585
 3190WAT      O11151   5.992   7.405   3.033
 3190WAT     H111152   5.984   7.495   3.064
 3190WAT     H211153   5.902   7.373   3.031
 3191WAT      O11154   5.830   5.823   1.634
 3191WAT     H111155   5.795   5.755   1.576
 3191WAT     H211156   5.850   5.777   1.715
 3192WAT      O11157   6.047   7.321   1.796
 3192WAT     H111158   6.136   7.355   1.798
 3192WAT     H211159   6.050   7.249   1.733
 3193WAT      O11160   5.411   6.859   1.619
 3193WAT     H111161   5.454   6.913   1.684
 3193WAT     H211162   5.459   6.776   1.619
 3194WAT      O11163   5.132   7.138   2.364
 3194WAT     H111164   5.165   7.051   2.341
 3194WAT     H211165   5.175   7.158   2.447
 3195WAT      O11166   5.592   6.971   2.130
 3195WAT     H111167   5.562   6.958   2.220
 3195WAT     H211168   5.581   6.885   2.089
 3196WAT      O11169   5.181   7.224   2.638
 3196WAT     H111170   5.137   7.242   2.721
 3196WAT     H211171   5.238   7.300   2.623
 3197WAT      O11172   6.745   7.174   3.066
 3197WAT     H111173   6.685   7.180   2.992
 3197WAT     H211174   6.758   7.081   3.079
 3198WAT      O11175   6.869   6.949   1.600
 3198WAT     H111176   6.786   6.955   1.647
 3198WAT     H211177   6.886   7.038   1.570
 3199WAT      O11178   6.814   6.623   1.850
 3199WAT     H111179   6.890   6.680   1.861
 3199WAT     H211180   6.816   6.566   1.927
 3200WAT      O11181   5.164   6.475   2.273
 3200WAT     H111182   5.099   6.449   2.209
 3200WAT     H211183   5.248   6.465   2.228
 3201WAT      O11184   6.915   6.709   2.335
 3201WAT     H111185   6.952   6.630   2.294
 3201WAT     H211186   6.979   6.778   2.317
 3202WAT      O11187   6.613   6.847   2.876
 3202WAT     H111188   6.532   6.890   2.902
 3202WAT     H211189   6.654   6.908   2.815
 3203WAT      O11190   6.819   6.652   1.566
 3203WAT     H111191   6.847   6.743   1.553
 3203WAT     H211192   6.801   6.646   1.660
 3204WAT      O11193   6.459   5.955   1.696
 3204WAT     H111194   6.501   5.936   1.612
 3204WAT     H211195   6.429   5.870   1.727
 3205WAT      O11196   6.809   6.446   2.065
 3205WAT     H111197   6.772   6.369   2.022
 3205WAT     H211198   6.736   6.484   2.114
 3206WAT      O11199   6.748   6.361   3.029
 3206WAT     H111200   6.725   6.338   2.939
 3206WAT     H211201   6.774   6.453   3.024
 3207WAT      O11202   5.223   6.205   3.118
 3207WAT     H111203   5.134   6.202   3.152
 3207WAT     H211204   5.277   6.225   3.195
 3208WAT      O11205   6.592   5.883   3.307
 3208WAT     H111206   6.680   5.884   3.345
 3208WAT     H211207   6.593   5.810   3.246
 3209WAT      O11208   5.086   6.196   1.868
 3209WAT     H111209   4.995   6.223   1.850
 3209WAT     H211210   5.134   6.224   1.790
 3210WAT      O11211   6.737   6.269   2.395
 3210WAT     H111212   6.789   6.219   2.332
 3210WAT     H211213   6.795   6.282   2.470
 3211WAT      O11214   6.755   6.277   2.748
 3211WAT     H111215   6.660   6.274   2.759
 3211WAT     H211216   6.773   6.368   2.724
 3212WAT      O11217   5.340   6.102   1.659
 3212WAT     H111218   5.411   6.060   1.610
 3212WAT     H211219   5.268   6.109   1.595
 3213WAT      O11220   5.305   5.708   1.563
 3213WAT     H111221   5.377   5.762   1.594
 3213WAT     H211222   5.332   5.680   1.475
 3214WAT      O11223   6.686   6.194   1.989
 3214WAT     H111224   6.735   6.171   2.068
 3214WAT     H211225   6.666   6.111   1.948
 3215WAT      O11226   6.828   6.058   2.243
 3215WAT     H111227   6.817   6.043   2.337
 3215WAT     H211228   6.905   6.005   2.219
 3216WAT      O11229   6.663   5.652   2.889
 3216WAT     H111230   6.727   5.713   2.925
 3216WAT     H211231   6.678   5.656   2.794
 3217WAT      O11232   6.917   5.841   1.567
 3217WAT     H111233   7.010   5.828   1.546
 3217WAT     H211234   6.915   5.849   1.662
 3218WAT      O11235   6.925   5.918   1.829
 3218WAT     H111236   6.845   5.912   1.882
 3218WAT     H211237   6.945   6.012   1.828
 3219WAT      O11238   6.619   7.322   2.229
 3219WAT     H111239   6.679   7.290   2.161
 3219WAT     H211240   6.645   7.275   2.308
 3220WAT      O11241   5.410   6.965   3.244
 3220WAT     H111242   5.405   6.928   3.332
 3220WAT     H211243   5.423   7.059   3.258
 3221WAT      O11244   5.780   7.121   2.804
 3221WAT     H111245   5.756   7.148   2.715
 3221WAT     H211246   5.874   7.138   2.809
 3222WAT      O11247   6.264   5.733   3.143
 3222WAT     H111248   6.325   5.765   3.077
 3222WAT     H211249   6.318   5.684   3.205
 3223WAT      O11250   6.906   7.323   2.884
 3223WAT     H111251   6.856   7.363   2.812
 3223WAT     H211252   6.845   7.260   2.923
 3224WAT      O11253   5.393   7.260   2.956
 3224WAT     H111254   5.334   7.247   3.030
 3224WAT     H211255   5.393   7.176   2.909
 3225WAT      O11256   6.338   5.589   2.776
 3225WAT     H111257   6.251   5.623   2.756
 3225WAT     H211258   6.327   5.542   2.858
 3226WAT      O11259   6.429   5.810   2.914
 3226WAT     H111260   6.396   5.729   2.876
 3226WAT     H211261   6.524   5.806   2.902
 3227WAT      O11262   6.674   7.387   2.612
 3227WAT     H111263   6.628   7.462   2.574
 3227WAT     H211264   6.611   7.315   2.606
 3228WAT      O11265   5.357   6.997   2.851
 3228WAT     H111266   5.284   6.935   2.844
 3228WAT     H211267   5.363   7.036   2.764
 3229WAT      O11268   5.717   7.218   2.529
 3229WAT     H111269   5.769   7.157   2.477
 3229WAT     H211270   5.782   7.268   2.578
 3230WAT      O11271   5.991   7.307   2.612
 3230WAT     H111272   6.020   7.282   2.524
 3230WAT     H211273   6.042   7.252   2.671
 3231WAT      O11274   6.568   5.751   2.474
 3231WAT     H111275   6.612   5.746   2.390
 3231WAT     H211276   6.541   5.843   2.481
 3232WAT      O11277   6.754   5.714   2.275
 3232WAT     H111278   6.748   5.620   2.261
 3232WAT     H211279   6.832   5.725   2.330
 3233WAT      O11280   5.185   7.328   2.172
 3233WAT     H111281   5.168   7.265   2.242
 3233WAT     H211282   5.098   7.349   2.137
 3234WAT      O11283   5.247   5.711   1.922
 3234WAT     H111284   5.323   5.723   1.865
 3234WAT     H211285   5.201   5.795   1.917
 3235WAT      O11286   6.352   5.589   2.345
 3235WAT     H111287   6.412   5.646   2.392
 3235WAT     H211288   6.277   5.646   2.323
 3236WAT      O11289   6.666   5.629   1.872
 3236WAT     H111290   6.685   5.719   1.899
 3236WAT     H211291   6.587   5.606   1.922
 3237WAT      O11292   5.346   7.198   1.916
 3237WAT     H111293   5.293   7.236   1.846
 3237WAT     H211294   5.338   7.260   1.988
 3238WAT      O11295   5.484   5.764   1.776
 3238WAT     H111296   5.537   5.685   1.763
 3238WAT     H211297   5.548   5.832   1.799
 3239WAT      O11298   5.704   5.738   2.081
 3239WAT     H111299   5.641   5.668   2.098
 3239WAT     H211300   5.650   5.814   2.060
 3240WAT      O11301   5.998   7.399   3.349
 3240WAT     H111302   6.090   7.376   3.353
 3240WAT     H211303   5.996   7.482   3.300
 3241WAT      O11304   6.821   7.354   2.048
 3241WAT     H111305   6.839   7.285   1.984
 3241WAT     H211306   6.751   7.406   2.009
 3242WAT      O11307   5.716   5.666   3.325
 3242WAT     H111308   5.688   5.716   3.249
 3242WAT     H211309   5.755   5.586   3.288
 3243WAT      O11310   5.605   7.392   1.804
 3243WAT     H111311   5.679   7.364   1.749
 3243WAT     H211312   5.631   7.369   1.893
 3244WAT      O11313   5.522   7.004   1.804
 3244WAT     H111314   5.459   7.051   1.859
 3244WAT     H211315   5.533   6.920   1.848
 3245WAT      O11316   6.376   5.607   3.383
 3245WAT     H111317   6.365   5.639   3.472
 3245WAT     H211318   6.458   5.647   3.353
 3246WAT      O11319   6.654   7.322   3.331
 3246WAT     H111320   6.734   7.272   3.310
 3246WAT     H211321   6.684   7.390   3.392
 3247WAT      O11322   6.267   6.409   0.419
 3247WAT     H111323   6.259   6.318   0.392
 3247WAT     H211324   6.226   6.459   0.349
 3248WAT      O11325   6.080   6.587   0.607
 3248WAT     H111326   6.003   6.539   0.636
 3248WAT     H211327   6.145   6.519   0.590
 3249WAT      O11328   5.482   6.618   0.695
 3249WAT     H111329   5.399   6.593   0.735
 3249WAT     H211330   5.543   6.625   0.769
 3250WAT      O11331   6.482   7.028   0.485
 3250WAT     H111332   6.436   6.950   0.518
 3250WAT     H211333   6.564   7.030   0.536
 3251WAT      O11334   5.480   7.022   0.715
 3251WAT     H111335   5.510   6.933   0.697
 3251WAT     H211336   5.554   7.077   0.692
 3252WAT      O11337   5.119   6.374   0.662
 3252WAT     H111338   5.176   6.297   0.662
 3252WAT     H211339   5.119   6.404   0.571
 3253WAT      O11340   6.105   7.256   0.447
 3253WAT     H111341   6.043   7.302   0.390
 3253WAT     H211342   6.190   7.272   0.407
 3254WAT      O11343   6.024   6.855   0.608
 3254WAT     H111344   6.017   6.760   0.592
 3254WAT     H211345   6.101   6.864   0.665
 3255WAT      O11346   5.243   5.915   0.841
 3255WAT     H111347   5.225   5.825   0.869
 3255WAT     H211348   5.203   5.970   0.908
 3256WAT      O11349   6.127   6.135   0.631
 3256WAT     H111350   6.165   6.048   0.619
 3256WAT     H211351   6.118   6.169   0.542
 3257WAT      O11352   5.540   5.972   0.177
 3257WAT     H111353   5.551   6.063   0.208
 3257WAT     H211354   5.449   5.968   0.148
 3258WAT      O11355   6.506   5.885   0.324
 3258WAT     H111356   6.588   5.836   0.328
 3258WAT     H211357   6.509   5.944   0.399
 3259WAT      O11358   5.305   6.165   0.701
 3259WAT     H111359   5.373   6.191   0.763
 3259WAT     H211360   5.274   6.081   0.735
 3260WAT      O11361   5.725   6.269   0.610
 3260WAT     H111362   5.775   6.319   0.674
 3260WAT     H211363   5.778   6.192   0.592
 3261WAT      O11364   6.935   6.086   0.980
 3261WAT     H111365   6.864   6.125   0.929
 3261WAT     H211366   6.961   6.156   1.041
 3262WAT      O11367   5.553   5.733   1.037
 3262WAT     H111368   5.553   5.785   0.956
 3262WAT     H211369   5.470   5.686   1.034
 3263WAT      O11370   5.678   6.697   0.854
 3263WAT     H111371   5.645   6.760   0.919
 3263WAT     H211372   5.696   6.750   0.776
 3264WAT      O11373   6.529   6.079   0.601
 3264WAT     H111374   6.459   6.108   0.659
 3264WAT     H211375   6.565   6.160   0.565
 3265WAT      O11376   5.521   5.904   0.837
 3265WAT     H111377   5.555   5.989   0.808
 3265WAT     H211378   5.427   5.919   0.849
 3266WAT      O11379   5.599   6.894   1.036
 3266WAT     H111380   5.661   6.962   1.008
 3266WAT     H211381   5.513   6.935   1.027
 3267WAT      O11382   6.691   7.040   0.827
 3267WAT     H111383   6.623   7.107   0.827
 3267WAT     H211384   6.745   7.060   0.751
 3268WAT      O11385   6.836   6.023   0.640
 3268WAT     H111386   6.741   6.027   0.653
 3268WAT     H211387   6.869   6.105   0.679
 3269WAT      O11388   5.889   5.653   0.470
 3269WAT     H111389   5.920   5.598   0.398
 3269WAT     H211390   5.796   5.667   0.452
 3270WAT      O11391   6.444   7.225   0.699
 3270WAT     H111392   6.446   7.185   0.612
 3270WAT     H211393   6.389   7.302   0.689
 3271WAT      O11394   6.574   6.897   0.208
 3271WAT     H111395   6.563   6.803   0.220
 3271WAT     H211396   6.574   6.933   0.296
 3272WAT      O11397   6.384   6.715   0.832
 3272WAT     H111398   6.426   6.694   0.748
 3272WAT     H211399   6.457   6.741   0.889
 3273WAT      O11400   6.779   6.555   0.841
 3273WAT     H111401   6.696   6.562   0.793
 3273WAT     H211402   6.838   6.614   0.794
 3274WAT      O11403   6.475   6.234   0.935
 3274WAT     H111404   6.434   6.316   0.961
 3274WAT     H211405   6.402   6.175   0.916
 3275WAT      O11406   5.689   6.512   0.422
 3275WAT     H111407   5.648   6.441   0.372
 3275WAT     H211408   5.697   6.478   0.511
 3276WAT      O11409   5.736   6.881   0.638
 3276WAT     H111410   5.706   6.821   0.570
 3276WAT     H211411   5.831   6.885   0.627
 3277WAT      O11412   5.560   6.190   0.800
 3277WAT     H111413   5.615   6.201   0.722
 3277WAT     H211414   5.611   6.227   0.871
 3278WAT      O11415   6.544   7.238   1.004
 3278WAT     H111416   6.497   7.319   0.985
 3278WAT     H211417   6.476   7.173   1.020
 3279WAT      O11418   5.645   6.855   1.303
 3279WAT     H111419   5.555   6.877   1.328
 3279WAT     H211420   5.647   6.867   1.208
 3280WAT      O11421   5.527   6.542   1.161
 3280WAT     H111422   5.513   6.629   1.198
 3280WAT     H211423   5.439   6.508   1.146
 3281WAT      O11424   6.160   7.034   0.291
 3281WAT     H111425   6.204   7.108   0.250
 3281WAT     H211426   6.154   7.058   0.384
 3282WAT      O11427   5.707   7.136   1.382
 3282WAT     H111428   5.704   7.177   1.295
 3282WAT     H211429   5.691   7.043   1.365
 3283WAT      O11430   6.902   7.214   1.511
 3283WAT     H111431   6.950   7.262   1.579
 3283WAT     H211432   6.964   7.208   1.439
 3284WAT      O11433   5.123   6.719   0.752
 3284WAT     H111434   5.130   6.732   0.658
 3284WAT     H211435   5.184   6.648   0.772
 3285WAT      O11436   5.247   6.889   0.393
 3285WAT     H111437   5.206   6.903   0.308
 3285WAT     H211438   5.336   6.861   0.373
 3286WAT      O11439   6.843   6.934   1.227
 3286WAT     H111440   6.855   6.910   1.135
 3286WAT     H211441   6.847   6.850   1.274
 3287WAT      O11442   6.229   7.304   1.084
 3287WAT     H111443   6.280   7.295   1.164
 3287WAT     H211444   6.145   7.339   1.113
 3288WAT      O11445   5.674   7.310   0.205
 3288WAT     H111446   5.657   7.219   0.183
 3288WAT     H211447   5.589   7.346   0.229
 3289WAT      O11448   6.353   7.246   0.290
 3289WAT     H111449   6.399   7.168   0.322
 3289WAT     H211450   6.387   7.317   0.345
 3290WAT      O11451   6.828   6.139   1.324
 3290WAT     H111452   6.766   6.190   1.271
 3290WAT     H211453   6.796   6.049   1.318
 3291WAT      O11454   5.128   6.823   1.006
 3291WAT     H111455   5.144   6.776   0.925
 3291WAT     H211456   5.175   6.772   1.073
 3292WAT      O11457   5.605   5.736   0.510
 3292WAT     H111458   5.561   5.814   0.477
 3292WAT     H211459   5.661   5.768   0.581
 3293WAT      O11460   6.034   6.023   1.070
 3293WAT     H111461   5.988   6.044   1.152
 3293WAT     H211462   5.994   5.941   1.040
 3294WAT      O11463   6.534   6.145   1.183
 3294WAT     H111464   6.449   6.115   1.215
 3294WAT     H211465   6.518   6.169   1.092
 3295WAT      O11466   6.244   6.295   1.393
 3295WAT     H111467   6.276   6.212   1.359
 3295WAT     H211468   6.322   6.347   1.408
 3296WAT      O11469   5.809   5.791   0.696
 3296WAT     H111470   5.839   5.881   0.688
 3296WAT     H211471   5.864   5.742   0.634
 3297WAT      O11472   5.585   6.249   0.283
 3297WAT     H111473   5.562   6.227   0.373
 3297WAT     H211474   5.506   6.292   0.248
 3298WAT      O11475   5.829   6.338   1.349
 3298WAT     H111476   5.819   6.244   1.334
 3298WAT     H211477   5.913   6.361   1.310
 3299WAT      O11478   6.168   6.113   0.346
 3299WAT     H111479   6.207   6.145   0.264
 3299WAT     H211480   6.204   6.025   0.357
 3300WAT      O11481   5.342   5.980   1.165
 3300WAT     H111482   5.302   6.064   1.185
 3300WAT     H211483   5.273   5.916   1.184
 3301WAT      O11484   5.999   5.988   1.472
 3301WAT     H111485   5.930   5.969   1.535
 3301WAT     H211486   6.073   6.016   1.525
 3302WAT      O11487   5.072   5.772   0.568
 3302WAT     H111488   5.043   5.829   0.639
 3302WAT     H211489   5.146   5.724   0.604
 3303WAT      O11490   6.227   6.372   0.755
 3303WAT     H111491   6.154   6.423   0.790
 3303WAT     H211492   6.187   6.290   0.725
 3304WAT      O11493   5.870   6.039   0.596
 3304WAT     H111494   5.871   5.995   0.511
 3304WAT     H211495   5.960   6.072   0.606
 3305WAT      O11496   5.455   6.028   0.492
 3305WAT     H111497   5.421   6.075   0.567
 3305WAT     H211498   5.379   5.982   0.456
 3306WAT      O11499   6.273   5.917   0.696
 3306WAT     H111500   6.275   5.962   0.781
 3306WAT     H211501   6.248   5.827   0.718
 3307WAT      O11502   6.616   5.659   1.280
 3307WAT     H111503   6.648   5.585   1.333
 3307WAT     H211504   6.619   5.627   1.190
 3308WAT      O11505   5.286   6.761   1.222
 3308WAT     H111506   5.247   6.697   1.282
 3308WAT     H211507   5.317   6.831   1.279
 3309WAT      O11508   5.901   6.445   0.770
 3309WAT     H111509   5.937   6.398   0.845
 3309WAT     H211510   5.882   6.533   0.804
 3310WAT      O11511   5.187   5.920   0.383
 3310WAT     H111512   5.158   5.883   0.467
 3310WAT     H211513   5.181   5.847   0.322
 3311WAT      O11514   5.680   6.349   1.002
 3311WAT     H111515   5.649   6.437   1.025
 3311WAT     H211516   5.775   6.355   1.006
 3312WAT      O11517   6.608   6.670   0.641
 3312WAT     H111518   6.680   6.719   0.602
 3312WAT     H211519   6.588   6.602   0.577
 3313WAT      O11520   6.146   6.677   1.230
 3313WAT     H111521   6.140   6.585   1.204
 3313WAT     H211522   6.083   6.687   1.301
 3314WAT      O11523   5.537   6.737   0.426
 3314WAT     H111524   5.589   6.657   0.420
 3314WAT     H211525   5.492   6.731   0.510
 3315WAT      O11526   5.285   6.434   1.117
 3315WAT     H111527   5.249   6.500   1.176
 3315WAT     H211528   5.256   6.350   1.154
 3316WAT      O11529   5.605   6.479   1.405
 3316WAT     H111530   5.575   6.494   1.316
 3316WAT     H211531   5.682   6.423   1.396
 3317WAT      O11532   6.140   6.959   1.205
 3317WAT     H111533   6.141   6.866   1.183
 3317WAT     H211534   6.069   6.968   1.269
 3318WAT      O11535   6.761   6.623   1.140
 3318WAT     H111536   6.688   6.682   1.120
 3318WAT     H211537   6.813   6.622   1.060
 3319WAT      O11538   6.314   6.796   0.489
 3319WAT     H111539   6.349   6.736   0.423
 3319WAT     H211540   6.225   6.763   0.507
 3320WAT      O11541   5.922   6.872   0.230
 3320WAT     H111542   5.991   6.926   0.268
 3320WAT     H211543   5.844   6.926   0.234
 3321WAT      O11544   5.853   6.572   0.191
 3321WAT     H111545   5.898   6.653   0.214
 3321WAT     H211546   5.817   6.540   0.275
 3322WAT      O11547   6.083   7.123   0.914
 3322WAT     H111548   6.147   7.144   0.982
 3322WAT     H211549   6.119   7.047   0.869
 3323WAT      O11550   5.443   5.607   0.239
 3323WAT     H111551   5.430   5.606   0.333
 3323WAT     H211552   5.360   5.640   0.204
 3324WAT      O11553   6.210   6.924   0.786
 3324WAT     H111554   6.274   6.853   0.797
 3324WAT     H211555   6.263   7.002   0.768
 3325WAT      O11556   6.388   7.003   1.106
 3325WAT     H111557   6.421   7.062   1.174
 3325WAT     H211558   6.296   6.990   1.129
 3326WAT      O11559   5.143   5.782   1.185
 3326WAT     H111560   5.071   5.802   1.245
 3326WAT     H211561   5.185   5.705   1.222
 3327WAT      O11562   5.171   7.181   1.283
 3327WAT     H111563   5.182   7.087   1.269
 3327WAT     H211564   5.106   7.208   1.218
 3328WAT      O11565   5.971   7.008   1.423
 3328WAT     H111566   5.938   6.937   1.478
 3328WAT     H211567   5.903   7.076   1.431
 3329WAT      O11568   6.292   6.032   0.960
 3329WAT     H111569   6.329   5.950   0.992
 3329WAT     H211570   6.206   6.038   1.001
 3330WAT      O11571   5.826   6.155   0.182
 3330WAT     H111572   5.755   6.202   0.226
 3330WAT     H211573   5.854   6.089   0.246
 3331WAT      O11574   5.988   6.297   0.982
 3331WAT     H111575   6.038   6.345   1.049
 3331WAT     H211576   6.002   6.205   1.003
 3332WAT      O11577   6.229   5.828   0.326
 3332WAT     H111578   6.216   5.829   0.231
 3332WAT     H211579   6.324   5.832   0.338
 3333WAT      O11580   5.937   7.351   0.253
 3333WAT     H111581   5.963   7.347   0.161
 3333WAT     H211582   5.843   7.338   0.253
 3334WAT      O11583   6.709   5.919   1.066
 3334WAT     H111584   6.658   5.993   1.100
 3334WAT     H211585   6.790   5.958   1.035
 3335WAT      O11586   6.538   6.443   0.411
 3335WAT     H111587   6.444   6.445   0.428
 3335WAT     H211588   6.569   6.364   0.456
 3336WAT      O11589   6.738   7.160   0.579
 3336WAT     H111590   6.751   7.242   0.626
 3336WAT     H211591   6.825   7.139   0.544
 3337WAT      O11592   5.485   7.369   0.546
 3337WAT     H111593   5.559   7.315   0.573
 3337WAT     H211594   5.524   7.456   0.532
 3338WAT      O11595   5.386   7.288   1.465
 3338WAT     H111596   5.466   7.320   1.506
 3338WAT     H211597   5.334   7.252   1.537
 3339WAT      O11598   6.270   6.899   1.459
 3339WAT     H111599   6.209   6.901   1.385
 3339WAT     H211600   6.239   6.826   1.513
 3340WAT      O11601   6.413   7.272   1.320
 3340WAT     H111602   6.508   7.263   1.315
 3340WAT     H211603   6.398   7.338   1.388
 3341WAT      O11604   5.158   6.537   1.359
 3341WAT     H111605   5.208   6.479   1.416
 3341WAT     H211606   5.084   6.565   1.413
 3342WAT      O11607   5.863   6.677   1.312
 3342WAT     H111608   5.787   6.734   1.304
 3342WAT     H211609   5.881   6.648   1.223
 3343WAT      O11610   6.578   6.850   1.368
 3343WAT     H111611   6.652   6.884   1.318
 3343WAT     H211612   6.501   6.867   1.313
 3344WAT      O11613   5.361   6.351   1.448
 3344WAT     H111614   5.365   6.321   1.539
 3344WAT     H211615   5.447   6.391   1.432
 3345WAT      O11616   5.555   6.209   1.245
 3345WAT     H111617   5.502   6.160   1.182
 3345WAT     H211618   5.622   6.252   1.192
 3346WAT      O11619   6.445   6.656   1.222
 3346WAT     H111620   6.486   6.671   1.306
 3346WAT     H211621   6.352   6.668   1.238
 3347WAT      O11622   6.492   6.390   1.422
 3347WAT     H111623   6.550   6.314   1.413
 3347WAT     H211624   6.510   6.443   1.344
 3348WAT      O11625   5.604   5.906   1.253
 3348WAT     H111626   5.595   5.844   1.181
 3348WAT     H211627   5.546   5.978   1.230
 3349WAT      O11628   5.881   5.761   0.956
 3349WAT     H111629   5.836   5.763   0.872
 3349WAT     H211630   5.817   5.721   1.016
 3350WAT      O11631   5.921   6.651   1.019
 3350WAT     H111632   5.963   6.735   1.001
 3350WAT     H211633   5.829   6.665   0.996
 3351WAT      O11634   6.155   6.424   1.157
 3351WAT     H111635   6.167   6.364   1.231
 3351WAT     H211636   6.241   6.428   1.115
 3352WAT      O11637   6.389   6.479   1.015
 3352WAT     H111638   6.336   6.532   0.954
 3352WAT     H211639   6.423   6.543   1.078
 3353WAT      O11640   5.706   7.281   1.130
 3353WAT     H111641   5.652   7.354   1.098
 3353WAT     H211642   5.732   7.234   1.051
 3354WAT      O11643   5.832   6.078   1.283
 3354WAT     H111644   5.890   6.047   1.351
 3354WAT     H211645   5.750   6.031   1.298
 3355WAT      O11646   6.313   6.040   1.306
 3355WAT     H111647   6.245   5.974   1.299
 3355WAT     H211648   6.385   5.995   1.350
 3356WAT      O11649   5.992   7.405   1.156
 3356WAT     H111650   5.984   7.495   1.187
 3356WAT     H211651   5.902   7.373   1.153
 3357WAT      O11652   5.132   7.138   0.486
 3357WAT     H111653   5.165   7.051   0.463
 3357WAT     H211654   5.175   7.158   0.569
 3358WAT      O11655   5.592   6.971   0.252
 3358WAT     H111656   5.562   6.958   0.342
 3358WAT     H211657   5.581   6.885   0.211
 3359WAT      O11658   5.181   7.224   0.760
 3359WAT     H111659   5.137   7.242   0.843
 3359WAT     H211660   5.238   7.300   0.746
 3360WAT      O11661   6.745   7.174   1.189
 3360WAT     H111662   6.685   7.180   1.115
 3360WAT     H211663   6.758   7.081   1.202
 3361WAT      O11664   5.164   6.475   0.396
 3361WAT     H111665   5.099   6.449   0.332
 3361WAT     H211666   5.248   6.465   0.351
 3362WAT      O11667   6.915   6.709   0.457
 3362WAT     H111668   6.952   6.630   0.417
 3362WAT     H211669   6.979   6.778   0.440
 3363WAT      O11670   6.613   6.847   0.999
 3363WAT     H111671   6.532   6.890   1.025
 3363WAT     H211672   6.654   6.908   0.937
 3364WAT      O11673   6.809   6.446   0.188
 3364WAT     H111674   6.772   6.369   0.145
 3364WAT     H211675   6.736   6.484   0.237
 3365WAT      O11676   5.268   6.514   0.850
 3365WAT     H111677   5.305   6.505   0.938
 3365WAT     H211678   5.211   6.438   0.840
 3366WAT      O11679   6.748   6.361   1.151
 3366WAT     H111680   6.725   6.338   1.061
 3366WAT     H211681   6.774   6.453   1.147
 3367WAT      O11682   5.223   6.205   1.241
 3367WAT     H111683   5.134   6.202   1.275
 3367WAT     H211684   5.277   6.225   1.317
 3368WAT      O11685   6.592   5.883   1.429
 3368WAT     H111686   6.680   5.884   1.467
 3368WAT     H211687   6.593   5.810   1.368
 3369WAT      O11688   6.737   6.269   0.518
 3369WAT     H111689   6.789   6.219   0.455
 3369WAT     H211690   6.795   6.282   0.592
 3370WAT      O11691   6.755   6.277   0.870
 3370WAT     H111692   6.660   6.274   0.882
 3370WAT     H211693   6.773   6.368   0.847
 3371WAT      O11694   5.274   5.633   0.675
 3371WAT     H111695   5.338   5.578   0.631
 3371WAT     H211696   5.316   5.658   0.758
 3372WAT      O11697   6.828   6.058   0.365
 3372WAT     H111698   6.817   6.043   0.459
 3372WAT     H211699   6.905   6.005   0.341
 3373WAT      O11700   6.663   5.652   1.011
 3373WAT     H111701   6.727   5.713   1.048
 3373WAT     H211702   6.678   5.656   0.917
 3374WAT      O11703   6.619   7.322   0.351
 3374WAT     H111704   6.679   7.290   0.284
 3374WAT     H211705   6.645   7.275   0.430
 3375WAT      O11706   5.249   5.648   0.950
 3375WAT     H111707   5.214   5.694   1.026
 3375WAT     H211708   5.216   5.559   0.958
 3376WAT      O11709   5.410   6.965   1.366
 3376WAT     H111710   5.405   6.928   1.454
 3376WAT     H211711   5.423   7.059   1.380
 3377WAT      O11712   5.780   7.121   0.926
 3377WAT     H111713   5.756   7.148   0.838
 3377WAT     H211714   5.874   7.138   0.932
 3378WAT      O11715   6.000   5.767   1.302
 3378WAT     H111716   5.994   5.826   1.377
 3378WAT     H211717   6.094   5.757   1.287
 3379WAT      O11718   6.264   5.733   1.266
 3379WAT     H111719   6.325   5.765   1.200
 3379WAT     H211720   6.318   5.684   1.328
 3380WAT      O11721   6.906   7.323   1.006
 3380WAT     H111722   6.856   7.363   0.935
 3380WAT     H211723   6.845   7.260   1.046
 3381WAT      O11724   5.316   5.601   1.277
 3381WAT     H111725   5.371   5.583   1.201
 3381WAT     H211726   5.323   5.522   1.331
 3382WAT      O11727   5.393   7.260   1.078
 3382WAT     H111728   5.334   7.247   1.152
 3382WAT     H211729   5.393   7.176   1.032
 3383WAT      O11730   6.338   5.589   0.899
 3383WAT     H111731   6.251   5.623   0.878
 3383WAT     H211732   6.327   5.542   0.981
 3384WAT      O11733   6.429   5.810   1.037
 3384WAT     H111734   6.396   5.729   0.999
 3384WAT     H211735   6.524   5.806   1.025
 3385WAT      O11736   6.674   7.387   0.734
 3385WAT     H111737   6.628   7.462   0.697
 3385WAT     H211738   6.611   7.315   0.728
 3386WAT      O11739   5.357   6.997   0.973
 3386WAT     H111740   5.284   6.935   0.967
 3386WAT     H211741   5.363   7.036   0.886
 3387WAT      O11742   5.717   7.218   0.652
 3387WAT     H111743   5.769   7.157   0.599
 3387WAT     H211744   5.782   7.268   0.701
 3388WAT      O11745   5.991   7.307   0.734
 3388WAT     H111746   6.020   7.282   0.647
 3388WAT     H211747   6.042   7.252   0.794
 3389WAT      O11748   6.113   5.681   0.792
 3389WAT     H111749   6.034   5.728   0.820
 3389WAT     H211750   6.083   5.591   0.782
 3390WAT      O11751   6.568   5.751   0.597
 3390WAT     H111752   6.612   5.746   0.512
 3390WAT     H211753   6.541   5.843   0.604
 3391WAT      O11754   6.754   5.714   0.398
 3391WAT     H111755   6.748   5.620   0.383
 3391WAT     H211756   6.832   5.725   0.453
 3392WAT      O11757   5.185   7.328   0.294
 3392WAT     H111758   5.168   7.265   0.364
 3392WAT     H211759   5.098   7.349   0.259
 3393WAT      O11760   5.901   5.923   0.344
 3393WAT     H111761   5.820   5.885   0.310
 3393WAT     H211762   5.952   5.847   0.374
 3394WAT      O11763   6.352   5.589   0.467
 3394WAT     H111764   6.412   5.646   0.515
 3394WAT     H211765   6.277   5.646   0.445
 3395WAT      O11766   5.704   5.738   0.204
 3395WAT     H111767   5.641   5.668   0.221
 3395WAT     H211768   5.650   5.814   0.182
 3396WAT      O11769   5.998   7.399   1.471
 3396WAT     H111770   6.090   7.376   1.476
 3396WAT     H211771   5.996   7.482   1.423
 3397WAT      O11772   5.716   5.666   1.448
 3397WAT     H111773   5.688   5.716   1.371
 3397WAT     H211774   5.755   5.586   1.411
 3398WAT      O11775   6.376   5.607   1.505
 3398WAT     H111776   6.365   5.639   1.595
 3398WAT     H211777   6.458   5.647   1.476
 3399WAT      O11778   6.654   7.322   1.454
 3399WAT     H111779   6.734   7.272   1.433
 3399WAT     H211780   6.684   7.390   1.514
 3400WAT      O11781   6.267   4.532   6.051
 3400WAT     H111782   6.259   4.440   6.024
 3400WAT     H211783   6.226   4.581   5.981
 3401WAT      O11784   6.080   4.710   6.240
 3401WAT     H111785   6.003   4.662   6.269
 3401WAT     H211786   6.145   4.642   6.222
 3402WAT      O11787   5.482   4.741   6.327
 3402WAT     H111788   5.399   4.715   6.367
 3402WAT     H211789   5.543   4.748   6.401
 3403WAT      O11790   6.482   5.150   6.118
 3403WAT     H111791   6.436   5.073   6.150
 3403WAT     H211792   6.564   5.153   6.168
 3404WAT      O11793   5.480   5.144   6.347
 3404WAT     H111794   5.510   5.055   6.329
 3404WAT     H211795   5.554   5.200   6.324
 3405WAT      O11796   5.323   4.237   5.706
 3405WAT     H111797   5.234   4.271   5.696
 3405WAT     H211798   5.351   4.217   5.617
 3406WAT      O11799   5.119   4.497   6.294
 3406WAT     H111800   5.176   4.420   6.294
 3406WAT     H211801   5.119   4.527   6.203
 3407WAT      O11802   6.105   5.379   6.080
 3407WAT     H111803   6.043   5.424   6.023
 3407WAT     H211804   6.190   5.394   6.039
 3408WAT      O11805   6.024   4.977   6.240
 3408WAT     H111806   6.017   4.883   6.224
 3408WAT     H211807   6.101   4.986   6.297
 3409WAT      O11808   5.243   4.038   6.473
 3409WAT     H111809   5.225   3.948   6.501
 3409WAT     H211810   5.203   4.092   6.540
 3410WAT      O11811   6.127   4.258   6.263
 3410WAT     H111812   6.165   4.171   6.252
 3410WAT     H211813   6.118   4.291   6.174
 3411WAT      O11814   5.540   4.095   5.809
 3411WAT     H111815   5.551   4.185   5.840
 3411WAT     H211816   5.449   4.090   5.780
 3412WAT      O11817   6.506   4.007   5.956
 3412WAT     H111818   6.588   3.958   5.960
 3412WAT     H211819   6.509   4.066   6.032
 3413WAT      O11820   5.305   4.287   6.334
 3413WAT     H111821   5.373   4.314   6.396
 3413WAT     H211822   5.274   4.203   6.367
 3414WAT      O11823   5.725   4.392   6.242
 3414WAT     H111824   5.775   4.442   6.306
 3414WAT     H211825   5.778   4.314   6.225
 3415WAT      O11826   6.192   4.867   5.819
 3415WAT     H111827   6.130   4.914   5.763
 3415WAT     H211828   6.243   4.936   5.861
 3416WAT      O11829   5.678   4.820   6.487
 3416WAT     H111830   5.645   4.883   6.551
 3416WAT     H211831   5.696   4.872   6.409
 3417WAT      O11832   6.529   4.201   6.234
 3417WAT     H111833   6.459   4.230   6.292
 3417WAT     H211834   6.565   4.282   6.198
 3418WAT      O11835   5.521   4.027   6.470
 3418WAT     H111836   5.555   4.111   6.440
 3418WAT     H211837   5.427   4.042   6.481
 3419WAT      O11838   5.128   4.936   5.556
 3419WAT     H111839   5.091   4.985   5.483
 3419WAT     H211840   5.154   5.003   5.619
 3420WAT      O11841   6.691   5.163   6.460
 3420WAT     H111842   6.623   5.230   6.459
 3420WAT     H211843   6.745   5.183   6.383
 3421WAT      O11844   6.836   4.146   6.273
 3421WAT     H111845   6.741   4.149   6.286
 3421WAT     H211846   6.869   4.227   6.311
 3422WAT      O11847   5.889   3.776   6.102
 3422WAT     H111848   5.920   3.720   6.031
 3422WAT     H211849   5.796   3.789   6.084
 3423WAT      O11850   6.444   5.347   6.331
 3423WAT     H111851   6.446   5.307   6.244
 3423WAT     H211852   6.389   5.425   6.321
 3424WAT      O11853   6.574   5.020   5.840
 3424WAT     H111854   6.563   4.925   5.853
 3424WAT     H211855   6.574   5.056   5.929
 3425WAT      O11856   6.384   4.838   6.464
 3425WAT     H111857   6.426   4.816   6.381
 3425WAT     H211858   6.457   4.864   6.521
 3426WAT      O11859   6.128   4.582   5.776
 3426WAT     H111860   6.035   4.576   5.799
 3426WAT     H211861   6.143   4.676   5.764
 3427WAT      O11862   6.127   4.209   5.475
 3427WAT     H111863   6.033   4.226   5.484
 3427WAT     H211864   6.159   4.281   5.421
 3428WAT      O11865   6.779   4.678   6.473
 3428WAT     H111866   6.696   4.685   6.426
 3428WAT     H211867   6.838   4.736   6.426
 3429WAT      O11868   6.531   4.739   5.826
 3429WAT     H111869   6.469   4.705   5.761
 3429WAT     H211870   6.529   4.674   5.897
 3430WAT      O11871   6.475   4.356   6.568
 3430WAT     H111872   6.434   4.439   6.593
 3430WAT     H211873   6.402   4.298   6.549
 3431WAT      O11874   5.689   4.635   6.054
 3431WAT     H111875   5.648   4.564   6.004
 3431WAT     H211876   5.697   4.600   6.143
 3432WAT      O11877   5.736   5.004   6.270
 3432WAT     H111878   5.706   4.943   6.202
 3432WAT     H211879   5.831   5.007   6.259
 3433WAT      O11880   5.560   4.312   6.432
 3433WAT     H111881   5.615   4.323   6.354
 3433WAT     H211882   5.611   4.350   6.504
 3434WAT      O11883   6.544   5.361   6.637
 3434WAT     H111884   6.497   5.442   6.617
 3434WAT     H211885   6.476   5.296   6.652
 3435WAT      O11886   6.349   4.662   5.527
 3435WAT     H111887   6.393   4.579   5.512
 3435WAT     H211888   6.420   4.726   5.535
 3436WAT      O11889   6.160   5.156   5.924
 3436WAT     H111890   6.204   5.231   5.882
 3436WAT     H211891   6.154   5.181   6.016
 3437WAT      O11892   6.707   3.788   5.358
 3437WAT     H111893   6.676   3.797   5.448
 3437WAT     H211894   6.783   3.846   5.353
 3438WAT      O11895   5.359   4.524   5.804
 3438WAT     H111896   5.347   4.597   5.743
 3438WAT     H211897   5.328   4.447   5.756
 3439WAT      O11898   5.123   4.842   6.385
 3439WAT     H111899   5.130   4.855   6.290
 3439WAT     H211900   5.184   4.771   6.404
 3440WAT      O11901   5.247   5.012   6.026
 3440WAT     H111902   5.206   5.026   5.940
 3440WAT     H211903   5.336   4.983   6.005
 3441WAT      O11904   6.426   5.455   5.659
 3441WAT     H111905   6.410   5.426   5.749
 3441WAT     H211906   6.410   5.377   5.606
 3442WAT      O11907   5.674   5.433   5.837
 3442WAT     H111908   5.657   5.341   5.816
 3442WAT     H211909   5.589   5.469   5.861
 3443WAT      O11910   6.397   5.206   5.515
 3443WAT     H111911   6.327   5.206   5.449
 3443WAT     H211912   6.471   5.163   5.472
 3444WAT      O11913   6.353   5.369   5.923
 3444WAT     H111914   6.399   5.290   5.954
 3444WAT     H211915   6.387   5.440   5.977
 3445WAT      O11916   5.605   3.859   6.142
 3445WAT     H111917   5.561   3.937   6.109
 3445WAT     H211918   5.661   3.891   6.213
 3446WAT      O11919   5.917   3.821   5.630
 3446WAT     H111920   5.855   3.820   5.703
 3446WAT     H211921   5.908   3.734   5.591
 3447WAT      O11922   5.809   3.913   6.328
 3447WAT     H111923   5.839   4.004   6.320
 3447WAT     H211924   5.864   3.864   6.267
 3448WAT      O11925   5.585   4.371   5.915
 3448WAT     H111926   5.562   4.349   6.006
 3448WAT     H211927   5.506   4.414   5.881
 3449WAT      O11928   6.307   4.372   5.775
 3449WAT     H111929   6.248   4.444   5.757
 3449WAT     H211930   6.362   4.365   5.697
 3450WAT      O11931   6.168   4.235   5.978
 3450WAT     H111932   6.207   4.267   5.897
 3450WAT     H211933   6.204   4.147   5.989
 3451WAT      O11934   5.072   3.894   6.200
 3451WAT     H111935   5.043   3.951   6.272
 3451WAT     H211936   5.146   3.846   6.237
 3452WAT      O11937   5.090   4.289   5.321
 3452WAT     H111938   5.082   4.383   5.336
 3452WAT     H211939   5.055   4.274   5.233
 3453WAT      O11940   6.227   4.494   6.388
 3453WAT     H111941   6.154   4.545   6.422
 3453WAT     H211942   6.187   4.413   6.357
 3454WAT      O11943   5.870   4.162   6.228
 3454WAT     H111944   5.871   4.118   6.143
 3454WAT     H211945   5.960   4.194   6.239
 3455WAT      O11946   5.455   4.150   6.124
 3455WAT     H111947   5.421   4.198   6.200
 3455WAT     H211948   5.379   4.105   6.088
 3456WAT      O11949   5.877   4.262   5.527
 3456WAT     H111950   5.889   4.258   5.622
 3456WAT     H211951   5.838   4.348   5.512
 3457WAT      O11952   6.273   4.040   6.329
 3457WAT     H111953   6.275   4.085   6.413
 3457WAT     H211954   6.248   3.950   6.350
 3458WAT      O11955   5.778   4.493   5.467
 3458WAT     H111956   5.721   4.448   5.404
 3458WAT     H211957   5.849   4.529   5.414
 3459WAT      O11958   5.901   4.568   6.403
 3459WAT     H111959   5.937   4.521   6.477
 3459WAT     H211960   5.882   4.655   6.437
 3460WAT      O11961   5.187   4.042   6.016
 3460WAT     H111962   5.158   4.006   6.099
 3460WAT     H211963   5.181   3.969   5.954
 3461WAT      O11964   5.532   4.893   5.694
 3461WAT     H111965   5.455   4.839   5.678
 3461WAT     H211966   5.605   4.841   5.660
 3462WAT      O11967   6.608   4.792   6.273
 3462WAT     H111968   6.680   4.842   6.234
 3462WAT     H211969   6.588   4.724   6.209
 3463WAT      O11970   6.154   3.932   5.688
 3463WAT     H111971   6.073   3.882   5.680
 3463WAT     H211972   6.135   4.016   5.646
 3464WAT      O11973   6.426   4.369   5.517
 3464WAT     H111974   6.515   4.400   5.500
 3464WAT     H211975   6.423   4.282   5.478
 3465WAT      O11976   5.537   4.859   6.058
 3465WAT     H111977   5.589   4.779   6.053
 3465WAT     H211978   5.492   4.853   6.142
 3466WAT      O11979   6.025   4.986   5.585
 3466WAT     H111980   6.060   5.061   5.536
 3466WAT     H211981   5.943   5.017   5.622
 3467WAT      O11982   6.653   4.500   5.464
 3467WAT     H111983   6.645   4.543   5.379
 3467WAT     H211984   6.725   4.546   5.507
 3468WAT      O11985   6.756   5.185   5.737
 3468WAT     H111986   6.692   5.120   5.764
 3468WAT     H211987   6.717   5.226   5.659
 3469WAT      O11988   6.314   4.918   6.122
 3469WAT     H111989   6.349   4.859   6.056
 3469WAT     H211990   6.225   4.886   6.139
 3470WAT      O11991   5.922   4.994   5.862
 3470WAT     H111992   5.991   5.049   5.901
 3470WAT     H211993   5.844   5.049   5.866
 3471WAT      O11994   5.136   4.556   5.412
 3471WAT     H111995   5.223   4.584   5.440
 3471WAT     H211996   5.087   4.637   5.400
 3472WAT      O11997   5.853   4.695   5.824
 3472WAT     H111998   5.898   4.776   5.846
 3472WAT     H211999   5.817   4.663   5.907
 3473WAT      O12000   6.083   5.246   6.547
 3473WAT     H112001   6.147   5.266   6.614
 3473WAT     H212002   6.119   5.170   6.501
 3474WAT      O12003   5.443   3.729   5.871
 3474WAT     H112004   5.430   3.728   5.966
 3474WAT     H212005   5.360   3.763   5.836
 3475WAT      O12006   6.210   5.046   6.418
 3475WAT     H112007   6.274   4.976   6.430
 3475WAT     H212008   6.263   5.124   6.400
 3476WAT      O12009   6.595   5.075   5.391
 3476WAT     H112010   6.572   5.003   5.450
 3476WAT     H212011   6.556   5.050   5.307
 3477WAT      O12012   5.173   5.477   5.468
 3477WAT     H112013   5.209   5.537   5.403
 3477WAT     H212014   5.159   5.532   5.546
 3478WAT      O12015   6.553   4.866   5.557
 3478WAT     H112016   6.524   4.912   5.636
 3478WAT     H212017   6.632   4.820   5.584
 3479WAT      O12018   5.775   5.216   5.550
 3479WAT     H112019   5.774   5.289   5.488
 3479WAT     H212020   5.683   5.191   5.559
 3480WAT      O12021   5.335   4.738   5.624
 3480WAT     H112022   5.274   4.812   5.625
 3480WAT     H212023   5.382   4.747   5.542
 3481WAT      O12024   6.292   4.154   6.592
 3481WAT     H112025   6.329   4.072   6.625
 3481WAT     H212026   6.206   4.160   6.634
 3482WAT      O12027   6.629   4.050   5.673
 3482WAT     H112028   6.566   4.060   5.601
 3482WAT     H212029   6.579   4.072   5.752
 3483WAT      O12030   6.073   5.222   5.416
 3483WAT     H112031   6.083   5.202   5.323
 3483WAT     H212032   5.983   5.196   5.437
 3484WAT      O12033   5.826   4.278   5.814
 3484WAT     H112034   5.755   4.325   5.859
 3484WAT     H212035   5.854   4.212   5.878
 3485WAT      O12036   6.229   3.950   5.958
 3485WAT     H112037   6.216   3.952   5.864
 3485WAT     H212038   6.324   3.955   5.970
 3486WAT      O12039   5.937   5.474   5.886
 3486WAT     H112040   5.963   5.470   5.793
 3486WAT     H212041   5.843   5.461   5.885
 3487WAT      O12042   5.646   4.109   5.552
 3487WAT     H112043   5.731   4.152   5.545
 3487WAT     H212044   5.609   4.140   5.635
 3488WAT      O12045   6.538   4.566   6.043
 3488WAT     H112046   6.444   4.567   6.061
 3488WAT     H212047   6.569   4.487   6.088
 3489WAT      O12048   5.536   4.734   5.399
 3489WAT     H112049   5.612   4.723   5.456
 3489WAT     H212050   5.544   4.664   5.334
 3490WAT      O12051   5.405   4.477   5.468
 3490WAT     H112052   5.413   4.382   5.479
 3490WAT     H212053   5.494   4.510   5.478
 3491WAT      O12054   6.738   5.283   6.211
 3491WAT     H112055   6.751   5.365   6.258
 3491WAT     H212056   6.825   5.262   6.176
 3492WAT      O12057   5.485   5.492   6.178
 3492WAT     H112058   5.559   5.437   6.205
 3492WAT     H212059   5.524   5.579   6.164
 3493WAT      O12060   5.174   5.099   5.765
 3493WAT     H112061   5.081   5.123   5.764
 3493WAT     H212062   5.220   5.182   5.753
 3494WAT      O12063   5.796   5.409   5.360
 3494WAT     H112064   5.876   5.438   5.315
 3494WAT     H212065   5.744   5.366   5.292
 3495WAT      O12066   6.702   5.332   5.503
 3495WAT     H112067   6.673   5.291   5.421
 3495WAT     H212068   6.682   5.425   5.491
 3496WAT      O12069   5.848   4.931   5.347
 3496WAT     H112070   5.838   4.870   5.419
 3496WAT     H212071   5.831   4.879   5.268
 3497WAT      O12072   6.172   4.838   5.407
 3497WAT     H112073   6.117   4.882   5.472
 3497WAT     H212074   6.234   4.787   5.459
 3498WAT      O12075   5.739   4.733   5.597
 3498WAT     H112076   5.781   4.717   5.681
 3498WAT     H212077   5.751   4.652   5.547
 3499WAT      O12078   5.990   4.636   5.322
 3499WAT     H112079   6.042   4.564   5.285
 3499WAT     H212080   6.055   4.700   5.352
 3500WAT      O12081   5.881   3.884   6.589
 3500WAT     H112082   5.836   3.886   6.504
 3500WAT     H212083   5.817   3.844   6.648
 3501WAT      O12084   5.921   4.773   6.651
 3501WAT     H112085   5.963   4.858   6.634
 3501WAT     H212086   5.829   4.787   6.628
 3502WAT      O12087   5.629   4.341   5.291
 3502WAT     H112088   5.608   4.255   5.327
 3502WAT     H212089   5.611   4.332   5.198
 3503WAT      O12090   6.376   3.822   5.544
 3503WAT     H112091   6.404   3.738   5.580
 3503WAT     H212092   6.299   3.845   5.596
 3504WAT      O12093   5.508   4.051   5.290
 3504WAT     H112094   5.539   4.052   5.199
 3504WAT     H212095   5.582   4.016   5.340
 3505WAT      O12096   5.830   3.945   5.389
 3505WAT     H112097   5.795   3.877   5.331
 3505WAT     H212098   5.850   3.899   5.470
 3506WAT      O12099   6.047   5.444   5.551
 3506WAT     H112100   6.136   5.478   5.553
 3506WAT     H212101   6.050   5.372   5.488
 3507WAT      O12102   5.411   4.981   5.373
 3507WAT     H112103   5.454   5.036   5.439
 3507WAT     H212104   5.459   4.899   5.374
 3508WAT      O12105   5.132   5.260   6.119
 3508WAT     H112106   5.165   5.173   6.095
 3508WAT     H212107   5.175   5.281   6.202
 3509WAT      O12108   5.592   5.093   5.885
 3509WAT     H112109   5.562   5.081   5.975
 3509WAT     H212110   5.581   5.007   5.844
 3510WAT      O12111   5.181   5.347   6.392
 3510WAT     H112112   5.137   5.365   6.476
 3510WAT     H212113   5.238   5.423   6.378
 3511WAT      O12114   6.869   5.071   5.355
 3511WAT     H112115   6.786   5.078   5.402
 3511WAT     H212116   6.886   5.160   5.325
 3512WAT      O12117   6.814   4.746   5.605
 3512WAT     H112118   6.890   4.803   5.616
 3512WAT     H212119   6.816   4.689   5.682
 3513WAT      O12120   5.164   4.598   6.028
 3513WAT     H112121   5.099   4.571   5.964
 3513WAT     H212122   5.248   4.587   5.983
 3514WAT      O12123   6.915   4.831   6.090
 3514WAT     H112124   6.952   4.753   6.049
 3514WAT     H212125   6.979   4.900   6.072
 3515WAT      O12126   6.819   4.775   5.321
 3515WAT     H112127   6.847   4.866   5.308
 3515WAT     H212128   6.801   4.769   5.415
 3516WAT      O12129   6.459   4.077   5.450
 3516WAT     H112130   6.501   4.059   5.366
 3516WAT     H212131   6.429   3.992   5.482
 3517WAT      O12132   6.809   4.569   5.820
 3517WAT     H112133   6.772   4.492   5.777
 3517WAT     H212134   6.736   4.607   5.869
 3518WAT      O12135   5.268   4.637   6.482
 3518WAT     H112136   5.305   4.628   6.570
 3518WAT     H212137   5.211   4.560   6.472
 3519WAT      O12138   5.086   4.319   5.623
 3519WAT     H112139   4.995   4.345   5.605
 3519WAT     H212140   5.134   4.346   5.545
 3520WAT      O12141   6.737   4.391   6.150
 3520WAT     H112142   6.789   4.342   6.087
 3520WAT     H212143   6.795   4.405   6.225
 3521WAT      O12144   6.755   4.400   6.503
 3521WAT     H112145   6.660   4.396   6.514
 3521WAT     H212146   6.773   4.491   6.479
 3522WAT      O12147   5.340   4.225   5.414
 3522WAT     H112148   5.411   4.183   5.365
 3522WAT     H212149   5.268   4.231   5.350
 3523WAT      O12150   5.305   3.830   5.318
 3523WAT     H112151   5.377   3.884   5.349
 3523WAT     H212152   5.332   3.803   5.230
 3524WAT      O12153   6.686   4.317   5.744
 3524WAT     H112154   6.735   4.294   5.823
 3524WAT     H212155   6.666   4.233   5.703
 3525WAT      O12156   5.274   3.755   6.308
 3525WAT     H112157   5.338   3.700   6.264
 3525WAT     H212158   5.316   3.781   6.390
 3526WAT      O12159   6.828   4.181   5.998
 3526WAT     H112160   6.817   4.165   6.091
 3526WAT     H212161   6.905   4.128   5.973
 3527WAT      O12162   6.917   3.964   5.322
 3527WAT     H112163   7.010   3.951   5.301
 3527WAT     H212164   6.915   3.972   5.417
 3528WAT      O12165   6.925   4.041   5.584
 3528WAT     H112166   6.845   4.034   5.637
 3528WAT     H212167   6.945   4.134   5.583
 3529WAT      O12168   6.619   5.445   5.984
 3529WAT     H112169   6.679   5.413   5.916
 3529WAT     H212170   6.645   5.397   6.063
 3530WAT      O12171   5.780   5.244   6.559
 3530WAT     H112172   5.756   5.270   6.470
 3530WAT     H212173   5.874   5.261   6.564
 3531WAT      O12174   6.338   3.712   6.531
 3531WAT     H112175   6.251   3.745   6.511
 3531WAT     H212176   6.327   3.665   6.613
 3532WAT      O12177   6.674   5.510   6.367
 3532WAT     H112178   6.628   5.585   6.329
 3532WAT     H212179   6.611   5.438   6.361
 3533WAT      O12180   5.357   5.119   6.606
 3533WAT     H112181   5.284   5.057   6.599
 3533WAT     H212182   5.363   5.159   6.519
 3534WAT      O12183   5.717   5.341   6.284
 3534WAT     H112184   5.769   5.279   6.232
 3534WAT     H212185   5.782   5.391   6.333
 3535WAT      O12186   5.991   5.430   6.367
 3535WAT     H112187   6.020   5.404   6.279
 3535WAT     H212188   6.042   5.374   6.426
 3536WAT      O12189   6.113   3.804   6.425
 3536WAT     H112190   6.034   3.851   6.453
 3536WAT     H212191   6.083   3.713   6.414
 3537WAT      O12192   6.568   3.874   6.229
 3537WAT     H112193   6.612   3.868   6.144
 3537WAT     H212194   6.541   3.965   6.236
 3538WAT      O12195   6.754   3.837   6.030
 3538WAT     H112196   6.748   3.743   6.016
 3538WAT     H212197   6.832   3.848   6.085
 3539WAT      O12198   5.185   5.451   5.927
 3539WAT     H112199   5.168   5.388   5.996
 3539WAT     H212200   5.098   5.471   5.892
 3540WAT      O12201   5.247   3.834   5.677
 3540WAT     H112202   5.323   3.845   5.620
 3540WAT     H212203   5.201   3.918   5.672
 3541WAT      O12204   5.901   4.045   5.976
 3541WAT     H112205   5.820   4.008   5.942
 3541WAT     H212206   5.952   3.970   6.006
 3542WAT      O12207   6.352   3.712   6.100
 3542WAT     H112208   6.412   3.769   6.147
 3542WAT     H212209   6.277   3.768   6.077
 3543WAT      O12210   6.666   3.752   5.627
 3543WAT     H112211   6.685   3.842   5.654
 3543WAT     H212212   6.587   3.729   5.676
 3544WAT      O12213   5.346   5.320   5.671
 3544WAT     H112214   5.293   5.358   5.601
 3544WAT     H212215   5.338   5.383   5.743
 3545WAT      O12216   5.484   3.887   5.531
 3545WAT     H112217   5.537   3.808   5.518
 3545WAT     H212218   5.548   3.955   5.554
 3546WAT      O12219   5.704   3.860   5.836
 3546WAT     H112220   5.641   3.790   5.853
 3546WAT     H212221   5.650   3.936   5.815
 3547WAT      O12222   6.821   5.476   5.803
 3547WAT     H112223   6.839   5.407   5.739
 3547WAT     H212224   6.751   5.529   5.764
 3548WAT      O12225   5.605   5.515   5.559
 3548WAT     H112226   5.679   5.487   5.504
 3548WAT     H212227   5.631   5.491   5.648
 3549WAT      O12228   5.522   5.127   5.559
 3549WAT     H112229   5.459   5.174   5.614
 3549WAT     H212230   5.533   5.042   5.602
 3550WAT      O12231   6.267   4.532   4.174
 3550WAT     H112232   6.259   4.440   4.147
 3550WAT     H212233   6.226   4.581   4.103
 3551WAT      O12234   6.080   4.710   4.362
 3551WAT     H112235   6.003   4.662   4.391
 3551WAT     H212236   6.145   4.642   4.345
 3552WAT      O12237   6.482   5.150   4.240
 3552WAT     H112238   6.436   5.073   4.273
 3552WAT     H212239   6.564   5.153   4.291
 3553WAT      O12240   5.480   5.144   4.469
 3553WAT     H112241   5.510   5.055   4.452
 3553WAT     H212242   5.554   5.200   4.447
 3554WAT      O12243   6.105   5.379   4.202
 3554WAT     H112244   6.043   5.424   4.145
 3554WAT     H212245   6.190   5.394   4.162
 3555WAT      O12246   6.024   4.977   4.363
 3555WAT     H112247   6.017   4.883   4.347
 3555WAT     H212248   6.101   4.986   4.420
 3556WAT      O12249   6.127   4.258   4.386
 3556WAT     H112250   6.165   4.171   4.374
 3556WAT     H212251   6.118   4.291   4.296
 3557WAT      O12252   6.506   4.007   4.079
 3557WAT     H112253   6.588   3.958   4.083
 3557WAT     H212254   6.509   4.066   4.154
 3558WAT      O12255   5.725   4.392   4.365
 3558WAT     H112256   5.775   4.442   4.429
 3558WAT     H212257   5.778   4.314   4.347
 3559WAT      O12258   6.935   4.209   4.735
 3559WAT     H112259   6.864   4.248   4.683
 3559WAT     H212260   6.961   4.278   4.795
 3560WAT      O12261   6.192   4.867   3.941
 3560WAT     H112262   6.130   4.914   3.885
 3560WAT     H212263   6.243   4.936   3.983
 3561WAT      O12264   5.678   4.820   4.609
 3561WAT     H112265   5.645   4.883   4.674
 3561WAT     H212266   5.696   4.872   4.531
 3562WAT      O12267   6.529   4.201   4.356
 3562WAT     H112268   6.459   4.230   4.414
 3562WAT     H212269   6.565   4.282   4.320
 3563WAT      O12270   5.599   5.017   4.791
 3563WAT     H112271   5.661   5.084   4.763
 3563WAT     H212272   5.513   5.058   4.782
 3564WAT      O12273   6.691   5.163   4.582
 3564WAT     H112274   6.623   5.230   4.582
 3564WAT     H212275   6.745   5.183   4.506
 3565WAT      O12276   6.836   4.146   4.395
 3565WAT     H112277   6.741   4.149   4.408
 3565WAT     H212278   6.869   4.227   4.434
 3566WAT      O12279   6.444   5.347   4.454
 3566WAT     H112280   6.446   5.307   4.367
 3566WAT     H212281   6.389   5.425   4.443
 3567WAT      O12282   6.574   5.020   3.963
 3567WAT     H112283   6.563   4.925   3.975
 3567WAT     H212284   6.574   5.056   4.051
 3568WAT      O12285   6.384   4.838   4.587
 3568WAT     H112286   6.426   4.816   4.503
 3568WAT     H212287   6.457   4.864   4.644
 3569WAT      O12288   6.128   4.582   3.898
 3569WAT     H112289   6.035   4.576   3.921
 3569WAT     H212290   6.143   4.676   3.887
 3570WAT      O12291   6.127   4.209   3.598
 3570WAT     H112292   6.033   4.226   3.607
 3570WAT     H212293   6.159   4.281   3.543
 3571WAT      O12294   6.779   4.678   4.596
 3571WAT     H112295   6.696   4.685   4.548
 3571WAT     H212296   6.838   4.736   4.549
 3572WAT      O12297   6.531   4.739   3.949
 3572WAT     H112298   6.469   4.705   3.884
 3572WAT     H212299   6.529   4.674   4.019
 3573WAT      O12300   6.475   4.356   4.690
 3573WAT     H112301   6.434   4.439   4.716
 3573WAT     H212302   6.402   4.298   4.671
 3574WAT      O12303   5.736   5.004   4.393
 3574WAT     H112304   5.706   4.943   4.325
 3574WAT     H212305   5.831   5.007   4.382
 3575WAT      O12306   6.544   5.361   4.759
 3575WAT     H112307   6.497   5.442   4.740
 3575WAT     H212308   6.476   5.296   4.774
 3576WAT      O12309   5.645   4.977   5.058
 3576WAT     H112310   5.555   5.000   5.083
 3576WAT     H212311   5.647   4.990   4.963
 3577WAT      O12312   6.349   4.662   3.649
 3577WAT     H112313   6.393   4.579   3.635
 3577WAT     H212314   6.420   4.726   3.658
 3578WAT      O12315   5.527   4.665   4.916
 3578WAT     H112316   5.513   4.752   4.952
 3578WAT     H212317   5.439   4.630   4.901
 3579WAT      O12318   6.160   5.156   4.046
 3579WAT     H112319   6.204   5.231   4.005
 3579WAT     H212320   6.154   5.181   4.139
 3580WAT      O12321   5.707   5.259   5.136
 3580WAT     H112322   5.704   5.299   5.050
 3580WAT     H212323   5.691   5.166   5.120
 3581WAT      O12324   6.902   5.337   5.266
 3581WAT     H112325   6.950   5.385   5.334
 3581WAT     H212326   6.964   5.330   5.194
 3582WAT      O12327   6.843   5.056   4.982
 3582WAT     H112328   6.855   5.032   4.890
 3582WAT     H212329   6.847   4.973   5.029
 3583WAT      O12330   6.229   5.426   4.839
 3583WAT     H112331   6.280   5.418   4.919
 3583WAT     H212332   6.145   5.461   4.868
 3584WAT      O12333   6.426   5.455   3.782
 3584WAT     H112334   6.410   5.426   3.872
 3584WAT     H212335   6.410   5.377   3.728
 3585WAT      O12336   5.674   5.433   3.960
 3585WAT     H112337   5.657   5.341   3.938
 3585WAT     H212338   5.589   5.469   3.984
 3586WAT      O12339   6.397   5.206   3.638
 3586WAT     H112340   6.327   5.206   3.572
 3586WAT     H212341   6.471   5.163   3.595
 3587WAT      O12342   6.353   5.369   4.045
 3587WAT     H112343   6.399   5.290   4.077
 3587WAT     H212344   6.387   5.440   4.100
 3588WAT      O12345   6.828   4.262   5.079
 3588WAT     H112346   6.766   4.312   5.026
 3588WAT     H212347   6.796   4.171   5.073
 3589WAT      O12348   5.128   4.946   4.761
 3589WAT     H112349   5.144   4.899   4.679
 3589WAT     H212350   5.175   4.895   4.828
 3590WAT      O12351   6.034   4.145   4.825
 3590WAT     H112352   5.988   4.166   4.906
 3590WAT     H212353   5.994   4.064   4.795
 3591WAT      O12354   6.534   4.268   4.938
 3591WAT     H112355   6.449   4.238   4.970
 3591WAT     H212356   6.518   4.292   4.847
 3592WAT      O12357   6.244   4.418   5.148
 3592WAT     H112358   6.276   4.334   5.114
 3592WAT     H212359   6.322   4.470   5.163
 3593WAT      O12360   6.307   4.372   3.898
 3593WAT     H112361   6.248   4.444   3.879
 3593WAT     H212362   6.362   4.365   3.819
 3594WAT      O12363   5.829   4.461   5.104
 3594WAT     H112364   5.819   4.367   5.089
 3594WAT     H212365   5.913   4.483   5.065
 3595WAT      O12366   5.999   4.110   5.227
 3595WAT     H112367   5.930   4.091   5.290
 3595WAT     H212368   6.073   4.139   5.280
 3596WAT      O12369   6.227   4.494   4.510
 3596WAT     H112370   6.154   4.545   4.545
 3596WAT     H212371   6.187   4.413   4.480
 3597WAT      O12372   5.870   4.162   4.351
 3597WAT     H112373   5.871   4.118   4.266
 3597WAT     H212374   5.960   4.194   4.361
 3598WAT      O12375   6.273   4.040   4.451
 3598WAT     H112376   6.275   4.085   4.536
 3598WAT     H212377   6.248   3.950   4.473
 3599WAT      O12378   6.616   3.781   5.035
 3599WAT     H112379   6.648   3.708   5.088
 3599WAT     H212380   6.619   3.749   4.945
 3600WAT      O12381   5.286   4.883   4.977
 3600WAT     H112382   5.247   4.819   5.037
 3600WAT     H212383   5.317   4.954   5.034
 3601WAT      O12384   5.901   4.568   4.525
 3601WAT     H112385   5.937   4.521   4.600
 3601WAT     H212386   5.882   4.655   4.559
 3602WAT      O12387   6.608   4.792   4.396
 3602WAT     H112388   6.680   4.842   4.357
 3602WAT     H212389   6.588   4.724   4.332
 3603WAT      O12390   6.146   4.799   4.985
 3603WAT     H112391   6.140   4.707   4.959
 3603WAT     H212392   6.083   4.809   5.056
 3604WAT      O12393   6.426   4.369   3.640
 3604WAT     H112394   6.515   4.400   3.622
 3604WAT     H212395   6.423   4.282   3.601
 3605WAT      O12396   5.605   4.602   5.160
 3605WAT     H112397   5.575   4.616   5.071
 3605WAT     H212398   5.682   4.546   5.151
 3606WAT      O12399   6.140   5.082   4.960
 3606WAT     H112400   6.141   4.988   4.938
 3606WAT     H212401   6.069   5.090   5.024
 3607WAT      O12402   6.653   4.500   3.587
 3607WAT     H112403   6.645   4.543   3.502
 3607WAT     H212404   6.725   4.546   3.630
 3608WAT      O12405   6.761   4.746   4.894
 3608WAT     H112406   6.688   4.805   4.875
 3608WAT     H212407   6.813   4.745   4.815
 3609WAT      O12408   6.756   5.185   3.860
 3609WAT     H112409   6.692   5.120   3.887
 3609WAT     H212410   6.717   5.226   3.782
 3610WAT      O12411   6.314   4.918   4.244
 3610WAT     H112412   6.349   4.859   4.178
 3610WAT     H212413   6.225   4.886   4.261
 3611WAT      O12414   5.922   4.994   3.985
 3611WAT     H112415   5.991   5.049   4.023
 3611WAT     H212416   5.844   5.049   3.989
 3612WAT      O12417   5.853   4.695   3.946
 3612WAT     H112418   5.898   4.776   3.969
 3612WAT     H212419   5.817   4.663   4.029
 3613WAT      O12420   6.083   5.246   4.669
 3613WAT     H112421   6.147   5.266   4.737
 3613WAT     H212422   6.119   5.170   4.624
 3614WAT      O12423   6.210   5.046   4.541
 3614WAT     H112424   6.274   4.976   4.552
 3614WAT     H212425   6.263   5.124   4.523
 3615WAT      O12426   6.595   5.075   3.513
 3615WAT     H112427   6.572   5.003   3.573
 3615WAT     H212428   6.556   5.050   3.430
 3616WAT      O12429   6.388   5.126   4.861
 3616WAT     H112430   6.421   5.185   4.929
 3616WAT     H212431   6.296   5.113   4.884
 3617WAT      O12432   6.553   4.866   3.679
 3617WAT     H112433   6.524   4.912   3.758
 3617WAT     H212434   6.632   4.820   3.706
 3618WAT      O12435   5.171   5.304   5.038
 3618WAT     H112436   5.182   5.210   5.024
 3618WAT     H212437   5.106   5.330   4.973
 3619WAT      O12438   5.971   5.131   5.178
 3619WAT     H112439   5.938   5.059   5.233
 3619WAT     H212440   5.903   5.199   5.186
 3620WAT      O12441   6.292   4.154   4.715
 3620WAT     H112442   6.329   4.072   4.747
 3620WAT     H212443   6.206   4.160   4.756
 3621WAT      O12444   6.629   4.050   3.795
 3621WAT     H112445   6.566   4.060   3.724
 3621WAT     H212446   6.579   4.072   3.874
 3622WAT      O12447   5.988   4.420   4.737
 3622WAT     H112448   6.038   4.467   4.803
 3622WAT     H212449   6.002   4.327   4.758
 3623WAT      O12450   5.937   5.474   4.008
 3623WAT     H112451   5.963   5.470   3.916
 3623WAT     H212452   5.843   5.461   4.008
 3624WAT      O12453   6.709   4.041   4.821
 3624WAT     H112454   6.658   4.115   4.855
 3624WAT     H212455   6.790   4.080   4.790
 3625WAT      O12456   6.538   4.566   4.166
 3625WAT     H112457   6.444   4.567   4.183
 3625WAT     H212458   6.569   4.487   4.210
 3626WAT      O12459   6.738   5.283   4.333
 3626WAT     H112460   6.751   5.365   4.381
 3626WAT     H212461   6.825   5.262   4.299
 3627WAT      O12462   5.485   5.492   4.301
 3627WAT     H112463   5.559   5.437   4.328
 3627WAT     H212464   5.524   5.579   4.287
 3628WAT      O12465   5.386   5.411   5.219
 3628WAT     H112466   5.466   5.443   5.261
 3628WAT     H212467   5.334   5.374   5.292
 3629WAT      O12468   6.270   5.021   5.214
 3629WAT     H112469   6.209   5.024   5.140
 3629WAT     H212470   6.239   4.948   5.268
 3630WAT      O12471   6.413   5.394   5.075
 3630WAT     H112472   6.508   5.386   5.070
 3630WAT     H212473   6.398   5.461   5.143
 3631WAT      O12474   6.702   5.332   3.625
 3631WAT     H112475   6.673   5.291   3.544
 3631WAT     H212476   6.682   5.425   3.613
 3632WAT      O12477   5.158   4.659   5.114
 3632WAT     H112478   5.208   4.601   5.171
 3632WAT     H212479   5.084   4.688   5.168
 3633WAT      O12480   5.863   4.800   5.067
 3633WAT     H112481   5.787   4.857   5.059
 3633WAT     H212482   5.881   4.771   4.978
 3634WAT      O12483   6.172   4.838   3.530
 3634WAT     H112484   6.117   4.882   3.594
 3634WAT     H212485   6.234   4.787   3.582
 3635WAT      O12486   6.578   4.973   5.123
 3635WAT     H112487   6.652   5.007   5.073
 3635WAT     H212488   6.501   4.990   5.068
 3636WAT      O12489   5.361   4.474   5.203
 3636WAT     H112490   5.365   4.444   5.294
 3636WAT     H212491   5.447   4.514   5.187
 3637WAT      O12492   5.555   4.331   5.000
 3637WAT     H112493   5.502   4.282   4.937
 3637WAT     H212494   5.622   4.374   4.947
 3638WAT      O12495   5.990   4.636   3.444
 3638WAT     H112496   6.042   4.564   3.407
 3638WAT     H212497   6.055   4.700   3.474
 3639WAT      O12498   6.445   4.778   4.976
 3639WAT     H112499   6.486   4.794   5.061
 3639WAT     H212500   6.352   4.791   4.993
 3640WAT      O12501   6.492   4.512   5.177
 3640WAT     H112502   6.550   4.437   5.168
 3640WAT     H212503   6.510   4.565   5.099
 3641WAT      O12504   5.604   4.028   5.008
 3641WAT     H112505   5.595   3.966   4.936
 3641WAT     H212506   5.546   4.101   4.985
 3642WAT      O12507   5.881   3.884   4.711
 3642WAT     H112508   5.836   3.886   4.627
 3642WAT     H212509   5.817   3.844   4.771
 3643WAT      O12510   5.921   4.773   4.773
 3643WAT     H112511   5.963   4.858   4.756
 3643WAT     H212512   5.829   4.787   4.750
 3644WAT      O12513   6.155   4.547   4.912
 3644WAT     H112514   6.167   4.487   4.986
 3644WAT     H212515   6.241   4.550   4.870
 3645WAT      O12516   6.389   4.602   4.769
 3645WAT     H112517   6.336   4.654   4.709
 3645WAT     H212518   6.423   4.665   4.832
 3646WAT      O12519   5.706   5.404   4.885
 3646WAT     H112520   5.652   5.476   4.853
 3646WAT     H212521   5.732   5.356   4.806
 3647WAT      O12522   5.832   4.201   5.038
 3647WAT     H112523   5.890   4.170   5.106
 3647WAT     H212524   5.750   4.154   5.053
 3648WAT      O12525   6.313   4.162   5.061
 3648WAT     H112526   6.245   4.096   5.054
 3648WAT     H212527   6.385   4.118   5.105
 3649WAT      O12528   5.992   5.527   4.911
 3649WAT     H112529   5.984   5.618   4.942
 3649WAT     H212530   5.902   5.496   4.908
 3650WAT      O12531   5.132   5.260   4.241
 3650WAT     H112532   5.165   5.173   4.218
 3650WAT     H212533   5.175   5.281   4.324
 3651WAT      O12534   5.592   5.093   4.007
 3651WAT     H112535   5.562   5.081   4.097
 3651WAT     H212536   5.581   5.007   3.966
 3652WAT      O12537   5.181   5.347   4.515
 3652WAT     H112538   5.137   5.365   4.598
 3652WAT     H212539   5.238   5.423   4.501
 3653WAT      O12540   6.745   5.297   4.944
 3653WAT     H112541   6.685   5.303   4.869
 3653WAT     H212542   6.758   5.203   4.957
 3654WAT      O12543   6.869   5.071   3.477
 3654WAT     H112544   6.786   5.078   3.525
 3654WAT     H212545   6.886   5.160   3.447
 3655WAT      O12546   6.814   4.746   3.728
 3655WAT     H112547   6.890   4.803   3.738
 3655WAT     H212548   6.816   4.689   3.805
 3656WAT      O12549   6.915   4.831   4.212
 3656WAT     H112550   6.952   4.753   4.172
 3656WAT     H212551   6.979   4.900   4.194
 3657WAT      O12552   6.613   4.970   4.754
 3657WAT     H112553   6.532   5.013   4.780
 3657WAT     H212554   6.654   5.031   4.692
 3658WAT      O12555   6.819   4.775   3.444
 3658WAT     H112556   6.847   4.866   3.431
 3658WAT     H212557   6.801   4.769   3.537
 3659WAT      O12558   6.459   4.077   3.573
 3659WAT     H112559   6.501   4.059   3.489
 3659WAT     H212560   6.429   3.992   3.604
 3660WAT      O12561   6.809   4.569   3.943
 3660WAT     H112562   6.772   4.492   3.900
 3660WAT     H212563   6.736   4.607   3.992
 3661WAT      O12564   6.748   4.483   4.906
 3661WAT     H112565   6.725   4.461   4.816
 3661WAT     H212566   6.774   4.575   4.902
 3662WAT      O12567   6.592   4.006   5.184
 3662WAT     H112568   6.680   4.007   5.222
 3662WAT     H212569   6.593   3.932   5.123
 3663WAT      O12570   6.737   4.391   4.273
 3663WAT     H112571   6.789   4.342   4.210
 3663WAT     H212572   6.795   4.405   4.347
 3664WAT      O12573   6.755   4.400   4.625
 3664WAT     H112574   6.660   4.396   4.637
 3664WAT     H212575   6.773   4.491   4.602
 3665WAT      O12576   6.686   4.317   3.867
 3665WAT     H112577   6.735   4.294   3.945
 3665WAT     H212578   6.666   4.233   3.825
 3666WAT      O12579   6.828   4.181   4.120
 3666WAT     H112580   6.817   4.165   4.214
 3666WAT     H212581   6.905   4.128   4.096
 3667WAT      O12582   6.663   3.775   4.766
 3667WAT     H112583   6.727   3.836   4.803
 3667WAT     H212584   6.678   3.778   4.672
 3668WAT      O12585   6.917   3.964   3.444
 3668WAT     H112586   7.010   3.951   3.423
 3668WAT     H212587   6.915   3.972   3.540
 3669WAT      O12588   6.925   4.041   3.707
 3669WAT     H112589   6.845   4.034   3.760
 3669WAT     H212590   6.945   4.134   3.706
 3670WAT      O12591   6.619   5.445   4.106
 3670WAT     H112592   6.679   5.413   4.039
 3670WAT     H212593   6.645   5.397   4.185
 3671WAT      O12594   5.410   5.088   5.121
 3671WAT     H112595   5.405   5.051   5.209
 3671WAT     H212596   5.423   5.182   5.135
 3672WAT      O12597   5.780   5.244   4.681
 3672WAT     H112598   5.756   5.270   4.593
 3672WAT     H212599   5.874   5.261   4.687
 3673WAT      O12600   6.000   3.890   5.057
 3673WAT     H112601   5.994   3.949   5.132
 3673WAT     H212602   6.094   3.879   5.042
 3674WAT      O12603   6.264   3.856   5.021
 3674WAT     H112604   6.325   3.887   4.955
 3674WAT     H212605   6.318   3.807   5.083
 3675WAT      O12606   6.906   5.445   4.761
 3675WAT     H112607   6.856   5.485   4.690
 3675WAT     H212608   6.845   5.383   4.801
 3676WAT      O12609   5.393   5.383   4.833
 3676WAT     H112610   5.334   5.369   4.907
 3676WAT     H212611   5.393   5.299   4.787
 3677WAT      O12612   6.338   3.712   4.653
 3677WAT     H112613   6.251   3.745   4.633
 3677WAT     H212614   6.327   3.665   4.736
 3678WAT      O12615   6.429   3.933   4.792
 3678WAT     H112616   6.396   3.851   4.754
 3678WAT     H212617   6.524   3.928   4.779
 3679WAT      O12618   6.674   5.510   4.489
 3679WAT     H112619   6.628   5.585   4.452
 3679WAT     H212620   6.611   5.438   4.483
 3680WAT      O12621   5.357   5.119   4.728
 3680WAT     H112622   5.284   5.057   4.721
 3680WAT     H212623   5.363   5.159   4.641
 3681WAT      O12624   5.717   5.341   4.407
 3681WAT     H112625   5.769   5.279   4.354
 3681WAT     H212626   5.782   5.391   4.456
 3682WAT      O12627   5.991   5.430   4.489
 3682WAT     H112628   6.020   5.404   4.402
 3682WAT     H212629   6.042   5.374   4.548
 3683WAT      O12630   6.568   3.874   4.352
 3683WAT     H112631   6.612   3.868   4.267
 3683WAT     H212632   6.541   3.965   4.359
 3684WAT      O12633   6.754   3.837   4.153
 3684WAT     H112634   6.748   3.743   4.138
 3684WAT     H212635   6.832   3.848   4.207
 3685WAT      O12636   5.185   5.451   4.049
 3685WAT     H112637   5.168   5.388   4.119
 3685WAT     H212638   5.098   5.471   4.014
 3686WAT      O12639   5.346   5.320   3.794
 3686WAT     H112640   5.293   5.358   3.723
 3686WAT     H212641   5.338   5.383   3.866
 3687WAT      O12642   5.998   5.522   5.226
 3687WAT     H112643   6.090   5.498   5.230
 3687WAT     H212644   5.996   5.605   5.178
 3688WAT      O12645   6.821   5.476   3.926
 3688WAT     H112646   6.839   5.407   3.861
 3688WAT     H212647   6.751   5.529   3.887
 3689WAT      O12648   5.716   3.788   5.202
 3689WAT     H112649   5.688   3.839   5.126
 3689WAT     H212650   5.755   3.708   5.166
 3690WAT      O12651   6.376   3.730   5.260
 3690WAT     H112652   6.365   3.762   5.350
 3690WAT     H212653   6.458   3.770   5.231
 3691WAT      O12654   6.654   5.445   5.208
 3691WAT     H112655   6.734   5.395   5.188
 3691WAT     H212656   6.684   5.512   5.269
 3692WAT      O12657   6.267   4.532   2.297
 3692WAT     H112658   6.259   4.440   2.270
 3692WAT     H212659   6.226   4.581   2.226
 3693WAT      O12660   6.080   4.710   2.485
 3693WAT     H112661   6.003   4.662   2.514
 3693WAT     H212662   6.145   4.642   2.467
 3694WAT      O12663   5.482   4.741   2.572
 3694WAT     H112664   5.399   4.715   2.612
 3694WAT     H212665   5.543   4.748   2.646
 3695WAT      O12666   6.482   5.150   2.363
 3695WAT     H112667   6.436   5.073   2.396
 3695WAT     H212668   6.564   5.153   2.413
 3696WAT      O12669   5.119   4.497   2.539
 3696WAT     H112670   5.176   4.420   2.539
 3696WAT     H212671   5.119   4.527   2.448
 3697WAT      O12672   6.105   5.379   2.325
 3697WAT     H112673   6.043   5.424   2.268
 3697WAT     H212674   6.190   5.394   2.285
 3698WAT      O12675   6.024   4.977   2.485
 3698WAT     H112676   6.017   4.883   2.469
 3698WAT     H212677   6.101   4.986   2.543
 3699WAT      O12678   5.243   4.038   2.718
 3699WAT     H112679   5.225   3.948   2.746
 3699WAT     H212680   5.203   4.092   2.785
 3700WAT      O12681   6.127   4.258   2.508
 3700WAT     H112682   6.165   4.171   2.497
 3700WAT     H212683   6.118   4.291   2.419
 3701WAT      O12684   6.506   4.007   2.201
 3701WAT     H112685   6.588   3.958   2.206
 3701WAT     H212686   6.509   4.066   2.277
 3702WAT      O12687   5.305   4.287   2.579
 3702WAT     H112688   5.373   4.314   2.641
 3702WAT     H212689   5.274   4.203   2.612
 3703WAT      O12690   5.725   4.392   2.488
 3703WAT     H112691   5.775   4.442   2.552
 3703WAT     H212692   5.778   4.314   2.470
 3704WAT      O12693   6.935   4.209   2.858
 3704WAT     H112694   6.864   4.248   2.806
 3704WAT     H212695   6.961   4.278   2.918
 3705WAT      O12696   5.553   3.856   2.914
 3705WAT     H112697   5.553   3.908   2.834
 3705WAT     H212698   5.470   3.808   2.912
 3706WAT      O12699   6.192   4.867   2.064
 3706WAT     H112700   6.130   4.914   2.008
 3706WAT     H212701   6.243   4.936   2.106
 3707WAT      O12702   6.529   4.201   2.479
 3707WAT     H112703   6.459   4.230   2.537
 3707WAT     H212704   6.565   4.282   2.443
 3708WAT      O12705   5.521   4.027   2.715
 3708WAT     H112706   5.555   4.111   2.685
 3708WAT     H212707   5.427   4.042   2.727
 3709WAT      O12708   5.128   4.936   1.801
 3709WAT     H112709   5.091   4.985   1.728
 3709WAT     H212710   5.154   5.003   1.865
 3710WAT      O12711   6.691   5.163   2.705
 3710WAT     H112712   6.623   5.230   2.704
 3710WAT     H212713   6.745   5.183   2.628
 3711WAT      O12714   6.836   4.146   2.518
 3711WAT     H112715   6.741   4.149   2.531
 3711WAT     H212716   6.869   4.227   2.556
 3712WAT      O12717   5.889   3.776   2.347
 3712WAT     H112718   5.920   3.720   2.276
 3712WAT     H212719   5.796   3.789   2.329
 3713WAT      O12720   6.444   5.347   2.576
 3713WAT     H112721   6.446   5.307   2.490
 3713WAT     H212722   6.389   5.425   2.566
 3714WAT      O12723   6.574   5.020   2.085
 3714WAT     H112724   6.563   4.925   2.098
 3714WAT     H212725   6.574   5.056   2.174
 3715WAT      O12726   6.384   4.838   2.709
 3715WAT     H112727   6.426   4.816   2.626
 3715WAT     H212728   6.457   4.864   2.766
 3716WAT      O12729   6.128   4.582   2.021
 3716WAT     H112730   6.035   4.576   2.044
 3716WAT     H212731   6.143   4.676   2.009
 3717WAT      O12732   6.127   4.209   1.721
 3717WAT     H112733   6.033   4.226   1.729
 3717WAT     H212734   6.159   4.281   1.666
 3718WAT      O12735   6.779   4.678   2.718
 3718WAT     H112736   6.696   4.685   2.671
 3718WAT     H212737   6.838   4.736   2.672
 3719WAT      O12738   6.531   4.739   2.071
 3719WAT     H112739   6.469   4.705   2.007
 3719WAT     H212740   6.529   4.674   2.142
 3720WAT      O12741   6.475   4.356   2.813
 3720WAT     H112742   6.434   4.439   2.838
 3720WAT     H212743   6.402   4.298   2.794
 3721WAT      O12744   5.689   4.635   2.299
 3721WAT     H112745   5.648   4.564   2.250
 3721WAT     H212746   5.697   4.600   2.388
 3722WAT      O12747   5.560   4.312   2.677
 3722WAT     H112748   5.615   4.323   2.600
 3722WAT     H212749   5.611   4.350   2.749
 3723WAT      O12750   6.544   5.361   2.882
 3723WAT     H112751   6.497   5.442   2.862
 3723WAT     H212752   6.476   5.296   2.897
 3724WAT      O12753   6.349   4.662   1.772
 3724WAT     H112754   6.393   4.579   1.757
 3724WAT     H212755   6.420   4.726   1.781
 3725WAT      O12756   6.160   5.156   2.169
 3725WAT     H112757   6.204   5.231   2.127
 3725WAT     H212758   6.154   5.181   2.261
 3726WAT      O12759   6.707   3.788   1.603
 3726WAT     H112760   6.676   3.797   1.693
 3726WAT     H212761   6.783   3.846   1.598
 3727WAT      O12762   6.902   5.337   3.389
 3727WAT     H112763   6.950   5.385   3.457
 3727WAT     H212764   6.964   5.330   3.316
 3728WAT      O12765   5.123   4.842   2.630
 3728WAT     H112766   5.130   4.855   2.535
 3728WAT     H212767   5.184   4.771   2.649
 3729WAT      O12768   5.247   5.012   2.271
 3729WAT     H112769   5.206   5.026   2.185
 3729WAT     H212770   5.336   4.983   2.251
 3730WAT      O12771   6.843   5.056   3.105
 3730WAT     H112772   6.855   5.032   3.013
 3730WAT     H212773   6.847   4.973   3.152
 3731WAT      O12774   6.229   5.426   2.962
 3731WAT     H112775   6.280   5.418   3.042
 3731WAT     H212776   6.145   5.461   2.991
 3732WAT      O12777   6.426   5.455   1.904
 3732WAT     H112778   6.410   5.426   1.994
 3732WAT     H212779   6.410   5.377   1.851
 3733WAT      O12780   5.674   5.433   2.082
 3733WAT     H112781   5.657   5.341   2.061
 3733WAT     H212782   5.589   5.469   2.106
 3734WAT      O12783   6.397   5.206   1.760
 3734WAT     H112784   6.327   5.206   1.694
 3734WAT     H212785   6.471   5.163   1.717
 3735WAT      O12786   6.353   5.369   2.168
 3735WAT     H112787   6.399   5.290   2.199
 3735WAT     H212788   6.387   5.440   2.222
 3736WAT      O12789   6.828   4.262   3.201
 3736WAT     H112790   6.766   4.312   3.148
 3736WAT     H212791   6.796   4.171   3.195
 3737WAT      O12792   5.605   3.859   2.387
 3737WAT     H112793   5.561   3.937   2.354
 3737WAT     H212794   5.661   3.891   2.458
 3738WAT      O12795   6.034   4.145   2.948
 3738WAT     H112796   5.988   4.166   3.029
 3738WAT     H212797   5.994   4.064   2.917
 3739WAT      O12798   6.534   4.268   3.061
 3739WAT     H112799   6.449   4.238   3.093
 3739WAT     H212800   6.518   4.292   2.970
 3740WAT      O12801   6.244   4.418   3.271
 3740WAT     H112802   6.276   4.334   3.237
 3740WAT     H212803   6.322   4.470   3.285
 3741WAT      O12804   5.917   3.821   1.875
 3741WAT     H112805   5.855   3.820   1.948
 3741WAT     H212806   5.908   3.734   1.836
 3742WAT      O12807   5.809   3.913   2.573
 3742WAT     H112808   5.839   4.004   2.565
 3742WAT     H212809   5.864   3.864   2.512
 3743WAT      O12810   6.307   4.372   2.020
 3743WAT     H112811   6.248   4.444   2.002
 3743WAT     H212812   6.362   4.365   1.942
 3744WAT      O12813   5.829   4.461   3.227
 3744WAT     H112814   5.819   4.367   3.212
 3744WAT     H212815   5.913   4.483   3.187
 3745WAT      O12816   6.168   4.235   2.223
 3745WAT     H112817   6.207   4.267   2.142
 3745WAT     H212818   6.204   4.147   2.235
 3746WAT      O12819   5.342   4.102   3.042
 3746WAT     H112820   5.302   4.187   3.063
 3746WAT     H212821   5.273   4.038   3.061
 3747WAT      O12822   5.999   4.110   3.349
 3747WAT     H112823   5.930   4.091   3.413
 3747WAT     H212824   6.073   4.139   3.402
 3748WAT      O12825   5.072   3.894   2.445
 3748WAT     H112826   5.043   3.951   2.517
 3748WAT     H212827   5.146   3.846   2.482
 3749WAT      O12828   6.227   4.494   2.633
 3749WAT     H112829   6.154   4.545   2.668
 3749WAT     H212830   6.187   4.413   2.603
 3750WAT      O12831   5.870   4.162   2.473
 3750WAT     H112832   5.871   4.118   2.388
 3750WAT     H212833   5.960   4.194   2.484
 3751WAT      O12834   5.455   4.150   2.369
 3751WAT     H112835   5.421   4.198   2.445
 3751WAT     H212836   5.379   4.105   2.333
 3752WAT      O12837   6.273   4.040   2.574
 3752WAT     H112838   6.275   4.085   2.658
 3752WAT     H212839   6.248   3.950   2.595
 3753WAT      O12840   6.616   3.781   3.158
 3753WAT     H112841   6.648   3.708   3.210
 3753WAT     H212842   6.619   3.749   3.068
 3754WAT      O12843   5.901   4.568   2.648
 3754WAT     H112844   5.937   4.521   2.722
 3754WAT     H212845   5.882   4.655   2.682
 3755WAT      O12846   5.680   4.472   2.880
 3755WAT     H112847   5.649   4.560   2.902
 3755WAT     H212848   5.775   4.478   2.883
 3756WAT      O12849   6.608   4.792   2.519
 3756WAT     H112850   6.680   4.842   2.480
 3756WAT     H212851   6.588   4.724   2.454
 3757WAT      O12852   6.154   3.932   1.933
 3757WAT     H112853   6.073   3.882   1.925
 3757WAT     H212854   6.135   4.016   1.891
 3758WAT      O12855   6.146   4.799   3.107
 3758WAT     H112856   6.140   4.707   3.082
 3758WAT     H212857   6.083   4.809   3.179
 3759WAT      O12858   6.426   4.369   1.763
 3759WAT     H112859   6.515   4.400   1.745
 3759WAT     H212860   6.423   4.282   1.723
 3760WAT      O12861   5.537   4.859   2.303
 3760WAT     H112862   5.589   4.779   2.298
 3760WAT     H212863   5.492   4.853   2.387
 3761WAT      O12864   6.025   4.986   1.830
 3761WAT     H112865   6.060   5.061   1.781
 3761WAT     H212866   5.943   5.017   1.867
 3762WAT      O12867   5.285   4.556   2.994
 3762WAT     H112868   5.249   4.623   3.053
 3762WAT     H212869   5.256   4.473   3.032
 3763WAT      O12870   6.140   5.082   3.082
 3763WAT     H112871   6.141   4.988   3.061
 3763WAT     H212872   6.069   5.090   3.146
 3764WAT      O12873   6.653   4.500   1.709
 3764WAT     H112874   6.645   4.543   1.624
 3764WAT     H212875   6.725   4.546   1.753
 3765WAT      O12876   6.761   4.746   3.017
 3765WAT     H112877   6.688   4.805   2.997
 3765WAT     H212878   6.813   4.745   2.937
 3766WAT      O12879   6.756   5.185   1.982
 3766WAT     H112880   6.692   5.120   2.010
 3766WAT     H212881   6.717   5.226   1.905
 3767WAT      O12882   6.314   4.918   2.367
 3767WAT     H112883   6.349   4.859   2.301
 3767WAT     H212884   6.225   4.886   2.384
 3768WAT      O12885   5.922   4.994   2.108
 3768WAT     H112886   5.991   5.049   2.146
 3768WAT     H212887   5.844   5.049   2.111
 3769WAT      O12888   5.853   4.695   2.069
 3769WAT     H112889   5.898   4.776   2.091
 3769WAT     H212890   5.817   4.663   2.152
 3770WAT      O12891   6.083   5.246   2.792
 3770WAT     H112892   6.147   5.266   2.859
 3770WAT     H212893   6.119   5.170   2.746
 3771WAT      O12894   6.210   5.046   2.664
 3771WAT     H112895   6.274   4.976   2.675
 3771WAT     H212896   6.263   5.124   2.645
 3772WAT      O12897   6.595   5.075   1.636
 3772WAT     H112898   6.572   5.003   1.695
 3772WAT     H212899   6.556   5.050   1.552
 3773WAT      O12900   6.388   5.126   2.984
 3773WAT     H112901   6.421   5.185   3.052
 3773WAT     H212902   6.296   5.113   3.007
 3774WAT      O12903   5.173   5.477   1.713
 3774WAT     H112904   5.209   5.537   1.648
 3774WAT     H212905   5.159   5.532   1.791
 3775WAT      O12906   6.553   4.866   1.802
 3775WAT     H112907   6.524   4.912   1.881
 3775WAT     H212908   6.632   4.820   1.829
 3776WAT      O12909   5.775   5.216   1.795
 3776WAT     H112910   5.774   5.289   1.734
 3776WAT     H212911   5.683   5.191   1.804
 3777WAT      O12912   6.292   4.154   2.837
 3777WAT     H112913   6.329   4.072   2.870
 3777WAT     H212914   6.206   4.160   2.879
 3778WAT      O12915   6.629   4.050   1.918
 3778WAT     H112916   6.566   4.060   1.847
 3778WAT     H212917   6.579   4.072   1.997
 3779WAT      O12918   6.073   5.222   1.661
 3779WAT     H112919   6.083   5.202   1.568
 3779WAT     H212920   5.983   5.196   1.682
 3780WAT      O12921   5.988   4.420   2.860
 3780WAT     H112922   6.038   4.467   2.926
 3780WAT     H212923   6.002   4.327   2.880
 3781WAT      O12924   6.229   3.950   2.204
 3781WAT     H112925   6.216   3.952   2.109
 3781WAT     H212926   6.324   3.955   2.216
 3782WAT      O12927   5.937   5.474   2.131
 3782WAT     H112928   5.963   5.470   2.039
 3782WAT     H212929   5.843   5.461   2.130
 3783WAT      O12930   6.709   4.041   2.944
 3783WAT     H112931   6.658   4.115   2.978
 3783WAT     H212932   6.790   4.080   2.912
 3784WAT      O12933   6.538   4.566   2.288
 3784WAT     H112934   6.444   4.567   2.306
 3784WAT     H212935   6.569   4.487   2.333
 3785WAT      O12936   5.536   4.734   1.644
 3785WAT     H112937   5.612   4.723   1.701
 3785WAT     H212938   5.544   4.664   1.579
 3786WAT      O12939   6.738   5.283   2.456
 3786WAT     H112940   6.751   5.365   2.503
 3786WAT     H212941   6.825   5.262   2.421
 3787WAT      O12942   5.174   5.099   2.011
 3787WAT     H112943   5.081   5.123   2.010
 3787WAT     H212944   5.220   5.182   1.998
 3788WAT      O12945   5.796   5.409   1.605
 3788WAT     H112946   5.876   5.438   1.560
 3788WAT     H212947   5.744   5.366   1.538
 3789WAT      O12948   6.270   5.021   3.337
 3789WAT     H112949   6.209   5.024   3.263
 3789WAT     H212950   6.239   4.948   3.390
 3790WAT      O12951   6.413   5.394   3.198
 3790WAT     H112952   6.508   5.386   3.193
 3790WAT     H212953   6.398   5.461   3.265
 3791WAT      O12954   6.702   5.332   1.748
 3791WAT     H112955   6.673   5.291   1.666
 3791WAT     H212956   6.682   5.425   1.736
 3792WAT      O12957   5.848   4.931   1.592
 3792WAT     H112958   5.838   4.870   1.664
 3792WAT     H212959   5.831   4.879   1.513
 3793WAT      O12960   6.172   4.838   1.652
 3793WAT     H112961   6.117   4.882   1.717
 3793WAT     H212962   6.234   4.787   1.705
 3794WAT      O12963   6.578   4.973   3.245
 3794WAT     H112964   6.652   5.007   3.195
 3794WAT     H212965   6.501   4.990   3.190
 3795WAT      O12966   5.555   4.331   3.123
 3795WAT     H112967   5.502   4.282   3.060
 3795WAT     H212968   5.622   4.374   3.069
 3796WAT      O12969   5.990   4.636   1.567
 3796WAT     H112970   6.042   4.564   1.530
 3796WAT     H212971   6.055   4.700   1.597
 3797WAT      O12972   6.445   4.778   3.099
 3797WAT     H112973   6.486   4.794   3.184
 3797WAT     H212974   6.352   4.791   3.115
 3798WAT      O12975   6.492   4.512   3.299
 3798WAT     H112976   6.550   4.437   3.291
 3798WAT     H212977   6.510   4.565   3.222
 3799WAT      O12978   5.881   3.884   2.834
 3799WAT     H112979   5.836   3.886   2.749
 3799WAT     H212980   5.817   3.844   2.894
 3800WAT      O12981   5.921   4.773   2.896
 3800WAT     H112982   5.963   4.858   2.879
 3800WAT     H212983   5.829   4.787   2.873
 3801WAT      O12984   6.155   4.547   3.034
 3801WAT     H112985   6.167   4.487   3.108
 3801WAT     H212986   6.241   4.550   2.992
 3802WAT      O12987   6.389   4.602   2.892
 3802WAT     H112988   6.336   4.654   2.832
 3802WAT     H212989   6.423   4.665   2.955
 3803WAT      O12990   5.629   4.341   1.536
 3803WAT     H112991   5.608   4.255   1.573
 3803WAT     H212992   5.611   4.332   1.443
 3804WAT      O12993   5.832   4.201   3.160
 3804WAT     H112994   5.890   4.170   3.229
 3804WAT     H212995   5.750   4.154   3.176
 3805WAT      O12996   6.313   4.162   3.183
 3805WAT     H112997   6.245   4.096   3.177
 3805WAT     H212998   6.385   4.118   3.228
 3806WAT      O12999   6.376   3.822   1.789
 3806WAT     H113000   6.404   3.738   1.825
 3806WAT     H213001   6.299   3.845   1.841
 3807WAT      O13002   5.508   4.051   1.535
 3807WAT     H113003   5.539   4.052   1.444
 3807WAT     H213004   5.582   4.016   1.585
 3808WAT      O13005   5.992   5.527   3.033
 3808WAT     H113006   5.984   5.618   3.064
 3808WAT     H213007   5.902   5.496   3.031
 3809WAT      O13008   5.830   3.945   1.634
 3809WAT     H113009   5.795   3.877   1.576
 3809WAT     H213010   5.850   3.899   1.715
 3810WAT      O13011   6.047   5.444   1.796
 3810WAT     H113012   6.136   5.478   1.798
 3810WAT     H213013   6.050   5.372   1.733
 3811WAT      O13014   5.411   4.981   1.619
 3811WAT     H113015   5.454   5.036   1.684
 3811WAT     H213016   5.459   4.899   1.619
 3812WAT      O13017   5.132   5.260   2.364
 3812WAT     H113018   5.165   5.173   2.341
 3812WAT     H213019   5.175   5.281   2.447
 3813WAT      O13020   5.592   5.093   2.130
 3813WAT     H113021   5.562   5.081   2.220
 3813WAT     H213022   5.581   5.007   2.089
 3814WAT      O13023   6.745   5.297   3.066
 3814WAT     H113024   6.685   5.303   2.992
 3814WAT     H213025   6.758   5.203   3.079
 3815WAT      O13026   6.869   5.071   1.600
 3815WAT     H113027   6.786   5.078   1.647
 3815WAT     H213028   6.886   5.160   1.570
 3816WAT      O13029   6.814   4.746   1.850
 3816WAT     H113030   6.890   4.803   1.861
 3816WAT     H213031   6.816   4.689   1.927
 3817WAT      O13032   5.164   4.598   2.273
 3817WAT     H113033   5.099   4.571   2.209
 3817WAT     H213034   5.248   4.587   2.228
 3818WAT      O13035   6.915   4.831   2.335
 3818WAT     H113036   6.952   4.753   2.294
 3818WAT     H213037   6.979   4.900   2.317
 3819WAT      O13038   6.613   4.970   2.876
 3819WAT     H113039   6.532   5.013   2.902
 3819WAT     H213040   6.654   5.031   2.815
 3820WAT      O13041   6.819   4.775   1.566
 3820WAT     H113042   6.847   4.866   1.553
 3820WAT     H213043   6.801   4.769   1.660
 3821WAT      O13044   6.459   4.077   1.696
 3821WAT     H113045   6.501   4.059   1.612
 3821WAT     H213046   6.429   3.992   1.727
 3822WAT      O13047   6.809   4.569   2.065
 3822WAT     H113048   6.772   4.492   2.022
 3822WAT     H213049   6.736   4.607   2.114
 3823WAT      O13050   5.268   4.637   2.727
 3823WAT     H113051   5.305   4.628   2.815
 3823WAT     H213052   5.211   4.560   2.718
 3824WAT      O13053   6.748   4.483   3.029
 3824WAT     H113054   6.725   4.461   2.939
 3824WAT     H213055   6.774   4.575   3.024
 3825WAT      O13056   6.592   4.006   3.307
 3825WAT     H113057   6.680   4.007   3.345
 3825WAT     H213058   6.593   3.932   3.246
 3826WAT      O13059   6.737   4.391   2.395
 3826WAT     H113060   6.789   4.342   2.332
 3826WAT     H213061   6.795   4.405   2.470
 3827WAT      O13062   6.755   4.400   2.748
 3827WAT     H113063   6.660   4.396   2.759
 3827WAT     H213064   6.773   4.491   2.724
 3828WAT      O13065   5.305   3.830   1.563
 3828WAT     H113066   5.377   3.884   1.594
 3828WAT     H213067   5.332   3.803   1.475
 3829WAT      O13068   6.686   4.317   1.989
 3829WAT     H113069   6.735   4.294   2.068
 3829WAT     H213070   6.666   4.233   1.948
 3830WAT      O13071   5.274   3.755   2.553
 3830WAT     H113072   5.338   3.700   2.509
 3830WAT     H213073   5.316   3.781   2.635
 3831WAT      O13074   6.828   4.181   2.243
 3831WAT     H113075   6.817   4.165   2.337
 3831WAT     H213076   6.905   4.128   2.219
 3832WAT      O13077   6.663   3.775   2.889
 3832WAT     H113078   6.727   3.836   2.925
 3832WAT     H213079   6.678   3.778   2.794
 3833WAT      O13080   6.917   3.964   1.567
 3833WAT     H113081   7.010   3.951   1.546
 3833WAT     H213082   6.915   3.972   1.662
 3834WAT      O13083   6.925   4.041   1.829
 3834WAT     H113084   6.845   4.034   1.882
 3834WAT     H213085   6.945   4.134   1.828
 3835WAT      O13086   6.619   5.445   2.229
 3835WAT     H113087   6.679   5.413   2.161
 3835WAT     H213088   6.645   5.397   2.308
 3836WAT      O13089   5.249   3.771   2.827
 3836WAT     H113090   5.214   3.816   2.904
 3836WAT     H213091   5.216   3.681   2.835
 3837WAT      O13092   6.000   3.890   3.179
 3837WAT     H113093   5.994   3.949   3.254
 3837WAT     H213094   6.094   3.879   3.165
 3838WAT      O13095   6.264   3.856   3.143
 3838WAT     H113096   6.325   3.887   3.077
 3838WAT     H213097   6.318   3.807   3.205
 3839WAT      O13098   6.906   5.445   2.884
 3839WAT     H113099   6.856   5.485   2.812
 3839WAT     H213100   6.845   5.383   2.923
 3840WAT      O13101   6.338   3.712   2.776
 3840WAT     H113102   6.251   3.745   2.756
 3840WAT     H213103   6.327   3.665   2.858
 3841WAT      O13104   6.429   3.933   2.914
 3841WAT     H113105   6.396   3.851   2.876
 3841WAT     H213106   6.524   3.928   2.902
 3842WAT      O13107   6.674   5.510   2.612
 3842WAT     H113108   6.628   5.585   2.574
 3842WAT     H213109   6.611   5.438   2.606
 3843WAT      O13110   5.991   5.430   2.612
 3843WAT     H113111   6.020   5.404   2.524
 3843WAT     H213112   6.042   5.374   2.671
 3844WAT      O13113   6.113   3.804   2.670
 3844WAT     H113114   6.034   3.851   2.698
 3844WAT     H213115   6.083   3.713   2.659
 3845WAT      O13116   6.568   3.874   2.474
 3845WAT     H113117   6.612   3.868   2.390
 3845WAT     H213118   6.541   3.965   2.481
 3846WAT      O13119   6.754   3.837   2.275
 3846WAT     H113120   6.748   3.743   2.261
 3846WAT     H213121   6.832   3.848   2.330
 3847WAT      O13122   5.185   5.451   2.172
 3847WAT     H113123   5.168   5.388   2.242
 3847WAT     H213124   5.098   5.471   2.137
 3848WAT      O13125   5.901   4.045   2.221
 3848WAT     H113126   5.820   4.008   2.187
 3848WAT     H213127   5.952   3.970   2.251
 3849WAT      O13128   6.352   3.712   2.345
 3849WAT     H113129   6.412   3.769   2.392
 3849WAT     H213130   6.277   3.768   2.323
 3850WAT      O13131   6.666   3.752   1.872
 3850WAT     H113132   6.685   3.842   1.899
 3850WAT     H213133   6.587   3.729   1.922
 3851WAT      O13134   5.346   5.320   1.916
 3851WAT     H113135   5.293   5.358   1.846
 3851WAT     H213136   5.338   5.383   1.988
 3852WAT      O13137   6.821   5.476   2.048
 3852WAT     H113138   6.839   5.407   1.984
 3852WAT     H213139   6.751   5.529   2.009
 3853WAT      O13140   5.605   5.515   1.804
 3853WAT     H113141   5.679   5.487   1.749
 3853WAT     H213142   5.631   5.491   1.893
 3854WAT      O13143   5.522   5.127   1.804
 3854WAT     H113144   5.459   5.174   1.859
 3854WAT     H213145   5.533   5.042   1.848
 3855WAT      O13146   6.654   5.445   3.331
 3855WAT     H113147   6.734   5.395   3.310
 3855WAT     H213148   6.684   5.512   3.392
 3856WAT      O13149   6.267   4.532   0.419
 3856WAT     H113150   6.259   4.440   0.392
 3856WAT     H213151   6.226   4.581   0.349
 3857WAT      O13152   6.080   4.710   0.607
 3857WAT     H113153   6.003   4.662   0.636
 3857WAT     H213154   6.145   4.642   0.590
 3858WAT      O13155   5.482   4.741   0.695
 3858WAT     H113156   5.399   4.715   0.735
 3858WAT     H213157   5.543   4.748   0.769
 3859WAT      O13158   6.482   5.150   0.485
 3859WAT     H113159   6.436   5.073   0.518
 3859WAT     H213160   6.564   5.153   0.536
 3860WAT      O13161   5.480   5.144   0.715
 3860WAT     H113162   5.510   5.055   0.697
 3860WAT     H213163   5.554   5.200   0.692
 3861WAT      O13164   5.119   4.497   0.662
 3861WAT     H113165   5.176   4.420   0.662
 3861WAT     H213166   5.119   4.527   0.571
 3862WAT      O13167   6.105   5.379   0.447
 3862WAT     H113168   6.043   5.424   0.390
 3862WAT     H213169   6.190   5.394   0.407
 3863WAT      O13170   6.024   4.977   0.608
 3863WAT     H113171   6.017   4.883   0.592
 3863WAT     H213172   6.101   4.986   0.665
 3864WAT      O13173   5.243   4.038   0.841
 3864WAT     H113174   5.225   3.948   0.869
 3864WAT     H213175   5.203   4.092   0.908
 3865WAT      O13176   6.127   4.258   0.631
 3865WAT     H113177   6.165   4.171   0.619
 3865WAT     H213178   6.118   4.291   0.542
 3866WAT      O13179   5.540   4.095   0.177
 3866WAT     H113180   5.551   4.185   0.208
 3866WAT     H213181   5.449   4.090   0.148
 3867WAT      O13182   6.506   4.007   0.324
 3867WAT     H113183   6.588   3.958   0.328
 3867WAT     H213184   6.509   4.066   0.399
 3868WAT      O13185   5.305   4.287   0.701
 3868WAT     H113186   5.373   4.314   0.763
 3868WAT     H213187   5.274   4.203   0.735
 3869WAT      O13188   5.725   4.392   0.610
 3869WAT     H113189   5.775   4.442   0.674
 3869WAT     H213190   5.778   4.314   0.592
 3870WAT      O13191   6.935   4.209   0.980
 3870WAT     H113192   6.864   4.248   0.929
 3870WAT     H213193   6.961   4.278   1.041
 3871WAT      O13194   5.553   3.856   1.037
 3871WAT     H113195   5.553   3.908   0.956
 3871WAT     H213196   5.470   3.808   1.034
 3872WAT      O13197   5.678   4.820   0.854
 3872WAT     H113198   5.645   4.883   0.919
 3872WAT     H213199   5.696   4.872   0.776
 3873WAT      O13200   6.529   4.201   0.601
 3873WAT     H113201   6.459   4.230   0.659
 3873WAT     H213202   6.565   4.282   0.565
 3874WAT      O13203   5.521   4.027   0.837
 3874WAT     H113204   5.555   4.111   0.808
 3874WAT     H213205   5.427   4.042   0.849
 3875WAT      O13206   5.599   5.017   1.036
 3875WAT     H113207   5.661   5.084   1.008
 3875WAT     H213208   5.513   5.058   1.027
 3876WAT      O13209   6.691   5.163   0.827
 3876WAT     H113210   6.623   5.230   0.827
 3876WAT     H213211   6.745   5.183   0.751
 3877WAT      O13212   6.836   4.146   0.640
 3877WAT     H113213   6.741   4.149   0.653
 3877WAT     H213214   6.869   4.227   0.679
 3878WAT      O13215   5.889   3.776   0.470
 3878WAT     H113216   5.920   3.720   0.398
 3878WAT     H213217   5.796   3.789   0.452
 3879WAT      O13218   6.444   5.347   0.699
 3879WAT     H113219   6.446   5.307   0.612
 3879WAT     H213220   6.389   5.425   0.689
 3880WAT      O13221   6.574   5.020   0.208
 3880WAT     H113222   6.563   4.925   0.220
 3880WAT     H213223   6.574   5.056   0.296
 3881WAT      O13224   6.384   4.838   0.832
 3881WAT     H113225   6.426   4.816   0.748
 3881WAT     H213226   6.457   4.864   0.889
 3882WAT      O13227   6.779   4.678   0.841
 3882WAT     H113228   6.696   4.685   0.793
 3882WAT     H213229   6.838   4.736   0.794
 3883WAT      O13230   6.475   4.356   0.935
 3883WAT     H113231   6.434   4.439   0.961
 3883WAT     H213232   6.402   4.298   0.916
 3884WAT      O13233   5.689   4.635   0.422
 3884WAT     H113234   5.648   4.564   0.372
 3884WAT     H213235   5.697   4.600   0.511
 3885WAT      O13236   5.736   5.004   0.638
 3885WAT     H113237   5.706   4.943   0.570
 3885WAT     H213238   5.831   5.007   0.627
 3886WAT      O13239   5.560   4.312   0.800
 3886WAT     H113240   5.615   4.323   0.722
 3886WAT     H213241   5.611   4.350   0.871
 3887WAT      O13242   6.544   5.361   1.004
 3887WAT     H113243   6.497   5.442   0.985
 3887WAT     H213244   6.476   5.296   1.020
 3888WAT      O13245   5.645   4.977   1.303
 3888WAT     H113246   5.555   5.000   1.328
 3888WAT     H213247   5.647   4.990   1.208
 3889WAT      O13248   5.527   4.665   1.161
 3889WAT     H113249   5.513   4.752   1.198
 3889WAT     H213250   5.439   4.630   1.146
 3890WAT      O13251   6.160   5.156   0.291
 3890WAT     H113252   6.204   5.231   0.250
 3890WAT     H213253   6.154   5.181   0.384
 3891WAT      O13254   5.707   5.259   1.382
 3891WAT     H113255   5.704   5.299   1.295
 3891WAT     H213256   5.691   5.166   1.365
 3892WAT      O13257   6.902   5.337   1.511
 3892WAT     H113258   6.950   5.385   1.579
 3892WAT     H213259   6.964   5.330   1.439
 3893WAT      O13260   5.123   4.842   0.752
 3893WAT     H113261   5.130   4.855   0.658
 3893WAT     H213262   5.184   4.771   0.772
 3894WAT      O13263   5.247   5.012   0.393
 3894WAT     H113264   5.206   5.026   0.308
 3894WAT     H213265   5.336   4.983   0.373
 3895WAT      O13266   6.843   5.056   1.227
 3895WAT     H113267   6.855   5.032   1.135
 3895WAT     H213268   6.847   4.973   1.274
 3896WAT      O13269   6.229   5.426   1.084
 3896WAT     H113270   6.280   5.418   1.164
 3896WAT     H213271   6.145   5.461   1.113
 3897WAT      O13272   5.674   5.433   0.205
 3897WAT     H113273   5.657   5.341   0.183
 3897WAT     H213274   5.589   5.469   0.229
 3898WAT      O13275   6.353   5.369   0.290
 3898WAT     H113276   6.399   5.290   0.322
 3898WAT     H213277   6.387   5.440   0.345
 3899WAT      O13278   6.828   4.262   1.324
 3899WAT     H113279   6.766   4.312   1.271
 3899WAT     H213280   6.796   4.171   1.318
 3900WAT      O13281   5.128   4.946   1.006
 3900WAT     H113282   5.144   4.899   0.925
 3900WAT     H213283   5.175   4.895   1.073
 3901WAT      O13284   5.605   3.859   0.510
 3901WAT     H113285   5.561   3.937   0.477
 3901WAT     H213286   5.661   3.891   0.581
 3902WAT      O13287   6.034   4.145   1.070
 3902WAT     H113288   5.988   4.166   1.152
 3902WAT     H213289   5.994   4.064   1.040
 3903WAT      O13290   6.534   4.268   1.183
 3903WAT     H113291   6.449   4.238   1.215
 3903WAT     H213292   6.518   4.292   1.092
 3904WAT      O13293   6.244   4.418   1.393
 3904WAT     H113294   6.276   4.334   1.359
 3904WAT     H213295   6.322   4.470   1.408
 3905WAT      O13296   5.809   3.913   0.696
 3905WAT     H113297   5.839   4.004   0.688
 3905WAT     H213298   5.864   3.864   0.634
 3906WAT      O13299   5.585   4.371   0.283
 3906WAT     H113300   5.562   4.349   0.373
 3906WAT     H213301   5.506   4.414   0.248
 3907WAT      O13302   5.829   4.461   1.349
 3907WAT     H113303   5.819   4.367   1.334
 3907WAT     H213304   5.913   4.483   1.310
 3908WAT      O13305   6.168   4.235   0.346
 3908WAT     H113306   6.207   4.267   0.264
 3908WAT     H213307   6.204   4.147   0.357
 3909WAT      O13308   5.342   4.102   1.165
 3909WAT     H113309   5.302   4.187   1.185
 3909WAT     H213310   5.273   4.038   1.184
 3910WAT      O13311   5.999   4.110   1.472
 3910WAT     H113312   5.930   4.091   1.535
 3910WAT     H213313   6.073   4.139   1.525
 3911WAT      O13314   5.072   3.894   0.568
 3911WAT     H113315   5.043   3.951   0.639
 3911WAT     H213316   5.146   3.846   0.604
 3912WAT      O13317   6.227   4.494   0.755
 3912WAT     H113318   6.154   4.545   0.790
 3912WAT     H213319   6.187   4.413   0.725
 3913WAT      O13320   5.870   4.162   0.596
 3913WAT     H113321   5.871   4.118   0.511
 3913WAT     H213322   5.960   4.194   0.606
 3914WAT      O13323   5.455   4.150   0.492
 3914WAT     H113324   5.421   4.198   0.567
 3914WAT     H213325   5.379   4.105   0.456
 3915WAT      O13326   6.273   4.040   0.696
 3915WAT     H113327   6.275   4.085   0.781
 3915WAT     H213328   6.248   3.950   0.718
 3916WAT      O13329   6.616   3.781   1.280
 3916WAT     H113330   6.648   3.708   1.333
 3916WAT     H213331   6.619   3.749   1.190
 3917WAT      O13332   5.286   4.883   1.222
 3917WAT     H113333   5.247   4.819   1.282
 3917WAT     H213334   5.317   4.954   1.279
 3918WAT      O13335   5.901   4.568   0.770
 3918WAT     H113336   5.937   4.521   0.845
 3918WAT     H213337   5.882   4.655   0.804
 3919WAT      O13338   5.187   4.042   0.383
 3919WAT     H113339   5.158   4.006   0.467
 3919WAT     H213340   5.181   3.969   0.322
 3920WAT      O13341   5.680   4.472   1.002
 3920WAT     H113342   5.649   4.560   1.025
 3920WAT     H213343   5.775   4.478   1.006
 3921WAT      O13344   6.608   4.792   0.641
 3921WAT     H113345   6.680   4.842   0.602
 3921WAT     H213346   6.588   4.724   0.577
 3922WAT      O13347   6.146   4.799   1.230
 3922WAT     H113348   6.140   4.707   1.204
 3922WAT     H213349   6.083   4.809   1.301
 3923WAT      O13350   5.537   4.859   0.426
 3923WAT     H113351   5.589   4.779   0.420
 3923WAT     H213352   5.492   4.853   0.510
 3924WAT      O13353   5.285   4.556   1.117
 3924WAT     H113354   5.249   4.623   1.176
 3924WAT     H213355   5.256   4.473   1.154
 3925WAT      O13356   5.605   4.602   1.405
 3925WAT     H113357   5.575   4.616   1.316
 3925WAT     H213358   5.682   4.546   1.396
 3926WAT      O13359   6.140   5.082   1.205
 3926WAT     H113360   6.141   4.988   1.183
 3926WAT     H213361   6.069   5.090   1.269
 3927WAT      O13362   6.761   4.746   1.140
 3927WAT     H113363   6.688   4.805   1.120
 3927WAT     H213364   6.813   4.745   1.060
 3928WAT      O13365   6.314   4.918   0.489
 3928WAT     H113366   6.349   4.859   0.423
 3928WAT     H213367   6.225   4.886   0.507
 3929WAT      O13368   5.922   4.994   0.230
 3929WAT     H113369   5.991   5.049   0.268
 3929WAT     H213370   5.844   5.049   0.234
 3930WAT      O13371   5.853   4.695   0.191
 3930WAT     H113372   5.898   4.776   0.214
 3930WAT     H213373   5.817   4.663   0.275
 3931WAT      O13374   6.083   5.246   0.914
 3931WAT     H113375   6.147   5.266   0.982
 3931WAT     H213376   6.119   5.170   0.869
 3932WAT      O13377   5.443   3.729   0.239
 3932WAT     H113378   5.430   3.728   0.333
 3932WAT     H213379   5.360   3.763   0.204
 3933WAT      O13380   6.210   5.046   0.786
 3933WAT     H113381   6.274   4.976   0.797
 3933WAT     H213382   6.263   5.124   0.768
 3934WAT      O13383   6.388   5.126   1.106
 3934WAT     H113384   6.421   5.185   1.174
 3934WAT     H213385   6.296   5.113   1.129
 3935WAT      O13386   5.143   3.905   1.185
 3935WAT     H113387   5.071   3.925   1.245
 3935WAT     H213388   5.185   3.827   1.222
 3936WAT      O13389   5.171   5.304   1.283
 3936WAT     H113390   5.182   5.210   1.269
 3936WAT     H213391   5.106   5.330   1.218
 3937WAT      O13392   5.971   5.131   1.423
 3937WAT     H113393   5.938   5.059   1.478
 3937WAT     H213394   5.903   5.199   1.431
 3938WAT      O13395   6.292   4.154   0.960
 3938WAT     H113396   6.329   4.072   0.992
 3938WAT     H213397   6.206   4.160   1.001
 3939WAT      O13398   5.826   4.278   0.182
 3939WAT     H113399   5.755   4.325   0.226
 3939WAT     H213400   5.854   4.212   0.246
 3940WAT      O13401   5.988   4.420   0.982
 3940WAT     H113402   6.038   4.467   1.049
 3940WAT     H213403   6.002   4.327   1.003
 3941WAT      O13404   6.229   3.950   0.326
 3941WAT     H113405   6.216   3.952   0.231
 3941WAT     H213406   6.324   3.955   0.338
 3942WAT      O13407   5.937   5.474   0.253
 3942WAT     H113408   5.963   5.470   0.161
 3942WAT     H213409   5.843   5.461   0.253
 3943WAT      O13410   6.709   4.041   1.066
 3943WAT     H113411   6.658   4.115   1.100
 3943WAT     H213412   6.790   4.080   1.035
 3944WAT      O13413   6.538   4.566   0.411
 3944WAT     H113414   6.444   4.567   0.428
 3944WAT     H213415   6.569   4.487   0.456
 3945WAT      O13416   6.738   5.283   0.579
 3945WAT     H113417   6.751   5.365   0.626
 3945WAT     H213418   6.825   5.262   0.544
 3946WAT      O13419   5.485   5.492   0.546
 3946WAT     H113420   5.559   5.437   0.573
 3946WAT     H213421   5.524   5.579   0.532
 3947WAT      O13422   5.386   5.411   1.465
 3947WAT     H113423   5.466   5.443   1.506
 3947WAT     H213424   5.334   5.374   1.537
 3948WAT      O13425   6.270   5.021   1.459
 3948WAT     H113426   6.209   5.024   1.385
 3948WAT     H213427   6.239   4.948   1.513
 3949WAT      O13428   6.413   5.394   1.320
 3949WAT     H113429   6.508   5.386   1.315
 3949WAT     H213430   6.398   5.461   1.388
 3950WAT      O13431   5.158   4.659   1.359
 3950WAT     H113432   5.208   4.601   1.416
 3950WAT     H213433   5.084   4.688   1.413
 3951WAT      O13434   5.863   4.800   1.312
 3951WAT     H113435   5.787   4.857   1.304
 3951WAT     H213436   5.881   4.771   1.223
 3952WAT      O13437   6.578   4.973   1.368
 3952WAT     H113438   6.652   5.007   1.318
 3952WAT     H213439   6.501   4.990   1.313
 3953WAT      O13440   5.361   4.474   1.448
 3953WAT     H113441   5.365   4.444   1.539
 3953WAT     H213442   5.447   4.514   1.432
 3954WAT      O13443   5.555   4.331   1.245
 3954WAT     H113444   5.502   4.282   1.182
 3954WAT     H213445   5.622   4.374   1.192
 3955WAT      O13446   6.445   4.778   1.222
 3955WAT     H113447   6.486   4.794   1.306
 3955WAT     H213448   6.352   4.791   1.238
 3956WAT      O13449   6.492   4.512   1.422
 3956WAT     H113450   6.550   4.437   1.413
 3956WAT     H213451   6.510   4.565   1.344
 3957WAT      O13452   5.604   4.028   1.253
 3957WAT     H113453   5.595   3.966   1.181
 3957WAT     H213454   5.546   4.101   1.230
 3958WAT      O13455   5.881   3.884   0.956
 3958WAT     H113456   5.836   3.886   0.872
 3958WAT     H213457   5.817   3.844   1.016
 3959WAT      O13458   5.921   4.773   1.019
 3959WAT     H113459   5.963   4.858   1.001
 3959WAT     H213460   5.829   4.787   0.996
 3960WAT      O13461   6.155   4.547   1.157
 3960WAT     H113462   6.167   4.487   1.231
 3960WAT     H213463   6.241   4.550   1.115
 3961WAT      O13464   6.389   4.602   1.015
 3961WAT     H113465   6.336   4.654   0.954
 3961WAT     H213466   6.423   4.665   1.078
 3962WAT      O13467   5.706   5.404   1.130
 3962WAT     H113468   5.652   5.476   1.098
 3962WAT     H213469   5.732   5.356   1.051
 3963WAT      O13470   5.832   4.201   1.283
 3963WAT     H113471   5.890   4.170   1.351
 3963WAT     H213472   5.750   4.154   1.298
 3964WAT      O13473   6.313   4.162   1.306
 3964WAT     H113474   6.245   4.096   1.299
 3964WAT     H213475   6.385   4.118   1.350
 3965WAT      O13476   5.992   5.527   1.156
 3965WAT     H113477   5.984   5.618   1.187
 3965WAT     H213478   5.902   5.496   1.153
 3966WAT      O13479   5.132   5.260   0.486
 3966WAT     H113480   5.165   5.173   0.463
 3966WAT     H213481   5.175   5.281   0.569
 3967WAT      O13482   5.592   5.093   0.252
 3967WAT     H113483   5.562   5.081   0.342
 3967WAT     H213484   5.581   5.007   0.211
 3968WAT      O13485   5.181   5.347   0.760
 3968WAT     H113486   5.137   5.365   0.843
 3968WAT     H213487   5.238   5.423   0.746
 3969WAT      O13488   6.745   5.297   1.189
 3969WAT     H113489   6.685   5.303   1.115
 3969WAT     H213490   6.758   5.203   1.202
 3970WAT      O13491   5.164   4.598   0.396
 3970WAT     H113492   5.099   4.571   0.332
 3970WAT     H213493   5.248   4.587   0.351
 3971WAT      O13494   6.915   4.831   0.457
 3971WAT     H113495   6.952   4.753   0.417
 3971WAT     H213496   6.979   4.900   0.440
 3972WAT      O13497   6.613   4.970   0.999
 3972WAT     H113498   6.532   5.013   1.025
 3972WAT     H213499   6.654   5.031   0.937
 3973WAT      O13500   6.809   4.569   0.188
 3973WAT     H113501   6.772   4.492   0.145
 3973WAT     H213502   6.736   4.607   0.237
 3974WAT      O13503   5.268   4.637   0.850
 3974WAT     H113504   5.305   4.628   0.938
 3974WAT     H213505   5.211   4.560   0.840
 3975WAT      O13506   6.748   4.483   1.151
 3975WAT     H113507   6.725   4.461   1.061
 3975WAT     H213508   6.774   4.575   1.147
 3976WAT      O13509   5.223   4.328   1.241
 3976WAT     H113510   5.134   4.324   1.275
 3976WAT     H213511   5.277   4.348   1.317
 3977WAT      O13512   6.592   4.006   1.429
 3977WAT     H113513   6.680   4.007   1.467
 3977WAT     H213514   6.593   3.932   1.368
 3978WAT      O13515   6.737   4.391   0.518
 3978WAT     H113516   6.789   4.342   0.455
 3978WAT     H213517   6.795   4.405   0.592
 3979WAT      O13518   6.755   4.400   0.870
 3979WAT     H113519   6.660   4.396   0.882
 3979WAT     H213520   6.773   4.491   0.847
 3980WAT      O13521   5.274   3.755   0.675
 3980WAT     H113522   5.338   3.700   0.631
 3980WAT     H213523   5.316   3.781   0.758
 3981WAT      O13524   6.828   4.181   0.365
 3981WAT     H113525   6.817   4.165   0.459
 3981WAT     H213526   6.905   4.128   0.341
 3982WAT      O13527   6.663   3.775   1.011
 3982WAT     H113528   6.727   3.836   1.048
 3982WAT     H213529   6.678   3.778   0.917
 3983WAT      O13530   6.619   5.445   0.351
 3983WAT     H113531   6.679   5.413   0.284
 3983WAT     H213532   6.645   5.397   0.430
 3984WAT      O13533   5.249   3.771   0.950
 3984WAT     H113534   5.214   3.816   1.026
 3984WAT     H213535   5.216   3.681   0.958
 3985WAT      O13536   5.410   5.088   1.366
 3985WAT     H113537   5.405   5.051   1.454
 3985WAT     H213538   5.423   5.182   1.380
 3986WAT      O13539   5.780   5.244   0.926
 3986WAT     H113540   5.756   5.270   0.838
 3986WAT     H213541   5.874   5.261   0.932
 3987WAT      O13542   6.000   3.890   1.302
 3987WAT     H113543   5.994   3.949   1.377
 3987WAT     H213544   6.094   3.879   1.287
 3988WAT      O13545   6.264   3.856   1.266
 3988WAT     H113546   6.325   3.887   1.200
 3988WAT     H213547   6.318   3.807   1.328
 3989WAT      O13548   6.906   5.445   1.006
 3989WAT     H113549   6.856   5.485   0.935
 3989WAT     H213550   6.845   5.383   1.046
 3990WAT      O13551   5.316   3.723   1.277
 3990WAT     H113552   5.371   3.705   1.201
 3990WAT     H213553   5.323   3.644   1.331
 3991WAT      O13554   5.393   5.383   1.078
 3991WAT     H113555   5.334   5.369   1.152
 3991WAT     H213556   5.393   5.299   1.032
 3992WAT      O13557   6.338   3.712   0.899
 3992WAT     H113558   6.251   3.745   0.878
 3992WAT     H213559   6.327   3.665   0.981
 3993WAT      O13560   6.429   3.933   1.037
 3993WAT     H113561   6.396   3.851   0.999
 3993WAT     H213562   6.524   3.928   1.025
 3994WAT      O13563   6.674   5.510   0.734
 3994WAT     H113564   6.628   5.585   0.697
 3994WAT     H213565   6.611   5.438   0.728
 3995WAT      O13566   5.357   5.119   0.973
 3995WAT     H113567   5.284   5.057   0.967
 3995WAT     H213568   5.363   5.159   0.886
 3996WAT      O13569   5.717   5.341   0.652
 3996WAT     H113570   5.769   5.279   0.599
 3996WAT     H213571   5.782   5.391   0.701
 3997WAT      O13572   5.991   5.430   0.734
 3997WAT     H113573   6.020   5.404   0.647
 3997WAT     H213574   6.042   5.374   0.794
 3998WAT      O13575   6.113   3.804   0.792
 3998WAT     H113576   6.034   3.851   0.820
 3998WAT     H213577   6.083   3.713   0.782
 3999WAT      O13578   6.568   3.874   0.597
 3999WAT     H113579   6.612   3.868   0.512
 3999WAT     H213580   6.541   3.965   0.604
 4000WAT      O13581   6.754   3.837   0.398
 4000WAT     H113582   6.748   3.743   0.383
 4000WAT     H213583   6.832   3.848   0.453
 4001WAT      O13584   5.185   5.451   0.294
 4001WAT     H113585   5.168   5.388   0.364
 4001WAT     H213586   5.098   5.471   0.259
 4002WAT      O13587   5.901   4.045   0.344
 4002WAT     H113588   5.820   4.008   0.310
 4002WAT     H213589   5.952   3.970   0.374
 4003WAT      O13590   6.352   3.712   0.467
 4003WAT     H113591   6.412   3.769   0.515
 4003WAT     H213592   6.277   3.768   0.445
 4004WAT      O13593   5.704   3.860   0.204
 4004WAT     H113594   5.641   3.790   0.221
 4004WAT     H213595   5.650   3.936   0.182
 4005WAT      O13596   5.998   5.522   1.471
 4005WAT     H113597   6.090   5.498   1.476
 4005WAT     H213598   5.996   5.605   1.423
 4006WAT      O13599   5.716   3.788   1.448
 4006WAT     H113600   5.688   3.839   1.371
 4006WAT     H213601   5.755   3.708   1.411
 4007WAT      O13602   6.376   3.730   1.505
 4007WAT     H113603   6.365   3.762   1.595
 4007WAT     H213604   6.458   3.770   1.476
 4008WAT      O13605   6.654   5.445   1.454
 4008WAT     H113606   6.734   5.395   1.433
 4008WAT     H213607   6.684   5.512   1.514
 4009WAT      O13608   6.267   2.654   6.051
 4009WAT     H113609   6.259   2.563   6.024
 4009WAT     H213610   6.226   2.704   5.981
 4010WAT      O13611   6.080   2.832   6.240
 4010WAT     H113612   6.003   2.784   6.269
 4010WAT     H213613   6.145   2.764   6.222
 4011WAT      O13614   5.482   2.863   6.327
 4011WAT     H113615   5.399   2.838   6.367
 4011WAT     H213616   5.543   2.870   6.401
 4012WAT      O13617   6.482   3.273   6.118
 4012WAT     H113618   6.436   3.196   6.150
 4012WAT     H213619   6.564   3.275   6.168
 4013WAT      O13620   5.480   3.267   6.347
 4013WAT     H113621   5.510   3.178   6.329
 4013WAT     H213622   5.554   3.322   6.324
 4014WAT      O13623   5.323   2.359   5.706
 4014WAT     H113624   5.234   2.393   5.696
 4014WAT     H213625   5.351   2.339   5.617
 4015WAT      O13626   5.119   2.619   6.294
 4015WAT     H113627   5.176   2.543   6.294
 4015WAT     H213628   5.119   2.649   6.203
 4016WAT      O13629   6.105   3.501   6.080
 4016WAT     H113630   6.043   3.547   6.023
 4016WAT     H213631   6.190   3.517   6.039
 4017WAT      O13632   6.024   3.100   6.240
 4017WAT     H113633   6.017   3.006   6.224
 4017WAT     H213634   6.101   3.109   6.297
 4018WAT      O13635   5.243   2.160   6.473
 4018WAT     H113636   5.225   2.070   6.501
 4018WAT     H213637   5.203   2.215   6.540
 4019WAT      O13638   6.127   2.380   6.263
 4019WAT     H113639   6.165   2.293   6.252
 4019WAT     H213640   6.118   2.414   6.174
 4020WAT      O13641   5.540   2.218   5.809
 4020WAT     H113642   5.551   2.308   5.840
 4020WAT     H213643   5.449   2.213   5.780
 4021WAT      O13644   6.506   2.130   5.956
 4021WAT     H113645   6.588   2.081   5.960
 4021WAT     H213646   6.509   2.189   6.032
 4022WAT      O13647   5.305   2.410   6.334
 4022WAT     H113648   5.373   2.436   6.396
 4022WAT     H213649   5.274   2.326   6.367
 4023WAT      O13650   5.725   2.514   6.242
 4023WAT     H113651   5.775   2.564   6.306
 4023WAT     H213652   5.778   2.437   6.225
 4024WAT      O13653   6.192   2.990   5.819
 4024WAT     H113654   6.130   3.036   5.763
 4024WAT     H213655   6.243   3.059   5.861
 4025WAT      O13656   5.678   2.942   6.487
 4025WAT     H113657   5.645   3.005   6.551
 4025WAT     H213658   5.696   2.995   6.409
 4026WAT      O13659   6.529   2.324   6.234
 4026WAT     H113660   6.459   2.353   6.292
 4026WAT     H213661   6.565   2.405   6.198
 4027WAT      O13662   5.521   2.150   6.470
 4027WAT     H113663   5.555   2.234   6.440
 4027WAT     H213664   5.427   2.164   6.481
 4028WAT      O13665   5.128   3.058   5.556
 4028WAT     H113666   5.091   3.107   5.483
 4028WAT     H213667   5.154   3.125   5.619
 4029WAT      O13668   6.691   3.286   6.460
 4029WAT     H113669   6.623   3.353   6.459
 4029WAT     H213670   6.745   3.305   6.383
 4030WAT      O13671   6.836   2.268   6.273
 4030WAT     H113672   6.741   2.272   6.286
 4030WAT     H213673   6.869   2.350   6.311
 4031WAT      O13674   5.889   1.898   6.102
 4031WAT     H113675   5.920   1.843   6.031
 4031WAT     H213676   5.796   1.912   6.084
 4032WAT      O13677   6.444   3.470   6.331
 4032WAT     H113678   6.446   3.430   6.244
 4032WAT     H213679   6.389   3.548   6.321
 4033WAT      O13680   6.574   3.142   5.840
 4033WAT     H113681   6.563   3.048   5.853
 4033WAT     H213682   6.574   3.178   5.929
 4034WAT      O13683   6.384   2.960   6.464
 4034WAT     H113684   6.426   2.939   6.381
 4034WAT     H213685   6.457   2.986   6.521
 4035WAT      O13686   6.128   2.705   5.776
 4035WAT     H113687   6.035   2.698   5.799
 4035WAT     H213688   6.143   2.799   5.764
 4036WAT      O13689   6.127   2.332   5.475
 4036WAT     H113690   6.033   2.348   5.484
 4036WAT     H213691   6.159   2.404   5.421
 4037WAT      O13692   6.779   2.800   6.473
 4037WAT     H113693   6.696   2.807   6.426
 4037WAT     H213694   6.838   2.859   6.426
 4038WAT      O13695   6.531   2.861   5.826
 4038WAT     H113696   6.469   2.827   5.761
 4038WAT     H213697   6.529   2.797   5.897
 4039WAT      O13698   6.475   2.479   6.568
 4039WAT     H113699   6.434   2.561   6.593
 4039WAT     H213700   6.402   2.420   6.549
 4040WAT      O13701   5.689   2.758   6.054
 4040WAT     H113702   5.648   2.686   6.004
 4040WAT     H213703   5.697   2.723   6.143
 4041WAT      O13704   5.736   3.126   6.270
 4041WAT     H113705   5.706   3.066   6.202
 4041WAT     H213706   5.831   3.130   6.259
 4042WAT      O13707   5.560   2.435   6.432
 4042WAT     H113708   5.615   2.446   6.354
 4042WAT     H213709   5.611   2.472   6.504
 4043WAT      O13710   6.544   3.484   6.637
 4043WAT     H113711   6.497   3.564   6.617
 4043WAT     H213712   6.476   3.418   6.652
 4044WAT      O13713   6.349   2.785   5.527
 4044WAT     H113714   6.393   2.701   5.512
 4044WAT     H213715   6.420   2.848   5.535
 4045WAT      O13716   6.160   3.279   5.924
 4045WAT     H113717   6.204   3.353   5.882
 4045WAT     H213718   6.154   3.303   6.016
 4046WAT      O13719   6.707   1.910   5.358
 4046WAT     H113720   6.676   1.920   5.448
 4046WAT     H213721   6.783   1.968   5.353
 4047WAT      O13722   5.359   2.647   5.804
 4047WAT     H113723   5.347   2.720   5.743
 4047WAT     H213724   5.328   2.570   5.756
 4048WAT      O13725   5.123   2.964   6.385
 4048WAT     H113726   5.130   2.978   6.290
 4048WAT     H213727   5.184   2.893   6.404
 4049WAT      O13728   5.247   3.134   6.026
 4049WAT     H113729   5.206   3.148   5.940
 4049WAT     H213730   5.336   3.106   6.005
 4050WAT      O13731   6.426   3.578   5.659
 4050WAT     H113732   6.410   3.549   5.749
 4050WAT     H213733   6.410   3.500   5.606
 4051WAT      O13734   5.674   3.556   5.837
 4051WAT     H113735   5.657   3.464   5.816
 4051WAT     H213736   5.589   3.591   5.861
 4052WAT      O13737   6.397   3.328   5.515
 4052WAT     H113738   6.327   3.328   5.449
 4052WAT     H213739   6.471   3.286   5.472
 4053WAT      O13740   6.353   3.491   5.923
 4053WAT     H113741   6.399   3.413   5.954
 4053WAT     H213742   6.387   3.562   5.977
 4054WAT      O13743   5.605   1.981   6.142
 4054WAT     H113744   5.561   2.059   6.109
 4054WAT     H213745   5.661   2.014   6.213
 4055WAT      O13746   5.917   1.943   5.630
 4055WAT     H113747   5.855   1.943   5.703
 4055WAT     H213748   5.908   1.857   5.591
 4056WAT      O13749   5.809   2.036   6.328
 4056WAT     H113750   5.839   2.126   6.320
 4056WAT     H213751   5.864   1.987   6.267
 4057WAT      O13752   5.585   2.494   5.915
 4057WAT     H113753   5.562   2.472   6.006
 4057WAT     H213754   5.506   2.537   5.881
 4058WAT      O13755   6.307   2.494   5.775
 4058WAT     H113756   6.248   2.567   5.757
 4058WAT     H213757   6.362   2.488   5.697
 4059WAT      O13758   6.168   2.358   5.978
 4059WAT     H113759   6.207   2.390   5.897
 4059WAT     H213760   6.204   2.270   5.989
 4060WAT      O13761   5.072   2.017   6.200
 4060WAT     H113762   5.043   2.074   6.272
 4060WAT     H213763   5.146   1.969   6.237
 4061WAT      O13764   5.090   2.411   5.321
 4061WAT     H113765   5.082   2.505   5.336
 4061WAT     H213766   5.055   2.397   5.233
 4062WAT      O13767   6.227   2.617   6.388
 4062WAT     H113768   6.154   2.668   6.422
 4062WAT     H213769   6.187   2.535   6.357
 4063WAT      O13770   5.870   2.285   6.228
 4063WAT     H113771   5.871   2.240   6.143
 4063WAT     H213772   5.960   2.317   6.239
 4064WAT      O13773   5.455   2.273   6.124
 4064WAT     H113774   5.421   2.321   6.200
 4064WAT     H213775   5.379   2.227   6.088
 4065WAT      O13776   5.877   2.385   5.527
 4065WAT     H113777   5.889   2.381   5.622
 4065WAT     H213778   5.838   2.471   5.512
 4066WAT      O13779   6.273   2.162   6.329
 4066WAT     H113780   6.275   2.207   6.413
 4066WAT     H213781   6.248   2.072   6.350
 4067WAT      O13782   5.778   2.616   5.467
 4067WAT     H113783   5.721   2.571   5.404
 4067WAT     H213784   5.849   2.652   5.414
 4068WAT      O13785   5.901   2.691   6.403
 4068WAT     H113786   5.937   2.643   6.477
 4068WAT     H213787   5.882   2.778   6.437
 4069WAT      O13788   5.187   2.165   6.016
 4069WAT     H113789   5.158   2.129   6.099
 4069WAT     H213790   5.181   2.092   5.954
 4070WAT      O13791   5.532   3.015   5.694
 4070WAT     H113792   5.455   2.961   5.678
 4070WAT     H213793   5.605   2.963   5.660
 4071WAT      O13794   6.608   2.915   6.273
 4071WAT     H113795   6.680   2.964   6.234
 4071WAT     H213796   6.588   2.847   6.209
 4072WAT      O13797   6.154   2.054   5.688
 4072WAT     H113798   6.073   2.004   5.680
 4072WAT     H213799   6.135   2.138   5.646
 4073WAT      O13800   6.426   2.491   5.517
 4073WAT     H113801   6.515   2.523   5.500
 4073WAT     H213802   6.423   2.404   5.478
 4074WAT      O13803   5.537   2.982   6.058
 4074WAT     H113804   5.589   2.902   6.053
 4074WAT     H213805   5.492   2.976   6.142
 4075WAT      O13806   6.025   3.109   5.585
 4075WAT     H113807   6.060   3.183   5.536
 4075WAT     H213808   5.943   3.140   5.622
 4076WAT      O13809   6.653   2.623   5.464
 4076WAT     H113810   6.645   2.666   5.379
 4076WAT     H213811   6.725   2.669   5.507
 4077WAT      O13812   6.756   3.308   5.737
 4077WAT     H113813   6.692   3.243   5.764
 4077WAT     H213814   6.717   3.349   5.659
 4078WAT      O13815   6.314   3.041   6.122
 4078WAT     H113816   6.349   2.981   6.056
 4078WAT     H213817   6.225   3.008   6.139
 4079WAT      O13818   5.922   3.117   5.862
 4079WAT     H113819   5.991   3.172   5.901
 4079WAT     H213820   5.844   3.171   5.866
 4080WAT      O13821   5.136   2.679   5.412
 4080WAT     H113822   5.223   2.707   5.440
 4080WAT     H213823   5.087   2.760   5.400
 4081WAT      O13824   5.853   2.817   5.824
 4081WAT     H113825   5.898   2.898   5.846
 4081WAT     H213826   5.817   2.786   5.907
 4082WAT      O13827   6.083   3.368   6.547
 4082WAT     H113828   6.147   3.389   6.614
 4082WAT     H213829   6.119   3.292   6.501
 4083WAT      O13830   5.443   1.852   5.871
 4083WAT     H113831   5.430   1.851   5.966
 4083WAT     H213832   5.360   1.886   5.836
 4084WAT      O13833   6.210   3.169   6.418
 4084WAT     H113834   6.274   3.099   6.430
 4084WAT     H213835   6.263   3.247   6.400
 4085WAT      O13836   6.595   3.197   5.391
 4085WAT     H113837   6.572   3.125   5.450
 4085WAT     H213838   6.556   3.172   5.307
 4086WAT      O13839   5.173   3.600   5.468
 4086WAT     H113840   5.209   3.660   5.403
 4086WAT     H213841   5.159   3.654   5.546
 4087WAT      O13842   6.553   2.989   5.557
 4087WAT     H113843   6.524   3.035   5.636
 4087WAT     H213844   6.632   2.943   5.584
 4088WAT      O13845   5.775   3.338   5.550
 4088WAT     H113846   5.774   3.411   5.488
 4088WAT     H213847   5.683   3.313   5.559
 4089WAT      O13848   5.335   2.860   5.624
 4089WAT     H113849   5.274   2.934   5.625
 4089WAT     H213850   5.382   2.869   5.542
 4090WAT      O13851   6.292   2.277   6.592
 4090WAT     H113852   6.329   2.195   6.625
 4090WAT     H213853   6.206   2.283   6.634
 4091WAT      O13854   6.629   2.172   5.673
 4091WAT     H113855   6.566   2.183   5.601
 4091WAT     H213856   6.579   2.194   5.752
 4092WAT      O13857   6.073   3.344   5.416
 4092WAT     H113858   6.083   3.324   5.323
 4092WAT     H213859   5.983   3.319   5.437
 4093WAT      O13860   5.826   2.400   5.814
 4093WAT     H113861   5.755   2.447   5.859
 4093WAT     H213862   5.854   2.334   5.878
 4094WAT      O13863   6.229   2.073   5.958
 4094WAT     H113864   6.216   2.075   5.864
 4094WAT     H213865   6.324   2.078   5.970
 4095WAT      O13866   5.937   3.596   5.886
 4095WAT     H113867   5.963   3.593   5.793
 4095WAT     H213868   5.843   3.584   5.885
 4096WAT      O13869   5.646   2.231   5.552
 4096WAT     H113870   5.731   2.275   5.545
 4096WAT     H213871   5.609   2.262   5.635
 4097WAT      O13872   6.538   2.688   6.043
 4097WAT     H113873   6.444   2.690   6.061
 4097WAT     H213874   6.569   2.610   6.088
 4098WAT      O13875   5.536   2.856   5.399
 4098WAT     H113876   5.612   2.845   5.456
 4098WAT     H213877   5.544   2.787   5.334
 4099WAT      O13878   5.405   2.600   5.468
 4099WAT     H113879   5.413   2.505   5.479
 4099WAT     H213880   5.494   2.633   5.478
 4100WAT      O13881   6.738   3.405   6.211
 4100WAT     H113882   6.751   3.488   6.258
 4100WAT     H213883   6.825   3.384   6.176
 4101WAT      O13884   5.485   3.615   6.178
 4101WAT     H113885   5.559   3.560   6.205
 4101WAT     H213886   5.524   3.701   6.164
 4102WAT      O13887   5.174   3.221   5.765
 4102WAT     H113888   5.081   3.246   5.764
 4102WAT     H213889   5.220   3.304   5.753
 4103WAT      O13890   5.796   3.532   5.360
 4103WAT     H113891   5.876   3.561   5.315
 4103WAT     H213892   5.744   3.489   5.292
 4104WAT      O13893   6.702   3.455   5.503
 4104WAT     H113894   6.673   3.413   5.421
 4104WAT     H213895   6.682   3.547   5.491
 4105WAT      O13896   5.848   3.054   5.347
 4105WAT     H113897   5.838   2.992   5.419
 4105WAT     H213898   5.831   3.002   5.268
 4106WAT      O13899   6.172   2.960   5.407
 4106WAT     H113900   6.117   3.005   5.472
 4106WAT     H213901   6.234   2.910   5.459
 4107WAT      O13902   5.739   2.856   5.597
 4107WAT     H113903   5.781   2.839   5.681
 4107WAT     H213904   5.751   2.775   5.547
 4108WAT      O13905   5.990   2.758   5.322
 4108WAT     H113906   6.042   2.687   5.285
 4108WAT     H213907   6.055   2.822   5.352
 4109WAT      O13908   5.881   2.006   6.589
 4109WAT     H113909   5.836   2.009   6.504
 4109WAT     H213910   5.817   1.967   6.648
 4110WAT      O13911   5.921   2.896   6.651
 4110WAT     H113912   5.963   2.980   6.634
 4110WAT     H213913   5.829   2.910   6.628
 4111WAT      O13914   5.629   2.463   5.291
 4111WAT     H113915   5.608   2.377   5.327
 4111WAT     H213916   5.611   2.455   5.198
 4112WAT      O13917   6.376   1.944   5.544
 4112WAT     H113918   6.404   1.860   5.580
 4112WAT     H213919   6.299   1.968   5.596
 4113WAT      O13920   5.508   2.173   5.290
 4113WAT     H113921   5.539   2.174   5.199
 4113WAT     H213922   5.582   2.138   5.340
 4114WAT      O13923   5.830   2.068   5.389
 4114WAT     H113924   5.795   2.000   5.331
 4114WAT     H213925   5.850   2.022   5.470
 4115WAT      O13926   6.047   3.567   5.551
 4115WAT     H113927   6.136   3.600   5.553
 4115WAT     H213928   6.050   3.494   5.488
 4116WAT      O13929   5.411   3.104   5.373
 4116WAT     H113930   5.454   3.158   5.439
 4116WAT     H213931   5.459   3.021   5.374
 4117WAT      O13932   5.132   3.383   6.119
 4117WAT     H113933   5.165   3.296   6.095
 4117WAT     H213934   5.175   3.403   6.202
 4118WAT      O13935   5.592   3.216   5.885
 4118WAT     H113936   5.562   3.203   5.975
 4118WAT     H213937   5.581   3.130   5.844
 4119WAT      O13938   5.181   3.469   6.392
 4119WAT     H113939   5.137   3.487   6.476
 4119WAT     H213940   5.238   3.545   6.378
 4120WAT      O13941   6.869   3.194   5.355
 4120WAT     H113942   6.786   3.201   5.402
 4120WAT     H213943   6.886   3.283   5.325
 4121WAT      O13944   6.814   2.868   5.605
 4121WAT     H113945   6.890   2.925   5.616
 4121WAT     H213946   6.816   2.812   5.682
 4122WAT      O13947   5.164   2.721   6.028
 4122WAT     H113948   5.099   2.694   5.964
 4122WAT     H213949   5.248   2.710   5.983
 4123WAT      O13950   6.915   2.954   6.090
 4123WAT     H113951   6.952   2.875   6.049
 4123WAT     H213952   6.979   3.023   6.072
 4124WAT      O13953   6.819   2.898   5.321
 4124WAT     H113954   6.847   2.988   5.308
 4124WAT     H213955   6.801   2.891   5.415
 4125WAT      O13956   6.459   2.200   5.450
 4125WAT     H113957   6.501   2.181   5.366
 4125WAT     H213958   6.429   2.115   5.482
 4126WAT      O13959   6.809   2.691   5.820
 4126WAT     H113960   6.772   2.615   5.777
 4126WAT     H213961   6.736   2.730   5.869
 4127WAT      O13962   5.268   2.759   6.482
 4127WAT     H113963   5.305   2.750   6.570
 4127WAT     H213964   5.211   2.683   6.472
 4128WAT      O13965   5.086   2.442   5.623
 4128WAT     H113966   4.995   2.468   5.605
 4128WAT     H213967   5.134   2.469   5.545
 4129WAT      O13968   6.737   2.514   6.150
 4129WAT     H113969   6.789   2.464   6.087
 4129WAT     H213970   6.795   2.527   6.225
 4130WAT      O13971   6.755   2.522   6.503
 4130WAT     H113972   6.660   2.519   6.514
 4130WAT     H213973   6.773   2.613   6.479
 4131WAT      O13974   5.340   2.347   5.414
 4131WAT     H113975   5.411   2.305   5.365
 4131WAT     H213976   5.268   2.354   5.350
 4132WAT      O13977   5.305   1.953   5.318
 4132WAT     H113978   5.377   2.007   5.349
 4132WAT     H213979   5.332   1.925   5.230
 4133WAT      O13980   6.686   2.440   5.744
 4133WAT     H113981   6.735   2.416   5.823
 4133WAT     H213982   6.666   2.356   5.703
 4134WAT      O13983   5.274   1.878   6.308
 4134WAT     H113984   5.338   1.823   6.264
 4134WAT     H213985   5.316   1.903   6.390
 4135WAT      O13986   6.828   2.303   5.998
 4135WAT     H113987   6.817   2.288   6.091
 4135WAT     H213988   6.905   2.250   5.973
 4136WAT      O13989   6.917   2.086   5.322
 4136WAT     H113990   7.010   2.073   5.301
 4136WAT     H213991   6.915   2.094   5.417
 4137WAT      O13992   6.925   2.163   5.584
 4137WAT     H113993   6.845   2.157   5.637
 4137WAT     H213994   6.945   2.257   5.583
 4138WAT      O13995   6.619   3.567   5.984
 4138WAT     H113996   6.679   3.535   5.916
 4138WAT     H213997   6.645   3.520   6.063
 4139WAT      O13998   5.780   3.366   6.559
 4139WAT     H113999   5.756   3.393   6.470
 4139WAT     H214000   5.874   3.383   6.564
 4140WAT      O14001   6.338   1.834   6.531
 4140WAT     H114002   6.251   1.868   6.511
 4140WAT     H214003   6.327   1.787   6.613
 4141WAT      O14004   6.674   3.632   6.367
 4141WAT     H114005   6.628   3.707   6.329
 4141WAT     H214006   6.611   3.560   6.361
 4142WAT      O14007   5.357   3.242   6.606
 4142WAT     H114008   5.284   3.180   6.599
 4142WAT     H214009   5.363   3.281   6.519
 4143WAT      O14010   5.717   3.463   6.284
 4143WAT     H114011   5.769   3.402   6.232
 4143WAT     H214012   5.782   3.513   6.333
 4144WAT      O14013   5.991   3.552   6.367
 4144WAT     H114014   6.020   3.527   6.279
 4144WAT     H214015   6.042   3.497   6.426
 4145WAT      O14016   6.113   1.926   6.425
 4145WAT     H114017   6.034   1.974   6.453
 4145WAT     H214018   6.083   1.836   6.414
 4146WAT      O14019   6.568   1.996   6.229
 4146WAT     H114020   6.612   1.991   6.144
 4146WAT     H214021   6.541   2.088   6.236
 4147WAT      O14022   6.754   1.959   6.030
 4147WAT     H114023   6.748   1.865   6.016
 4147WAT     H214024   6.832   1.970   6.085
 4148WAT      O14025   5.185   3.573   5.927
 4148WAT     H114026   5.168   3.510   5.996
 4148WAT     H214027   5.098   3.594   5.892
 4149WAT      O14028   5.247   1.957   5.677
 4149WAT     H114029   5.323   1.968   5.620
 4149WAT     H214030   5.201   2.040   5.672
 4150WAT      O14031   5.901   2.168   5.976
 4150WAT     H114032   5.820   2.131   5.942
 4150WAT     H214033   5.952   2.092   6.006
 4151WAT      O14034   6.352   1.834   6.100
 4151WAT     H114035   6.412   1.892   6.147
 4151WAT     H214036   6.277   1.891   6.077
 4152WAT      O14037   6.666   1.875   5.627
 4152WAT     H114038   6.685   1.964   5.654
 4152WAT     H214039   6.587   1.851   5.676
 4153WAT      O14040   5.346   3.443   5.671
 4153WAT     H114041   5.293   3.481   5.601
 4153WAT     H214042   5.338   3.505   5.743
 4154WAT      O14043   5.484   2.009   5.531
 4154WAT     H114044   5.537   1.931   5.518
 4154WAT     H214045   5.548   2.077   5.554
 4155WAT      O14046   5.704   1.983   5.836
 4155WAT     H114047   5.641   1.913   5.853
 4155WAT     H214048   5.650   2.059   5.815
 4156WAT      O14049   6.821   3.599   5.803
 4156WAT     H114050   6.839   3.530   5.739
 4156WAT     H214051   6.751   3.651   5.764
 4157WAT      O14052   5.605   3.638   5.559
 4157WAT     H114053   5.679   3.609   5.504
 4157WAT     H214054   5.631   3.614   5.648
 4158WAT      O14055   5.522   3.249   5.559
 4158WAT     H114056   5.459   3.296   5.614
 4158WAT     H214057   5.533   3.165   5.602
 4159WAT      O14058   5.119   2.619   4.417
 4159WAT     H114059   5.176   2.543   4.417
 4159WAT     H214060   5.119   2.649   4.326
 4160WAT      O14061   5.243   2.160   4.595
 4160WAT     H114062   5.225   2.070   4.623
 4160WAT     H214063   5.203   2.215   4.663
 4161WAT      O14064   6.127   2.380   4.386
 4161WAT     H114065   6.165   2.293   4.374
 4161WAT     H214066   6.118   2.414   4.296
 4162WAT      O14067   6.506   2.130   4.079
 4162WAT     H114068   6.588   2.081   4.083
 4162WAT     H214069   6.509   2.189   4.154
 4163WAT      O14070   5.305   2.410   4.456
 4163WAT     H114071   5.373   2.436   4.518
 4163WAT     H214072   5.274   2.326   4.490
 4164WAT      O14073   5.725   2.514   4.365
 4164WAT     H114074   5.775   2.564   4.429
 4164WAT     H214075   5.778   2.437   4.347
 4165WAT      O14076   6.935   2.332   4.735
 4165WAT     H114077   6.864   2.370   4.683
 4165WAT     H214078   6.961   2.401   4.795
 4166WAT      O14079   5.553   1.978   4.792
 4166WAT     H114080   5.553   2.030   4.711
 4166WAT     H214081   5.470   1.931   4.789
 4167WAT      O14082   6.529   2.324   4.356
 4167WAT     H114083   6.459   2.353   4.414
 4167WAT     H214084   6.565   2.405   4.320
 4168WAT      O14085   5.521   2.150   4.592
 4168WAT     H114086   5.555   2.234   4.563
 4168WAT     H214087   5.427   2.164   4.604
 4169WAT      O14088   6.836   2.268   4.395
 4169WAT     H114089   6.741   2.272   4.408
 4169WAT     H214090   6.869   2.350   4.434
 4170WAT      O14091   5.889   1.898   4.225
 4170WAT     H114092   5.920   1.843   4.153
 4170WAT     H214093   5.796   1.912   4.206
 4171WAT      O14094   6.127   2.332   3.598
 4171WAT     H114095   6.033   2.348   3.607
 4171WAT     H214096   6.159   2.404   3.543
 4172WAT      O14097   6.475   2.479   4.690
 4172WAT     H114098   6.434   2.561   4.716
 4172WAT     H214099   6.402   2.420   4.671
 4173WAT      O14100   5.560   2.435   4.555
 4173WAT     H114101   5.615   2.446   4.477
 4173WAT     H214102   5.611   2.472   4.626
 4174WAT      O14103   6.544   3.484   4.759
 4174WAT     H114104   6.497   3.564   4.740
 4174WAT     H214105   6.476   3.418   4.774
 4175WAT      O14106   5.645   3.100   5.058
 4175WAT     H114107   5.555   3.122   5.083
 4175WAT     H214108   5.647   3.112   4.963
 4176WAT      O14109   6.349   2.785   3.649
 4176WAT     H114110   6.393   2.701   3.635
 4176WAT     H214111   6.420   2.848   3.658
 4177WAT      O14112   5.707   3.381   5.136
 4177WAT     H114113   5.704   3.422   5.050
 4177WAT     H214114   5.691   3.288   5.120
 4178WAT      O14115   6.707   1.910   3.481
 4178WAT     H114116   6.676   1.920   3.571
 4178WAT     H214117   6.783   1.968   3.476
 4179WAT      O14118   6.902   3.460   5.266
 4179WAT     H114119   6.950   3.507   5.334
 4179WAT     H214120   6.964   3.453   5.194
 4180WAT      O14121   6.843   3.179   4.982
 4180WAT     H114122   6.855   3.155   4.890
 4180WAT     H214123   6.847   3.096   5.029
 4181WAT      O14124   6.828   2.384   5.079
 4181WAT     H114125   6.766   2.435   5.026
 4181WAT     H214126   6.796   2.294   5.073
 4182WAT      O14127   5.605   1.981   4.265
 4182WAT     H114128   5.561   2.059   4.232
 4182WAT     H214129   5.661   2.014   4.336
 4183WAT      O14130   6.034   2.268   4.825
 4183WAT     H114131   5.988   2.289   4.906
 4183WAT     H214132   5.994   2.187   4.795
 4184WAT      O14133   6.534   2.390   4.938
 4184WAT     H114134   6.449   2.360   4.970
 4184WAT     H214135   6.518   2.415   4.847
 4185WAT      O14136   6.244   2.540   5.148
 4185WAT     H114137   6.276   2.457   5.114
 4185WAT     H214138   6.322   2.592   5.163
 4186WAT      O14139   5.917   1.943   3.753
 4186WAT     H114140   5.855   1.943   3.825
 4186WAT     H214141   5.908   1.857   3.713
 4187WAT      O14142   5.809   2.036   4.451
 4187WAT     H114143   5.839   2.126   4.443
 4187WAT     H214144   5.864   1.987   4.389
 4188WAT      O14145   6.307   2.494   3.898
 4188WAT     H114146   6.248   2.567   3.879
 4188WAT     H214147   6.362   2.488   3.819
 4189WAT      O14148   5.829   2.584   5.104
 4189WAT     H114149   5.819   2.489   5.089
 4189WAT     H214150   5.913   2.606   5.065
 4190WAT      O14151   6.168   2.358   4.101
 4190WAT     H114152   6.207   2.390   4.019
 4190WAT     H214153   6.204   2.270   4.112
 4191WAT      O14154   5.342   2.225   4.920
 4191WAT     H114155   5.302   2.309   4.940
 4191WAT     H214156   5.273   2.161   4.939
 4192WAT      O14157   5.999   2.233   5.227
 4192WAT     H114158   5.930   2.214   5.290
 4192WAT     H214159   6.073   2.261   5.280
 4193WAT      O14160   5.072   2.017   4.323
 4193WAT     H114161   5.043   2.074   4.394
 4193WAT     H214162   5.146   1.969   4.359
 4194WAT      O14163   5.090   2.411   3.444
 4194WAT     H114164   5.082   2.505   3.458
 4194WAT     H214165   5.055   2.397   3.356
 4195WAT      O14166   6.227   2.617   4.510
 4195WAT     H114167   6.154   2.668   4.545
 4195WAT     H214168   6.187   2.535   4.480
 4196WAT      O14169   5.870   2.285   4.351
 4196WAT     H114170   5.871   2.240   4.266
 4196WAT     H214171   5.960   2.317   4.361
 4197WAT      O14172   5.455   2.273   4.247
 4197WAT     H114173   5.421   2.321   4.322
 4197WAT     H214174   5.379   2.227   4.211
 4198WAT      O14175   5.877   2.385   3.650
 4198WAT     H114176   5.889   2.381   3.745
 4198WAT     H214177   5.838   2.471   3.634
 4199WAT      O14178   6.273   2.162   4.451
 4199WAT     H114179   6.275   2.207   4.536
 4199WAT     H214180   6.248   2.072   4.473
 4200WAT      O14181   5.778   2.616   3.590
 4200WAT     H114182   5.721   2.571   3.527
 4200WAT     H214183   5.849   2.652   3.536
 4201WAT      O14184   6.616   1.904   5.035
 4201WAT     H114185   6.648   1.831   5.088
 4201WAT     H214186   6.619   1.872   4.945
 4202WAT      O14187   5.901   2.691   4.525
 4202WAT     H114188   5.937   2.643   4.600
 4202WAT     H214189   5.882   2.778   4.559
 4203WAT      O14190   5.187   2.165   4.138
 4203WAT     H114191   5.158   2.129   4.222
 4203WAT     H214192   5.181   2.092   4.077
 4204WAT      O14193   5.680   2.595   4.757
 4204WAT     H114194   5.649   2.683   4.780
 4204WAT     H214195   5.775   2.601   4.761
 4205WAT      O14196   6.154   2.054   3.810
 4205WAT     H114197   6.073   2.004   3.803
 4205WAT     H214198   6.135   2.138   3.769
 4206WAT      O14199   6.146   2.922   4.985
 4206WAT     H114200   6.140   2.830   4.959
 4206WAT     H214201   6.083   2.932   5.056
 4207WAT      O14202   6.426   2.491   3.640
 4207WAT     H114203   6.515   2.523   3.622
 4207WAT     H214204   6.423   2.404   3.601
 4208WAT      O14205   5.605   2.724   5.160
 4208WAT     H114206   5.575   2.739   5.071
 4208WAT     H214207   5.682   2.669   5.151
 4209WAT      O14208   6.653   2.623   3.587
 4209WAT     H114209   6.645   2.666   3.502
 4209WAT     H214210   6.725   2.669   3.630
 4210WAT      O14211   6.761   2.868   4.894
 4210WAT     H114212   6.688   2.928   4.875
 4210WAT     H214213   6.813   2.867   4.815
 4211WAT      O14214   5.443   1.852   3.993
 4211WAT     H114215   5.430   1.851   4.088
 4211WAT     H214216   5.360   1.886   3.958
 4212WAT      O14217   5.143   2.028   4.940
 4212WAT     H114218   5.071   2.048   5.000
 4212WAT     H214219   5.185   1.950   4.977
 4213WAT      O14220   6.553   2.989   3.679
 4213WAT     H114221   6.524   3.035   3.758
 4213WAT     H214222   6.632   2.943   3.706
 4214WAT      O14223   5.971   3.254   5.178
 4214WAT     H114224   5.938   3.182   5.233
 4214WAT     H214225   5.903   3.321   5.186
 4215WAT      O14226   6.292   2.277   4.715
 4215WAT     H114227   6.329   2.195   4.747
 4215WAT     H214228   6.206   2.283   4.756
 4216WAT      O14229   6.629   2.172   3.795
 4216WAT     H114230   6.566   2.183   3.724
 4216WAT     H214231   6.579   2.194   3.874
 4217WAT      O14232   5.826   2.400   3.937
 4217WAT     H114233   5.755   2.447   3.981
 4217WAT     H214234   5.854   2.334   4.000
 4218WAT      O14235   5.988   2.542   4.737
 4218WAT     H114236   6.038   2.590   4.803
 4218WAT     H214237   6.002   2.450   4.758
 4219WAT      O14238   6.229   2.073   4.081
 4219WAT     H114239   6.216   2.075   3.986
 4219WAT     H214240   6.324   2.078   4.093
 4220WAT      O14241   5.646   2.231   3.675
 4220WAT     H114242   5.731   2.275   3.668
 4220WAT     H214243   5.609   2.262   3.757
 4221WAT      O14244   6.709   2.164   4.821
 4221WAT     H114245   6.658   2.238   4.855
 4221WAT     H214246   6.790   2.203   4.790
 4222WAT      O14247   6.538   2.688   4.166
 4222WAT     H114248   6.444   2.690   4.183
 4222WAT     H214249   6.569   2.610   4.210
 4223WAT      O14250   6.738   3.405   4.333
 4223WAT     H114251   6.751   3.488   4.381
 4223WAT     H214252   6.825   3.384   4.299
 4224WAT      O14253   5.386   3.533   5.219
 4224WAT     H114254   5.466   3.565   5.261
 4224WAT     H214255   5.334   3.497   5.292
 4225WAT      O14256   6.270   3.144   5.214
 4225WAT     H114257   6.209   3.146   5.140
 4225WAT     H214258   6.239   3.071   5.268
 4226WAT      O14259   6.413   3.517   5.075
 4226WAT     H114260   6.508   3.508   5.070
 4226WAT     H214261   6.398   3.583   5.143
 4227WAT      O14262   5.158   2.782   5.114
 4227WAT     H114263   5.208   2.724   5.171
 4227WAT     H214264   5.084   2.810   5.168
 4228WAT      O14265   5.848   3.054   3.469
 4228WAT     H114266   5.838   2.992   3.542
 4228WAT     H214267   5.831   3.002   3.391
 4229WAT      O14268   5.863   2.923   5.067
 4229WAT     H114269   5.787   2.979   5.059
 4229WAT     H214270   5.881   2.893   4.978
 4230WAT      O14271   6.172   2.960   3.530
 4230WAT     H114272   6.117   3.005   3.594
 4230WAT     H214273   6.234   2.910   3.582
 4231WAT      O14274   6.578   3.096   5.123
 4231WAT     H114275   6.652   3.129   5.073
 4231WAT     H214276   6.501   3.112   5.068
 4232WAT      O14277   5.361   2.596   5.203
 4232WAT     H114278   5.365   2.566   5.294
 4232WAT     H214279   5.447   2.636   5.187
 4233WAT      O14280   5.555   2.454   5.000
 4233WAT     H114281   5.502   2.405   4.937
 4233WAT     H214282   5.622   2.497   4.947
 4234WAT      O14283   5.990   2.758   3.444
 4234WAT     H114284   6.042   2.687   3.407
 4234WAT     H214285   6.055   2.822   3.474
 4235WAT      O14286   6.445   2.901   4.976
 4235WAT     H114287   6.486   2.916   5.061
 4235WAT     H214288   6.352   2.913   4.993
 4236WAT      O14289   6.492   2.635   5.177
 4236WAT     H114290   6.550   2.559   5.168
 4236WAT     H214291   6.510   2.688   5.099
 4237WAT      O14292   5.604   2.151   5.008
 4237WAT     H114293   5.595   2.089   4.936
 4237WAT     H214294   5.546   2.223   4.985
 4238WAT      O14295   5.881   2.006   4.711
 4238WAT     H114296   5.836   2.009   4.627
 4238WAT     H214297   5.817   1.967   4.771
 4239WAT      O14298   6.155   2.669   4.912
 4239WAT     H114299   6.167   2.609   4.986
 4239WAT     H214300   6.241   2.673   4.870
 4240WAT      O14301   5.629   2.463   3.414
 4240WAT     H114302   5.608   2.377   3.450
 4240WAT     H214303   5.611   2.455   3.320
 4241WAT      O14304   5.832   2.323   5.038
 4241WAT     H114305   5.890   2.292   5.106
 4241WAT     H214306   5.750   2.276   5.053
 4242WAT      O14307   6.313   2.285   5.061
 4242WAT     H114308   6.245   2.219   5.054
 4242WAT     H214309   6.385   2.240   5.105
 4243WAT      O14310   6.376   1.944   3.667
 4243WAT     H114311   6.404   1.860   3.702
 4243WAT     H214312   6.299   1.968   3.718
 4244WAT      O14313   5.508   2.173   3.413
 4244WAT     H114314   5.539   2.174   3.322
 4244WAT     H214315   5.582   2.138   3.462
 4245WAT      O14316   5.830   2.068   3.511
 4245WAT     H114317   5.795   2.000   3.453
 4245WAT     H214318   5.850   2.022   3.593
 4246WAT      O14319   6.745   3.420   4.944
 4246WAT     H114320   6.685   3.426   4.869
 4246WAT     H214321   6.758   3.326   4.957
 4247WAT      O14322   6.814   2.868   3.728
 4247WAT     H114323   6.890   2.925   3.738
 4247WAT     H214324   6.816   2.812   3.805
 4248WAT      O14325   6.915   2.954   4.212
 4248WAT     H114326   6.952   2.875   4.172
 4248WAT     H214327   6.979   3.023   4.194
 4249WAT      O14328   6.819   2.898   3.444
 4249WAT     H114329   6.847   2.988   3.431
 4249WAT     H214330   6.801   2.891   3.537
 4250WAT      O14331   6.459   2.200   3.573
 4250WAT     H114332   6.501   2.181   3.489
 4250WAT     H214333   6.429   2.115   3.604
 4251WAT      O14334   6.809   2.691   3.943
 4251WAT     H114335   6.772   2.615   3.900
 4251WAT     H214336   6.736   2.730   3.992
 4252WAT      O14337   6.748   2.606   4.906
 4252WAT     H114338   6.725   2.583   4.816
 4252WAT     H214339   6.774   2.698   4.902
 4253WAT      O14340   5.223   2.450   4.995
 4253WAT     H114341   5.134   2.447   5.029
 4253WAT     H214342   5.277   2.470   5.072
 4254WAT      O14343   6.592   2.129   5.184
 4254WAT     H114344   6.680   2.129   5.222
 4254WAT     H214345   6.593   2.055   5.123
 4255WAT      O14346   6.737   2.514   4.273
 4255WAT     H114347   6.789   2.464   4.210
 4255WAT     H214348   6.795   2.527   4.347
 4256WAT      O14349   6.755   2.522   4.625
 4256WAT     H114350   6.660   2.519   4.637
 4256WAT     H214351   6.773   2.613   4.602
 4257WAT      O14352   5.305   1.953   3.440
 4257WAT     H114353   5.377   2.007   3.472
 4257WAT     H214354   5.332   1.925   3.353
 4258WAT      O14355   6.686   2.440   3.867
 4258WAT     H114356   6.735   2.416   3.945
 4258WAT     H214357   6.666   2.356   3.825
 4259WAT      O14358   5.274   1.878   4.430
 4259WAT     H114359   5.338   1.823   4.386
 4259WAT     H214360   5.316   1.903   4.512
 4260WAT      O14361   6.828   2.303   4.120
 4260WAT     H114362   6.817   2.288   4.214
 4260WAT     H214363   6.905   2.250   4.096
 4261WAT      O14364   6.663   1.897   4.766
 4261WAT     H114365   6.727   1.958   4.803
 4261WAT     H214366   6.678   1.901   4.672
 4262WAT      O14367   6.917   2.086   3.444
 4262WAT     H114368   7.010   2.073   3.423
 4262WAT     H214369   6.915   2.094   3.540
 4263WAT      O14370   6.925   2.163   3.707
 4263WAT     H114371   6.845   2.157   3.760
 4263WAT     H214372   6.945   2.257   3.706
 4264WAT      O14373   5.249   1.893   4.705
 4264WAT     H114374   5.214   1.939   4.781
 4264WAT     H214375   5.216   1.804   4.713
 4265WAT      O14376   5.410   3.210   5.121
 4265WAT     H114377   5.405   3.173   5.209
 4265WAT     H214378   5.423   3.304   5.135
 4266WAT      O14379   6.000   2.012   5.057
 4266WAT     H114380   5.994   2.072   5.132
 4266WAT     H214381   6.094   2.002   5.042
 4267WAT      O14382   6.264   1.978   5.021
 4267WAT     H114383   6.325   2.010   4.955
 4267WAT     H214384   6.318   1.930   5.083
 4268WAT      O14385   6.906   3.568   4.761
 4268WAT     H114386   6.856   3.608   4.690
 4268WAT     H214387   6.845   3.506   4.801
 4269WAT      O14388   5.316   1.846   5.032
 4269WAT     H114389   5.371   1.828   4.956
 4269WAT     H214390   5.323   1.767   5.086
 4270WAT      O14391   6.338   1.834   4.653
 4270WAT     H114392   6.251   1.868   4.633
 4270WAT     H214393   6.327   1.787   4.736
 4271WAT      O14394   6.429   2.055   4.792
 4271WAT     H114395   6.396   1.974   4.754
 4271WAT     H214396   6.524   2.051   4.779
 4272WAT      O14397   6.674   3.632   4.489
 4272WAT     H114398   6.628   3.707   4.452
 4272WAT     H214399   6.611   3.560   4.483
 4273WAT      O14400   6.113   1.926   4.547
 4273WAT     H114401   6.034   1.974   4.575
 4273WAT     H214402   6.083   1.836   4.536
 4274WAT      O14403   6.568   1.996   4.352
 4274WAT     H114404   6.612   1.991   4.267
 4274WAT     H214405   6.541   2.088   4.359
 4275WAT      O14406   6.754   1.959   4.153
 4275WAT     H114407   6.748   1.865   4.138
 4275WAT     H214408   6.832   1.970   4.207
 4276WAT      O14409   5.247   1.957   3.799
 4276WAT     H114410   5.323   1.968   3.742
 4276WAT     H214411   5.201   2.040   3.795
 4277WAT      O14412   5.901   2.168   4.098
 4277WAT     H114413   5.820   2.131   4.064
 4277WAT     H214414   5.952   2.092   4.129
 4278WAT      O14415   6.352   1.834   4.222
 4278WAT     H114416   6.412   1.892   4.270
 4278WAT     H214417   6.277   1.891   4.200
 4279WAT      O14418   6.666   1.875   3.750
 4279WAT     H114419   6.685   1.964   3.776
 4279WAT     H214420   6.587   1.851   3.799
 4280WAT      O14421   5.484   2.009   3.653
 4280WAT     H114422   5.537   1.931   3.641
 4280WAT     H214423   5.548   2.077   3.677
 4281WAT      O14424   5.704   1.983   3.959
 4281WAT     H114425   5.641   1.913   3.976
 4281WAT     H214426   5.650   2.059   3.937
 4282WAT      O14427   5.998   3.644   5.226
 4282WAT     H114428   6.090   3.621   5.230
 4282WAT     H214429   5.996   3.727   5.178
 4283WAT      O14430   5.716   1.911   5.202
 4283WAT     H114431   5.688   1.961   5.126
 4283WAT     H214432   5.755   1.831   5.166
 4284WAT      O14433   6.376   1.852   5.260
 4284WAT     H114434   6.365   1.884   5.350
 4284WAT     H214435   6.458   1.892   5.231
 4285WAT      O14436   6.654   3.567   5.208
 4285WAT     H114437   6.734   3.518   5.188
 4285WAT     H214438   6.684   3.635   5.269
 4286WAT      O14439   6.267   2.654   2.297
 4286WAT     H114440   6.259   2.563   2.270
 4286WAT     H214441   6.226   2.704   2.226
 4287WAT      O14442   6.080   2.832   2.485
 4287WAT     H114443   6.003   2.784   2.514
 4287WAT     H214444   6.145   2.764   2.467
 4288WAT      O14445   5.482   2.863   2.572
 4288WAT     H114446   5.399   2.838   2.612
 4288WAT     H214447   5.543   2.870   2.646
 4289WAT      O14448   6.482   3.273   2.363
 4289WAT     H114449   6.436   3.196   2.396
 4289WAT     H214450   6.564   3.275   2.413
 4290WAT      O14451   5.480   3.267   2.592
 4290WAT     H114452   5.510   3.178   2.574
 4290WAT     H214453   5.554   3.322   2.569
 4291WAT      O14454   5.323   2.359   1.951
 4291WAT     H114455   5.234   2.393   1.941
 4291WAT     H214456   5.351   2.339   1.862
 4292WAT      O14457   5.119   2.619   2.539
 4292WAT     H114458   5.176   2.543   2.539
 4292WAT     H214459   5.119   2.649   2.448
 4293WAT      O14460   6.105   3.501   2.325
 4293WAT     H114461   6.043   3.547   2.268
 4293WAT     H214462   6.190   3.517   2.285
 4294WAT      O14463   6.024   3.100   2.485
 4294WAT     H114464   6.017   3.006   2.469
 4294WAT     H214465   6.101   3.109   2.543
 4295WAT      O14466   5.243   2.160   2.718
 4295WAT     H114467   5.225   2.070   2.746
 4295WAT     H214468   5.203   2.215   2.785
 4296WAT      O14469   6.127   2.380   2.508
 4296WAT     H114470   6.165   2.293   2.497
 4296WAT     H214471   6.118   2.414   2.419
 4297WAT      O14472   5.540   2.218   2.054
 4297WAT     H114473   5.551   2.308   2.085
 4297WAT     H214474   5.449   2.213   2.025
 4298WAT      O14475   6.506   2.130   2.201
 4298WAT     H114476   6.588   2.081   2.206
 4298WAT     H214477   6.509   2.189   2.277
 4299WAT      O14478   5.305   2.410   2.579
 4299WAT     H114479   5.373   2.436   2.641
 4299WAT     H214480   5.274   2.326   2.612
 4300WAT      O14481   5.725   2.514   2.488
 4300WAT     H114482   5.775   2.564   2.552
 4300WAT     H214483   5.778   2.437   2.470
 4301WAT      O14484   6.935   2.332   2.858
 4301WAT     H114485   6.864   2.370   2.806
 4301WAT     H214486   6.961   2.401   2.918
 4302WAT      O14487   5.553   1.978   2.914
 4302WAT     H114488   5.553   2.030   2.834
 4302WAT     H214489   5.470   1.931   2.912
 4303WAT      O14490   6.192   2.990   2.064
 4303WAT     H114491   6.130   3.036   2.008
 4303WAT     H214492   6.243   3.059   2.106
 4304WAT      O14493   5.678   2.942   2.732
 4304WAT     H114494   5.645   3.005   2.796
 4304WAT     H214495   5.696   2.995   2.654
 4305WAT      O14496   6.529   2.324   2.479
 4305WAT     H114497   6.459   2.353   2.537
 4305WAT     H214498   6.565   2.405   2.443
 4306WAT      O14499   5.521   2.150   2.715
 4306WAT     H114500   5.555   2.234   2.685
 4306WAT     H214501   5.427   2.164   2.727
 4307WAT      O14502   5.599   3.139   2.913
 4307WAT     H114503   5.661   3.207   2.885
 4307WAT     H214504   5.513   3.180   2.904
 4308WAT      O14505   5.128   3.058   1.801
 4308WAT     H114506   5.091   3.107   1.728
 4308WAT     H214507   5.154   3.125   1.865
 4309WAT      O14508   6.691   3.286   2.705
 4309WAT     H114509   6.623   3.353   2.704
 4309WAT     H214510   6.745   3.305   2.628
 4310WAT      O14511   6.836   2.268   2.518
 4310WAT     H114512   6.741   2.272   2.531
 4310WAT     H214513   6.869   2.350   2.556
 4311WAT      O14514   5.889   1.898   2.347
 4311WAT     H114515   5.920   1.843   2.276
 4311WAT     H214516   5.796   1.912   2.329
 4312WAT      O14517   6.444   3.470   2.576
 4312WAT     H114518   6.446   3.430   2.490
 4312WAT     H214519   6.389   3.548   2.566
 4313WAT      O14520   6.574   3.142   2.085
 4313WAT     H114521   6.563   3.048   2.098
 4313WAT     H214522   6.574   3.178   2.174
 4314WAT      O14523   6.384   2.960   2.709
 4314WAT     H114524   6.426   2.939   2.626
 4314WAT     H214525   6.457   2.986   2.766
 4315WAT      O14526   6.128   2.705   2.021
 4315WAT     H114527   6.035   2.698   2.044
 4315WAT     H214528   6.143   2.799   2.009
 4316WAT      O14529   6.127   2.332   1.721
 4316WAT     H114530   6.033   2.348   1.729
 4316WAT     H214531   6.159   2.404   1.666
 4317WAT      O14532   6.779   2.800   2.718
 4317WAT     H114533   6.696   2.807   2.671
 4317WAT     H214534   6.838   2.859   2.672
 4318WAT      O14535   6.531   2.861   2.071
 4318WAT     H114536   6.469   2.827   2.007
 4318WAT     H214537   6.529   2.797   2.142
 4319WAT      O14538   6.475   2.479   2.813
 4319WAT     H114539   6.434   2.561   2.838
 4319WAT     H214540   6.402   2.420   2.794
 4320WAT      O14541   5.689   2.758   2.299
 4320WAT     H114542   5.648   2.686   2.250
 4320WAT     H214543   5.697   2.723   2.388
 4321WAT      O14544   5.736   3.126   2.515
 4321WAT     H114545   5.706   3.066   2.448
 4321WAT     H214546   5.831   3.130   2.504
 4322WAT      O14547   5.560   2.435   2.677
 4322WAT     H114548   5.615   2.446   2.600
 4322WAT     H214549   5.611   2.472   2.749
 4323WAT      O14550   6.544   3.484   2.882
 4323WAT     H114551   6.497   3.564   2.862
 4323WAT     H214552   6.476   3.418   2.897
 4324WAT      O14553   5.645   3.100   3.181
 4324WAT     H114554   5.555   3.122   3.205
 4324WAT     H214555   5.647   3.112   3.086
 4325WAT      O14556   6.349   2.785   1.772
 4325WAT     H114557   6.393   2.701   1.757
 4325WAT     H214558   6.420   2.848   1.781
 4326WAT      O14559   5.527   2.787   3.038
 4326WAT     H114560   5.513   2.874   3.075
 4326WAT     H214561   5.439   2.753   3.024
 4327WAT      O14562   6.160   3.279   2.169
 4327WAT     H114563   6.204   3.353   2.127
 4327WAT     H214564   6.154   3.303   2.261
 4328WAT      O14565   6.707   1.910   1.603
 4328WAT     H114566   6.676   1.920   1.693
 4328WAT     H214567   6.783   1.968   1.598
 4329WAT      O14568   5.359   2.647   2.049
 4329WAT     H114569   5.347   2.720   1.988
 4329WAT     H214570   5.328   2.570   2.001
 4330WAT      O14571   5.123   2.964   2.630
 4330WAT     H114572   5.130   2.978   2.535
 4330WAT     H214573   5.184   2.893   2.649
 4331WAT      O14574   5.247   3.134   2.271
 4331WAT     H114575   5.206   3.148   2.185
 4331WAT     H214576   5.336   3.106   2.251
 4332WAT      O14577   6.229   3.549   2.962
 4332WAT     H114578   6.280   3.540   3.042
 4332WAT     H214579   6.145   3.584   2.991
 4333WAT      O14580   6.426   3.578   1.904
 4333WAT     H114581   6.410   3.549   1.994
 4333WAT     H214582   6.410   3.500   1.851
 4334WAT      O14583   5.674   3.556   2.082
 4334WAT     H114584   5.657   3.464   2.061
 4334WAT     H214585   5.589   3.591   2.106
 4335WAT      O14586   6.397   3.328   1.760
 4335WAT     H114587   6.327   3.328   1.694
 4335WAT     H214588   6.471   3.286   1.717
 4336WAT      O14589   6.353   3.491   2.168
 4336WAT     H114590   6.399   3.413   2.199
 4336WAT     H214591   6.387   3.562   2.222
 4337WAT      O14592   6.828   2.384   3.201
 4337WAT     H114593   6.766   2.435   3.148
 4337WAT     H214594   6.796   2.294   3.195
 4338WAT      O14595   5.605   1.981   2.387
 4338WAT     H114596   5.561   2.059   2.354
 4338WAT     H214597   5.661   2.014   2.458
 4339WAT      O14598   6.034   2.268   2.948
 4339WAT     H114599   5.988   2.289   3.029
 4339WAT     H214600   5.994   2.187   2.917
 4340WAT      O14601   6.534   2.390   3.061
 4340WAT     H114602   6.449   2.360   3.093
 4340WAT     H214603   6.518   2.415   2.970
 4341WAT      O14604   6.244   2.540   3.271
 4341WAT     H114605   6.276   2.457   3.237
 4341WAT     H214606   6.322   2.592   3.285
 4342WAT      O14607   5.917   1.943   1.875
 4342WAT     H114608   5.855   1.943   1.948
 4342WAT     H214609   5.908   1.857   1.836
 4343WAT      O14610   5.809   2.036   2.573
 4343WAT     H114611   5.839   2.126   2.565
 4343WAT     H214612   5.864   1.987   2.512
 4344WAT      O14613   5.585   2.494   2.160
 4344WAT     H114614   5.562   2.472   2.251
 4344WAT     H214615   5.506   2.537   2.126
 4345WAT      O14616   6.307   2.494   2.020
 4345WAT     H114617   6.248   2.567   2.002
 4345WAT     H214618   6.362   2.488   1.942
 4346WAT      O14619   5.829   2.584   3.227
 4346WAT     H114620   5.819   2.489   3.212
 4346WAT     H214621   5.913   2.606   3.187
 4347WAT      O14622   6.168   2.358   2.223
 4347WAT     H114623   6.207   2.390   2.142
 4347WAT     H214624   6.204   2.270   2.235
 4348WAT      O14625   5.342   2.225   3.042
 4348WAT     H114626   5.302   2.309   3.063
 4348WAT     H214627   5.273   2.161   3.061
 4349WAT      O14628   5.999   2.233   3.349
 4349WAT     H114629   5.930   2.214   3.413
 4349WAT     H214630   6.073   2.261   3.402
 4350WAT      O14631   5.072   2.017   2.445
 4350WAT     H114632   5.043   2.074   2.517
 4350WAT     H214633   5.146   1.969   2.482
 4351WAT      O14634   5.090   2.411   1.566
 4351WAT     H114635   5.082   2.505   1.581
 4351WAT     H214636   5.055   2.397   1.479
 4352WAT      O14637   6.227   2.617   2.633
 4352WAT     H114638   6.154   2.668   2.668
 4352WAT     H214639   6.187   2.535   2.603
 4353WAT      O14640   5.870   2.285   2.473
 4353WAT     H114641   5.871   2.240   2.388
 4353WAT     H214642   5.960   2.317   2.484
 4354WAT      O14643   5.455   2.273   2.369
 4354WAT     H114644   5.421   2.321   2.445
 4354WAT     H214645   5.379   2.227   2.333
 4355WAT      O14646   5.877   2.385   1.772
 4355WAT     H114647   5.889   2.381   1.867
 4355WAT     H214648   5.838   2.471   1.757
 4356WAT      O14649   6.273   2.162   2.574
 4356WAT     H114650   6.275   2.207   2.658
 4356WAT     H214651   6.248   2.072   2.595
 4357WAT      O14652   5.778   2.616   1.712
 4357WAT     H114653   5.721   2.571   1.649
 4357WAT     H214654   5.849   2.652   1.659
 4358WAT      O14655   6.616   1.904   3.158
 4358WAT     H114656   6.648   1.831   3.210
 4358WAT     H214657   6.619   1.872   3.068
 4359WAT      O14658   5.901   2.691   2.648
 4359WAT     H114659   5.937   2.643   2.722
 4359WAT     H214660   5.882   2.778   2.682
 4360WAT      O14661   5.187   2.165   2.261
 4360WAT     H114662   5.158   2.129   2.345
 4360WAT     H214663   5.181   2.092   2.199
 4361WAT      O14664   5.680   2.595   2.880
 4361WAT     H114665   5.649   2.683   2.902
 4361WAT     H214666   5.775   2.601   2.883
 4362WAT      O14667   5.532   3.015   1.939
 4362WAT     H114668   5.455   2.961   1.923
 4362WAT     H214669   5.605   2.963   1.906
 4363WAT      O14670   6.608   2.915   2.519
 4363WAT     H114671   6.680   2.964   2.480
 4363WAT     H214672   6.588   2.847   2.454
 4364WAT      O14673   6.154   2.054   1.933
 4364WAT     H114674   6.073   2.004   1.925
 4364WAT     H214675   6.135   2.138   1.891
 4365WAT      O14676   6.146   2.922   3.107
 4365WAT     H114677   6.140   2.830   3.082
 4365WAT     H214678   6.083   2.932   3.179
 4366WAT      O14679   6.426   2.491   1.763
 4366WAT     H114680   6.515   2.523   1.745
 4366WAT     H214681   6.423   2.404   1.723
 4367WAT      O14682   5.537   2.982   2.303
 4367WAT     H114683   5.589   2.902   2.298
 4367WAT     H214684   5.492   2.976   2.387
 4368WAT      O14685   6.025   3.109   1.830
 4368WAT     H114686   6.060   3.183   1.781
 4368WAT     H214687   5.943   3.140   1.867
 4369WAT      O14688   5.285   2.679   2.994
 4369WAT     H114689   5.249   2.745   3.053
 4369WAT     H214690   5.256   2.595   3.032
 4370WAT      O14691   6.653   2.623   1.709
 4370WAT     H114692   6.645   2.666   1.624
 4370WAT     H214693   6.725   2.669   1.753
 4371WAT      O14694   6.761   2.868   3.017
 4371WAT     H114695   6.688   2.928   2.997
 4371WAT     H214696   6.813   2.867   2.937
 4372WAT      O14697   6.756   3.308   1.982
 4372WAT     H114698   6.692   3.243   2.010
 4372WAT     H214699   6.717   3.349   1.905
 4373WAT      O14700   6.314   3.041   2.367
 4373WAT     H114701   6.349   2.981   2.301
 4373WAT     H214702   6.225   3.008   2.384
 4374WAT      O14703   5.922   3.117   2.108
 4374WAT     H114704   5.991   3.172   2.146
 4374WAT     H214705   5.844   3.171   2.111
 4375WAT      O14706   5.136   2.679   1.657
 4375WAT     H114707   5.223   2.707   1.685
 4375WAT     H214708   5.087   2.760   1.645
 4376WAT      O14709   5.853   2.817   2.069
 4376WAT     H114710   5.898   2.898   2.091
 4376WAT     H214711   5.817   2.786   2.152
 4377WAT      O14712   6.083   3.368   2.792
 4377WAT     H114713   6.147   3.389   2.859
 4377WAT     H214714   6.119   3.292   2.746
 4378WAT      O14715   5.443   1.852   2.116
 4378WAT     H114716   5.430   1.851   2.211
 4378WAT     H214717   5.360   1.886   2.081
 4379WAT      O14718   6.210   3.169   2.664
 4379WAT     H114719   6.274   3.099   2.675
 4379WAT     H214720   6.263   3.247   2.645
 4380WAT      O14721   6.595   3.197   1.636
 4380WAT     H114722   6.572   3.125   1.695
 4380WAT     H214723   6.556   3.172   1.552
 4381WAT      O14724   5.173   3.600   1.713
 4381WAT     H114725   5.209   3.660   1.648
 4381WAT     H214726   5.159   3.654   1.791
 4382WAT      O14727   5.143   2.028   3.062
 4382WAT     H114728   5.071   2.048   3.123
 4382WAT     H214729   5.185   1.950   3.099
 4383WAT      O14730   6.553   2.989   1.802
 4383WAT     H114731   6.524   3.035   1.881
 4383WAT     H214732   6.632   2.943   1.829
 4384WAT      O14733   5.775   3.338   1.795
 4384WAT     H114734   5.774   3.411   1.734
 4384WAT     H214735   5.683   3.313   1.804
 4385WAT      O14736   5.335   2.860   1.870
 4385WAT     H114737   5.274   2.934   1.871
 4385WAT     H214738   5.382   2.869   1.787
 4386WAT      O14739   6.292   2.277   2.837
 4386WAT     H114740   6.329   2.195   2.870
 4386WAT     H214741   6.206   2.283   2.879
 4387WAT      O14742   6.629   2.172   1.918
 4387WAT     H114743   6.566   2.183   1.847
 4387WAT     H214744   6.579   2.194   1.997
 4388WAT      O14745   6.073   3.344   1.661
 4388WAT     H114746   6.083   3.324   1.568
 4388WAT     H214747   5.983   3.319   1.682
 4389WAT      O14748   5.826   2.400   2.060
 4389WAT     H114749   5.755   2.447   2.104
 4389WAT     H214750   5.854   2.334   2.123
 4390WAT      O14751   5.988   2.542   2.860
 4390WAT     H114752   6.038   2.590   2.926
 4390WAT     H214753   6.002   2.450   2.880
 4391WAT      O14754   6.229   2.073   2.204
 4391WAT     H114755   6.216   2.075   2.109
 4391WAT     H214756   6.324   2.078   2.216
 4392WAT      O14757   5.937   3.596   2.131
 4392WAT     H114758   5.963   3.593   2.039
 4392WAT     H214759   5.843   3.584   2.130
 4393WAT      O14760   5.646   2.231   1.797
 4393WAT     H114761   5.731   2.275   1.790
 4393WAT     H214762   5.609   2.262   1.880
 4394WAT      O14763   6.709   2.164   2.944
 4394WAT     H114764   6.658   2.238   2.978
 4394WAT     H214765   6.790   2.203   2.912
 4395WAT      O14766   6.538   2.688   2.288
 4395WAT     H114767   6.444   2.690   2.306
 4395WAT     H214768   6.569   2.610   2.333
 4396WAT      O14769   5.536   2.856   1.644
 4396WAT     H114770   5.612   2.845   1.701
 4396WAT     H214771   5.544   2.787   1.579
 4397WAT      O14772   5.405   2.600   1.713
 4397WAT     H114773   5.413   2.505   1.724
 4397WAT     H214774   5.494   2.633   1.723
 4398WAT      O14775   6.738   3.405   2.456
 4398WAT     H114776   6.751   3.488   2.503
 4398WAT     H214777   6.825   3.384   2.421
 4399WAT      O14778   5.485   3.615   2.423
 4399WAT     H114779   5.559   3.560   2.450
 4399WAT     H214780   5.524   3.701   2.409
 4400WAT      O14781   5.174   3.221   2.011
 4400WAT     H114782   5.081   3.246   2.010
 4400WAT     H214783   5.220   3.304   1.998
 4401WAT      O14784   5.796   3.532   1.605
 4401WAT     H114785   5.876   3.561   1.560
 4401WAT     H214786   5.744   3.489   1.538
 4402WAT      O14787   6.702   3.455   1.748
 4402WAT     H114788   6.673   3.413   1.666
 4402WAT     H214789   6.682   3.547   1.736
 4403WAT      O14790   5.848   3.054   1.592
 4403WAT     H114791   5.838   2.992   1.664
 4403WAT     H214792   5.831   3.002   1.513
 4404WAT      O14793   5.863   2.923   3.190
 4404WAT     H114794   5.787   2.979   3.181
 4404WAT     H214795   5.881   2.893   3.100
 4405WAT      O14796   6.172   2.960   1.652
 4405WAT     H114797   6.117   3.005   1.717
 4405WAT     H214798   6.234   2.910   1.705
 4406WAT      O14799   5.739   2.856   1.842
 4406WAT     H114800   5.781   2.839   1.926
 4406WAT     H214801   5.751   2.775   1.792
 4407WAT      O14802   5.555   2.454   3.123
 4407WAT     H114803   5.502   2.405   3.060
 4407WAT     H214804   5.622   2.497   3.069
 4408WAT      O14805   5.990   2.758   1.567
 4408WAT     H114806   6.042   2.687   1.530
 4408WAT     H214807   6.055   2.822   1.597
 4409WAT      O14808   6.445   2.901   3.099
 4409WAT     H114809   6.486   2.916   3.184
 4409WAT     H214810   6.352   2.913   3.115
 4410WAT      O14811   6.492   2.635   3.299
 4410WAT     H114812   6.550   2.559   3.291
 4410WAT     H214813   6.510   2.688   3.222
 4411WAT      O14814   5.604   2.151   3.131
 4411WAT     H114815   5.595   2.089   3.058
 4411WAT     H214816   5.546   2.223   3.108
 4412WAT      O14817   5.881   2.006   2.834
 4412WAT     H114818   5.836   2.009   2.749
 4412WAT     H214819   5.817   1.967   2.894
 4413WAT      O14820   5.921   2.896   2.896
 4413WAT     H114821   5.963   2.980   2.879
 4413WAT     H214822   5.829   2.910   2.873
 4414WAT      O14823   6.155   2.669   3.034
 4414WAT     H114824   6.167   2.609   3.108
 4414WAT     H214825   6.241   2.673   2.992
 4415WAT      O14826   6.389   2.724   2.892
 4415WAT     H114827   6.336   2.777   2.832
 4415WAT     H214828   6.423   2.788   2.955
 4416WAT      O14829   5.629   2.463   1.536
 4416WAT     H114830   5.608   2.377   1.573
 4416WAT     H214831   5.611   2.455   1.443
 4417WAT      O14832   5.706   3.526   3.008
 4417WAT     H114833   5.652   3.599   2.976
 4417WAT     H214834   5.732   3.479   2.929
 4418WAT      O14835   5.832   2.323   3.160
 4418WAT     H114836   5.890   2.292   3.229
 4418WAT     H214837   5.750   2.276   3.176
 4419WAT      O14838   6.313   2.285   3.183
 4419WAT     H114839   6.245   2.219   3.177
 4419WAT     H214840   6.385   2.240   3.228
 4420WAT      O14841   6.376   1.944   1.789
 4420WAT     H114842   6.404   1.860   1.825
 4420WAT     H214843   6.299   1.968   1.841
 4421WAT      O14844   5.508   2.173   1.535
 4421WAT     H114845   5.539   2.174   1.444
 4421WAT     H214846   5.582   2.138   1.585
 4422WAT      O14847   5.992   3.650   3.033
 4422WAT     H114848   5.984   3.740   3.064
 4422WAT     H214849   5.902   3.618   3.031
 4423WAT      O14850   5.830   2.068   1.634
 4423WAT     H114851   5.795   2.000   1.576
 4423WAT     H214852   5.850   2.022   1.715
 4424WAT      O14853   6.047   3.567   1.796
 4424WAT     H114854   6.136   3.600   1.798
 4424WAT     H214855   6.050   3.494   1.733
 4425WAT      O14856   5.411   3.104   1.619
 4425WAT     H114857   5.454   3.158   1.684
 4425WAT     H214858   5.459   3.021   1.619
 4426WAT      O14859   5.132   3.383   2.364
 4426WAT     H114860   5.165   3.296   2.341
 4426WAT     H214861   5.175   3.403   2.447
 4427WAT      O14862   5.592   3.216   2.130
 4427WAT     H114863   5.562   3.203   2.220
 4427WAT     H214864   5.581   3.130   2.089
 4428WAT      O14865   5.181   3.469   2.638
 4428WAT     H114866   5.137   3.487   2.721
 4428WAT     H214867   5.238   3.545   2.623
 4429WAT      O14868   6.869   3.194   1.600
 4429WAT     H114869   6.786   3.201   1.647
 4429WAT     H214870   6.886   3.283   1.570
 4430WAT      O14871   6.814   2.868   1.850
 4430WAT     H114872   6.890   2.925   1.861
 4430WAT     H214873   6.816   2.812   1.927
 4431WAT      O14874   5.164   2.721   2.273
 4431WAT     H114875   5.099   2.694   2.209
 4431WAT     H214876   5.248   2.710   2.228
 4432WAT      O14877   6.915   2.954   2.335
 4432WAT     H114878   6.952   2.875   2.294
 4432WAT     H214879   6.979   3.023   2.317
 4433WAT      O14880   6.613   3.092   2.876
 4433WAT     H114881   6.532   3.135   2.902
 4433WAT     H214882   6.654   3.153   2.815
 4434WAT      O14883   6.819   2.898   1.566
 4434WAT     H114884   6.847   2.988   1.553
 4434WAT     H214885   6.801   2.891   1.660
 4435WAT      O14886   6.459   2.200   1.696
 4435WAT     H114887   6.501   2.181   1.612
 4435WAT     H214888   6.429   2.115   1.727
 4436WAT      O14889   6.809   2.691   2.065
 4436WAT     H114890   6.772   2.615   2.022
 4436WAT     H214891   6.736   2.730   2.114
 4437WAT      O14892   5.268   2.759   2.727
 4437WAT     H114893   5.305   2.750   2.815
 4437WAT     H214894   5.211   2.683   2.718
 4438WAT      O14895   6.748   2.606   3.029
 4438WAT     H114896   6.725   2.583   2.939
 4438WAT     H214897   6.774   2.698   3.024
 4439WAT      O14898   5.223   2.450   3.118
 4439WAT     H114899   5.134   2.447   3.152
 4439WAT     H214900   5.277   2.470   3.195
 4440WAT      O14901   6.592   2.129   3.307
 4440WAT     H114902   6.680   2.129   3.345
 4440WAT     H214903   6.593   2.055   3.246
 4441WAT      O14904   5.086   2.442   1.868
 4441WAT     H114905   4.995   2.468   1.850
 4441WAT     H214906   5.134   2.469   1.790
 4442WAT      O14907   6.737   2.514   2.395
 4442WAT     H114908   6.789   2.464   2.332
 4442WAT     H214909   6.795   2.527   2.470
 4443WAT      O14910   6.755   2.522   2.748
 4443WAT     H114911   6.660   2.519   2.759
 4443WAT     H214912   6.773   2.613   2.724
 4444WAT      O14913   5.340   2.347   1.659
 4444WAT     H114914   5.411   2.305   1.610
 4444WAT     H214915   5.268   2.354   1.595
 4445WAT      O14916   5.305   1.953   1.563
 4445WAT     H114917   5.377   2.007   1.594
 4445WAT     H214918   5.332   1.925   1.475
 4446WAT      O14919   6.686   2.440   1.989
 4446WAT     H114920   6.735   2.416   2.068
 4446WAT     H214921   6.666   2.356   1.948
 4447WAT      O14922   5.274   1.878   2.553
 4447WAT     H114923   5.338   1.823   2.509
 4447WAT     H214924   5.316   1.903   2.635
 4448WAT      O14925   6.828   2.303   2.243
 4448WAT     H114926   6.817   2.288   2.337
 4448WAT     H214927   6.905   2.250   2.219
 4449WAT      O14928   6.663   1.897   2.889
 4449WAT     H114929   6.727   1.958   2.925
 4449WAT     H214930   6.678   1.901   2.794
 4450WAT      O14931   6.917   2.086   1.567
 4450WAT     H114932   7.010   2.073   1.546
 4450WAT     H214933   6.915   2.094   1.662
 4451WAT      O14934   6.925   2.163   1.829
 4451WAT     H114935   6.845   2.157   1.882
 4451WAT     H214936   6.945   2.257   1.828
 4452WAT      O14937   6.619   3.567   2.229
 4452WAT     H114938   6.679   3.535   2.161
 4452WAT     H214939   6.645   3.520   2.308
 4453WAT      O14940   5.249   1.893   2.827
 4453WAT     H114941   5.214   1.939   2.904
 4453WAT     H214942   5.216   1.804   2.835
 4454WAT      O14943   5.780   3.366   2.804
 4454WAT     H114944   5.756   3.393   2.715
 4454WAT     H214945   5.874   3.383   2.809
 4455WAT      O14946   6.000   2.012   3.179
 4455WAT     H114947   5.994   2.072   3.254
 4455WAT     H214948   6.094   2.002   3.165
 4456WAT      O14949   6.264   1.978   3.143
 4456WAT     H114950   6.325   2.010   3.077
 4456WAT     H214951   6.318   1.930   3.205
 4457WAT      O14952   6.906   3.568   2.884
 4457WAT     H114953   6.856   3.608   2.812
 4457WAT     H214954   6.845   3.506   2.923
 4458WAT      O14955   5.316   1.846   3.155
 4458WAT     H114956   5.371   1.828   3.078
 4458WAT     H214957   5.323   1.767   3.208
 4459WAT      O14958   6.338   1.834   2.776
 4459WAT     H114959   6.251   1.868   2.756
 4459WAT     H214960   6.327   1.787   2.858
 4460WAT      O14961   6.429   2.055   2.914
 4460WAT     H114962   6.396   1.974   2.876
 4460WAT     H214963   6.524   2.051   2.902
 4461WAT      O14964   6.674   3.632   2.612
 4461WAT     H114965   6.628   3.707   2.574
 4461WAT     H214966   6.611   3.560   2.606
 4462WAT      O14967   5.717   3.463   2.529
 4462WAT     H114968   5.769   3.402   2.477
 4462WAT     H214969   5.782   3.513   2.578
 4463WAT      O14970   5.991   3.552   2.612
 4463WAT     H114971   6.020   3.527   2.524
 4463WAT     H214972   6.042   3.497   2.671
 4464WAT      O14973   6.113   1.926   2.670
 4464WAT     H114974   6.034   1.974   2.698
 4464WAT     H214975   6.083   1.836   2.659
 4465WAT      O14976   6.568   1.996   2.474
 4465WAT     H114977   6.612   1.991   2.390
 4465WAT     H214978   6.541   2.088   2.481
 4466WAT      O14979   6.754   1.959   2.275
 4466WAT     H114980   6.748   1.865   2.261
 4466WAT     H214981   6.832   1.970   2.330
 4467WAT      O14982   5.185   3.573   2.172
 4467WAT     H114983   5.168   3.510   2.242
 4467WAT     H214984   5.098   3.594   2.137
 4468WAT      O14985   5.247   1.957   1.922
 4468WAT     H114986   5.323   1.968   1.865
 4468WAT     H214987   5.201   2.040   1.917
 4469WAT      O14988   5.901   2.168   2.221
 4469WAT     H114989   5.820   2.131   2.187
 4469WAT     H214990   5.952   2.092   2.251
 4470WAT      O14991   6.352   1.834   2.345
 4470WAT     H114992   6.412   1.892   2.392
 4470WAT     H214993   6.277   1.891   2.323
 4471WAT      O14994   6.666   1.875   1.872
 4471WAT     H114995   6.685   1.964   1.899
 4471WAT     H214996   6.587   1.851   1.922
 4472WAT      O14997   5.346   3.443   1.916
 4472WAT     H114998   5.293   3.481   1.846
 4472WAT     H214999   5.338   3.505   1.988
 4473WAT      O15000   5.484   2.009   1.776
 4473WAT     H115001   5.537   1.931   1.763
 4473WAT     H215002   5.548   2.077   1.799
 4474WAT      O15003   5.704   1.983   2.081
 4474WAT     H115004   5.641   1.913   2.098
 4474WAT     H215005   5.650   2.059   2.060
 4475WAT      O15006   6.821   3.599   2.048
 4475WAT     H115007   6.839   3.530   1.984
 4475WAT     H215008   6.751   3.651   2.009
 4476WAT      O15009   5.716   1.911   3.325
 4476WAT     H115010   5.688   1.961   3.249
 4476WAT     H215011   5.755   1.831   3.288
 4477WAT      O15012   5.605   3.638   1.804
 4477WAT     H115013   5.679   3.609   1.749
 4477WAT     H215014   5.631   3.614   1.893
 4478WAT      O15015   5.522   3.249   1.804
 4478WAT     H115016   5.459   3.296   1.859
 4478WAT     H215017   5.533   3.165   1.848
 4479WAT      O15018   6.376   1.852   3.383
 4479WAT     H115019   6.365   1.884   3.472
 4479WAT     H215020   6.458   1.892   3.353
 4480WAT      O15021   6.267   2.654   0.419
 4480WAT     H115022   6.259   2.563   0.392
 4480WAT     H215023   6.226   2.704   0.349
 4481WAT      O15024   6.080   2.832   0.607
 4481WAT     H115025   6.003   2.784   0.636
 4481WAT     H215026   6.145   2.764   0.590
 4482WAT      O15027   5.482   2.863   0.695
 4482WAT     H115028   5.399   2.838   0.735
 4482WAT     H215029   5.543   2.870   0.769
 4483WAT      O15030   6.482   3.273   0.485
 4483WAT     H115031   6.436   3.196   0.518
 4483WAT     H215032   6.564   3.275   0.536
 4484WAT      O15033   5.480   3.267   0.715
 4484WAT     H115034   5.510   3.178   0.697
 4484WAT     H215035   5.554   3.322   0.692
 4485WAT      O15036   5.119   2.619   0.662
 4485WAT     H115037   5.176   2.543   0.662
 4485WAT     H215038   5.119   2.649   0.571
 4486WAT      O15039   6.105   3.501   0.447
 4486WAT     H115040   6.043   3.547   0.390
 4486WAT     H215041   6.190   3.517   0.407
 4487WAT      O15042   6.024   3.100   0.608
 4487WAT     H115043   6.017   3.006   0.592
 4487WAT     H215044   6.101   3.109   0.665
 4488WAT      O15045   5.243   2.160   0.841
 4488WAT     H115046   5.225   2.070   0.869
 4488WAT     H215047   5.203   2.215   0.908
 4489WAT      O15048   6.127   2.380   0.631
 4489WAT     H115049   6.165   2.293   0.619
 4489WAT     H215050   6.118   2.414   0.542
 4490WAT      O15051   5.540   2.218   0.177
 4490WAT     H115052   5.551   2.308   0.208
 4490WAT     H215053   5.449   2.213   0.148
 4491WAT      O15054   6.506   2.130   0.324
 4491WAT     H115055   6.588   2.081   0.328
 4491WAT     H215056   6.509   2.189   0.399
 4492WAT      O15057   5.305   2.410   0.701
 4492WAT     H115058   5.373   2.436   0.763
 4492WAT     H215059   5.274   2.326   0.735
 4493WAT      O15060   5.725   2.514   0.610
 4493WAT     H115061   5.775   2.564   0.674
 4493WAT     H215062   5.778   2.437   0.592
 4494WAT      O15063   6.935   2.332   0.980
 4494WAT     H115064   6.864   2.370   0.929
 4494WAT     H215065   6.961   2.401   1.041
 4495WAT      O15066   5.553   1.978   1.037
 4495WAT     H115067   5.553   2.030   0.956
 4495WAT     H215068   5.470   1.931   1.034
 4496WAT      O15069   5.678   2.942   0.854
 4496WAT     H115070   5.645   3.005   0.919
 4496WAT     H215071   5.696   2.995   0.776
 4497WAT      O15072   6.529   2.324   0.601
 4497WAT     H115073   6.459   2.353   0.659
 4497WAT     H215074   6.565   2.405   0.565
 4498WAT      O15075   5.521   2.150   0.837
 4498WAT     H115076   5.555   2.234   0.808
 4498WAT     H215077   5.427   2.164   0.849
 4499WAT      O15078   5.599   3.139   1.036
 4499WAT     H115079   5.661   3.207   1.008
 4499WAT     H215080   5.513   3.180   1.027
 4500WAT      O15081   6.691   3.286   0.827
 4500WAT     H115082   6.623   3.353   0.827
 4500WAT     H215083   6.745   3.305   0.751
 4501WAT      O15084   6.836   2.268   0.640
 4501WAT     H115085   6.741   2.272   0.653
 4501WAT     H215086   6.869   2.350   0.679
 4502WAT      O15087   5.889   1.898   0.470
 4502WAT     H115088   5.920   1.843   0.398
 4502WAT     H215089   5.796   1.912   0.452
 4503WAT      O15090   6.444   3.470   0.699
 4503WAT     H115091   6.446   3.430   0.612
 4503WAT     H215092   6.389   3.548   0.689
 4504WAT      O15093   6.574   3.142   0.208
 4504WAT     H115094   6.563   3.048   0.220
 4504WAT     H215095   6.574   3.178   0.296
 4505WAT      O15096   6.384   2.960   0.832
 4505WAT     H115097   6.426   2.939   0.748
 4505WAT     H215098   6.457   2.986   0.889
 4506WAT      O15099   6.779   2.800   0.841
 4506WAT     H115100   6.696   2.807   0.793
 4506WAT     H215101   6.838   2.859   0.794
 4507WAT      O15102   6.475   2.479   0.935
 4507WAT     H115103   6.434   2.561   0.961
 4507WAT     H215104   6.402   2.420   0.916
 4508WAT      O15105   5.689   2.758   0.422
 4508WAT     H115106   5.648   2.686   0.372
 4508WAT     H215107   5.697   2.723   0.511
 4509WAT      O15108   5.736   3.126   0.638
 4509WAT     H115109   5.706   3.066   0.570
 4509WAT     H215110   5.831   3.130   0.627
 4510WAT      O15111   5.560   2.435   0.800
 4510WAT     H115112   5.615   2.446   0.722
 4510WAT     H215113   5.611   2.472   0.871
 4511WAT      O15114   6.544   3.484   1.004
 4511WAT     H115115   6.497   3.564   0.985
 4511WAT     H215116   6.476   3.418   1.020
 4512WAT      O15117   5.645   3.100   1.303
 4512WAT     H115118   5.555   3.122   1.328
 4512WAT     H215119   5.647   3.112   1.208
 4513WAT      O15120   5.527   2.787   1.161
 4513WAT     H115121   5.513   2.874   1.198
 4513WAT     H215122   5.439   2.753   1.146
 4514WAT      O15123   6.160   3.279   0.291
 4514WAT     H115124   6.204   3.353   0.250
 4514WAT     H215125   6.154   3.303   0.384
 4515WAT      O15126   5.707   3.381   1.382
 4515WAT     H115127   5.704   3.422   1.295
 4515WAT     H215128   5.691   3.288   1.365
 4516WAT      O15129   6.902   3.460   1.511
 4516WAT     H115130   6.950   3.507   1.579
 4516WAT     H215131   6.964   3.453   1.439
 4517WAT      O15132   5.123   2.964   0.752
 4517WAT     H115133   5.130   2.978   0.658
 4517WAT     H215134   5.184   2.893   0.772
 4518WAT      O15135   5.247   3.134   0.393
 4518WAT     H115136   5.206   3.148   0.308
 4518WAT     H215137   5.336   3.106   0.373
 4519WAT      O15138   6.843   3.179   1.227
 4519WAT     H115139   6.855   3.155   1.135
 4519WAT     H215140   6.847   3.096   1.274
 4520WAT      O15141   6.229   3.549   1.084
 4520WAT     H115142   6.280   3.540   1.164
 4520WAT     H215143   6.145   3.584   1.113
 4521WAT      O15144   5.674   3.556   0.205
 4521WAT     H115145   5.657   3.464   0.183
 4521WAT     H215146   5.589   3.591   0.229
 4522WAT      O15147   6.353   3.491   0.290
 4522WAT     H115148   6.399   3.413   0.322
 4522WAT     H215149   6.387   3.562   0.345
 4523WAT      O15150   6.828   2.384   1.324
 4523WAT     H115151   6.766   2.435   1.271
 4523WAT     H215152   6.796   2.294   1.318
 4524WAT      O15153   5.128   3.068   1.006
 4524WAT     H115154   5.144   3.021   0.925
 4524WAT     H215155   5.175   3.017   1.073
 4525WAT      O15156   5.605   1.981   0.510
 4525WAT     H115157   5.561   2.059   0.477
 4525WAT     H215158   5.661   2.014   0.581
 4526WAT      O15159   6.034   2.268   1.070
 4526WAT     H115160   5.988   2.289   1.152
 4526WAT     H215161   5.994   2.187   1.040
 4527WAT      O15162   6.534   2.390   1.183
 4527WAT     H115163   6.449   2.360   1.215
 4527WAT     H215164   6.518   2.415   1.092
 4528WAT      O15165   6.244   2.540   1.393
 4528WAT     H115166   6.276   2.457   1.359
 4528WAT     H215167   6.322   2.592   1.408
 4529WAT      O15168   5.809   2.036   0.696
 4529WAT     H115169   5.839   2.126   0.688
 4529WAT     H215170   5.864   1.987   0.634
 4530WAT      O15171   5.585   2.494   0.283
 4530WAT     H115172   5.562   2.472   0.373
 4530WAT     H215173   5.506   2.537   0.248
 4531WAT      O15174   5.829   2.584   1.349
 4531WAT     H115175   5.819   2.489   1.334
 4531WAT     H215176   5.913   2.606   1.310
 4532WAT      O15177   6.168   2.358   0.346
 4532WAT     H115178   6.207   2.390   0.264
 4532WAT     H215179   6.204   2.270   0.357
 4533WAT      O15180   5.342   2.225   1.165
 4533WAT     H115181   5.302   2.309   1.185
 4533WAT     H215182   5.273   2.161   1.184
 4534WAT      O15183   5.999   2.233   1.472
 4534WAT     H115184   5.930   2.214   1.535
 4534WAT     H215185   6.073   2.261   1.525
 4535WAT      O15186   5.072   2.017   0.568
 4535WAT     H115187   5.043   2.074   0.639
 4535WAT     H215188   5.146   1.969   0.604
 4536WAT      O15189   6.227   2.617   0.755
 4536WAT     H115190   6.154   2.668   0.790
 4536WAT     H215191   6.187   2.535   0.725
 4537WAT      O15192   5.870   2.285   0.596
 4537WAT     H115193   5.871   2.240   0.511
 4537WAT     H215194   5.960   2.317   0.606
 4538WAT      O15195   5.455   2.273   0.492
 4538WAT     H115196   5.421   2.321   0.567
 4538WAT     H215197   5.379   2.227   0.456
 4539WAT      O15198   6.273   2.162   0.696
 4539WAT     H115199   6.275   2.207   0.781
 4539WAT     H215200   6.248   2.072   0.718
 4540WAT      O15201   6.616   1.904   1.280
 4540WAT     H115202   6.648   1.831   1.333
 4540WAT     H215203   6.619   1.872   1.190
 4541WAT      O15204   5.286   3.006   1.222
 4541WAT     H115205   5.247   2.942   1.282
 4541WAT     H215206   5.317   3.076   1.279
 4542WAT      O15207   5.901   2.691   0.770
 4542WAT     H115208   5.937   2.643   0.845
 4542WAT     H215209   5.882   2.778   0.804
 4543WAT      O15210   5.187   2.165   0.383
 4543WAT     H115211   5.158   2.129   0.467
 4543WAT     H215212   5.181   2.092   0.322
 4544WAT      O15213   5.680   2.595   1.002
 4544WAT     H115214   5.649   2.683   1.025
 4544WAT     H215215   5.775   2.601   1.006
 4545WAT      O15216   6.608   2.915   0.641
 4545WAT     H115217   6.680   2.964   0.602
 4545WAT     H215218   6.588   2.847   0.577
 4546WAT      O15219   6.146   2.922   1.230
 4546WAT     H115220   6.140   2.830   1.204
 4546WAT     H215221   6.083   2.932   1.301
 4547WAT      O15222   5.537   2.982   0.426
 4547WAT     H115223   5.589   2.902   0.420
 4547WAT     H215224   5.492   2.976   0.510
 4548WAT      O15225   5.285   2.679   1.117
 4548WAT     H115226   5.249   2.745   1.176
 4548WAT     H215227   5.256   2.595   1.154
 4549WAT      O15228   5.605   2.724   1.405
 4549WAT     H115229   5.575   2.739   1.316
 4549WAT     H215230   5.682   2.669   1.396
 4550WAT      O15231   6.140   3.204   1.205
 4550WAT     H115232   6.141   3.111   1.183
 4550WAT     H215233   6.069   3.213   1.269
 4551WAT      O15234   6.761   2.868   1.140
 4551WAT     H115235   6.688   2.928   1.120
 4551WAT     H215236   6.813   2.867   1.060
 4552WAT      O15237   6.314   3.041   0.489
 4552WAT     H115238   6.349   2.981   0.423
 4552WAT     H215239   6.225   3.008   0.507
 4553WAT      O15240   5.922   3.117   0.230
 4553WAT     H115241   5.991   3.172   0.268
 4553WAT     H215242   5.844   3.171   0.234
 4554WAT      O15243   5.853   2.817   0.191
 4554WAT     H115244   5.898   2.898   0.214
 4554WAT     H215245   5.817   2.786   0.275
 4555WAT      O15246   6.083   3.368   0.914
 4555WAT     H115247   6.147   3.389   0.982
 4555WAT     H215248   6.119   3.292   0.869
 4556WAT      O15249   5.443   1.852   0.239
 4556WAT     H115250   5.430   1.851   0.333
 4556WAT     H215251   5.360   1.886   0.204
 4557WAT      O15252   6.210   3.169   0.786
 4557WAT     H115253   6.274   3.099   0.797
 4557WAT     H215254   6.263   3.247   0.768
 4558WAT      O15255   6.388   3.249   1.106
 4558WAT     H115256   6.421   3.307   1.174
 4558WAT     H215257   6.296   3.236   1.129
 4559WAT      O15258   5.143   2.028   1.185
 4559WAT     H115259   5.071   2.048   1.245
 4559WAT     H215260   5.185   1.950   1.222
 4560WAT      O15261   5.171   3.426   1.283
 4560WAT     H115262   5.182   3.332   1.269
 4560WAT     H215263   5.106   3.453   1.218
 4561WAT      O15264   5.971   3.254   1.423
 4561WAT     H115265   5.938   3.182   1.478
 4561WAT     H215266   5.903   3.321   1.431
 4562WAT      O15267   6.292   2.277   0.960
 4562WAT     H115268   6.329   2.195   0.992
 4562WAT     H215269   6.206   2.283   1.001
 4563WAT      O15270   5.826   2.400   0.182
 4563WAT     H115271   5.755   2.447   0.226
 4563WAT     H215272   5.854   2.334   0.246
 4564WAT      O15273   5.988   2.542   0.982
 4564WAT     H115274   6.038   2.590   1.049
 4564WAT     H215275   6.002   2.450   1.003
 4565WAT      O15276   6.229   2.073   0.326
 4565WAT     H115277   6.216   2.075   0.231
 4565WAT     H215278   6.324   2.078   0.338
 4566WAT      O15279   5.937   3.596   0.253
 4566WAT     H115280   5.963   3.593   0.161
 4566WAT     H215281   5.843   3.584   0.253
 4567WAT      O15282   6.709   2.164   1.066
 4567WAT     H115283   6.658   2.238   1.100
 4567WAT     H215284   6.790   2.203   1.035
 4568WAT      O15285   6.538   2.688   0.411
 4568WAT     H115286   6.444   2.690   0.428
 4568WAT     H215287   6.569   2.610   0.456
 4569WAT      O15288   6.738   3.405   0.579
 4569WAT     H115289   6.751   3.488   0.626
 4569WAT     H215290   6.825   3.384   0.544
 4570WAT      O15291   5.485   3.615   0.546
 4570WAT     H115292   5.559   3.560   0.573
 4570WAT     H215293   5.524   3.701   0.532
 4571WAT      O15294   5.386   3.533   1.465
 4571WAT     H115295   5.466   3.565   1.506
 4571WAT     H215296   5.334   3.497   1.537
 4572WAT      O15297   6.270   3.144   1.459
 4572WAT     H115298   6.209   3.146   1.385
 4572WAT     H215299   6.239   3.071   1.513
 4573WAT      O15300   6.413   3.517   1.320
 4573WAT     H115301   6.508   3.508   1.315
 4573WAT     H215302   6.398   3.583   1.388
 4574WAT      O15303   5.158   2.782   1.359
 4574WAT     H115304   5.208   2.724   1.416
 4574WAT     H215305   5.084   2.810   1.413
 4575WAT      O15306   5.863   2.923   1.312
 4575WAT     H115307   5.787   2.979   1.304
 4575WAT     H215308   5.881   2.893   1.223
 4576WAT      O15309   6.578   3.096   1.368
 4576WAT     H115310   6.652   3.129   1.318
 4576WAT     H215311   6.501   3.112   1.313
 4577WAT      O15312   5.361   2.596   1.448
 4577WAT     H115313   5.365   2.566   1.539
 4577WAT     H215314   5.447   2.636   1.432
 4578WAT      O15315   5.555   2.454   1.245
 4578WAT     H115316   5.502   2.405   1.182
 4578WAT     H215317   5.622   2.497   1.192
 4579WAT      O15318   6.445   2.901   1.222
 4579WAT     H115319   6.486   2.916   1.306
 4579WAT     H215320   6.352   2.913   1.238
 4580WAT      O15321   6.492   2.635   1.422
 4580WAT     H115322   6.550   2.559   1.413
 4580WAT     H215323   6.510   2.688   1.344
 4581WAT      O15324   5.604   2.151   1.253
 4581WAT     H115325   5.595   2.089   1.181
 4581WAT     H215326   5.546   2.223   1.230
 4582WAT      O15327   5.881   2.006   0.956
 4582WAT     H115328   5.836   2.009   0.872
 4582WAT     H215329   5.817   1.967   1.016
 4583WAT      O15330   5.921   2.896   1.019
 4583WAT     H115331   5.963   2.980   1.001
 4583WAT     H215332   5.829   2.910   0.996
 4584WAT      O15333   6.155   2.669   1.157
 4584WAT     H115334   6.167   2.609   1.231
 4584WAT     H215335   6.241   2.673   1.115
 4585WAT      O15336   6.389   2.724   1.015
 4585WAT     H115337   6.336   2.777   0.954
 4585WAT     H215338   6.423   2.788   1.078
 4586WAT      O15339   5.706   3.526   1.130
 4586WAT     H115340   5.652   3.599   1.098
 4586WAT     H215341   5.732   3.479   1.051
 4587WAT      O15342   5.832   2.323   1.283
 4587WAT     H115343   5.890   2.292   1.351
 4587WAT     H215344   5.750   2.276   1.298
 4588WAT      O15345   6.313   2.285   1.306
 4588WAT     H115346   6.245   2.219   1.299
 4588WAT     H215347   6.385   2.240   1.350
 4589WAT      O15348   5.992   3.650   1.156
 4589WAT     H115349   5.984   3.740   1.187
 4589WAT     H215350   5.902   3.618   1.153
 4590WAT      O15351   5.132   3.383   0.486
 4590WAT     H115352   5.165   3.296   0.463
 4590WAT     H215353   5.175   3.403   0.569
 4591WAT      O15354   5.592   3.216   0.252
 4591WAT     H115355   5.562   3.203   0.342
 4591WAT     H215356   5.581   3.130   0.211
 4592WAT      O15357   5.181   3.469   0.760
 4592WAT     H115358   5.137   3.487   0.843
 4592WAT     H215359   5.238   3.545   0.746
 4593WAT      O15360   6.745   3.420   1.189
 4593WAT     H115361   6.685   3.426   1.115
 4593WAT     H215362   6.758   3.326   1.202
 4594WAT      O15363   5.164   2.721   0.396
 4594WAT     H115364   5.099   2.694   0.332
 4594WAT     H215365   5.248   2.710   0.351
 4595WAT      O15366   6.915   2.954   0.457
 4595WAT     H115367   6.952   2.875   0.417
 4595WAT     H215368   6.979   3.023   0.440
 4596WAT      O15369   6.613   3.092   0.999
 4596WAT     H115370   6.532   3.135   1.025
 4596WAT     H215371   6.654   3.153   0.937
 4597WAT      O15372   6.809   2.691   0.188
 4597WAT     H115373   6.772   2.615   0.145
 4597WAT     H215374   6.736   2.730   0.237
 4598WAT      O15375   5.268   2.759   0.850
 4598WAT     H115376   5.305   2.750   0.938
 4598WAT     H215377   5.211   2.683   0.840
 4599WAT      O15378   6.748   2.606   1.151
 4599WAT     H115379   6.725   2.583   1.061
 4599WAT     H215380   6.774   2.698   1.147
 4600WAT      O15381   5.223   2.450   1.241
 4600WAT     H115382   5.134   2.447   1.275
 4600WAT     H215383   5.277   2.470   1.317
 4601WAT      O15384   6.592   2.129   1.429
 4601WAT     H115385   6.680   2.129   1.467
 4601WAT     H215386   6.593   2.055   1.368
 4602WAT      O15387   6.737   2.514   0.518
 4602WAT     H115388   6.789   2.464   0.455
 4602WAT     H215389   6.795   2.527   0.592
 4603WAT      O15390   6.755   2.522   0.870
 4603WAT     H115391   6.660   2.519   0.882
 4603WAT     H215392   6.773   2.613   0.847
 4604WAT      O15393   5.274   1.878   0.675
 4604WAT     H115394   5.338   1.823   0.631
 4604WAT     H215395   5.316   1.903   0.758
 4605WAT      O15396   6.828   2.303   0.365
 4605WAT     H115397   6.817   2.288   0.459
 4605WAT     H215398   6.905   2.250   0.341
 4606WAT      O15399   6.663   1.897   1.011
 4606WAT     H115400   6.727   1.958   1.048
 4606WAT     H215401   6.678   1.901   0.917
 4607WAT      O15402   6.619   3.567   0.351
 4607WAT     H115403   6.679   3.535   0.284
 4607WAT     H215404   6.645   3.520   0.430
 4608WAT      O15405   5.249   1.893   0.950
 4608WAT     H115406   5.214   1.939   1.026
 4608WAT     H215407   5.216   1.804   0.958
 4609WAT      O15408   5.410   3.210   1.366
 4609WAT     H115409   5.405   3.173   1.454
 4609WAT     H215410   5.423   3.304   1.380
 4610WAT      O15411   5.780   3.366   0.926
 4610WAT     H115412   5.756   3.393   0.838
 4610WAT     H215413   5.874   3.383   0.932
 4611WAT      O15414   6.000   2.012   1.302
 4611WAT     H115415   5.994   2.072   1.377
 4611WAT     H215416   6.094   2.002   1.287
 4612WAT      O15417   6.264   1.978   1.266
 4612WAT     H115418   6.325   2.010   1.200
 4612WAT     H215419   6.318   1.930   1.328
 4613WAT      O15420   6.906   3.568   1.006
 4613WAT     H115421   6.856   3.608   0.935
 4613WAT     H215422   6.845   3.506   1.046
 4614WAT      O15423   5.316   1.846   1.277
 4614WAT     H115424   5.371   1.828   1.201
 4614WAT     H215425   5.323   1.767   1.331
 4615WAT      O15426   5.393   3.505   1.078
 4615WAT     H115427   5.334   3.492   1.152
 4615WAT     H215428   5.393   3.421   1.032
 4616WAT      O15429   6.338   1.834   0.899
 4616WAT     H115430   6.251   1.868   0.878
 4616WAT     H215431   6.327   1.787   0.981
 4617WAT      O15432   6.429   2.055   1.037
 4617WAT     H115433   6.396   1.974   0.999
 4617WAT     H215434   6.524   2.051   1.025
 4618WAT      O15435   6.674   3.632   0.734
 4618WAT     H115436   6.628   3.707   0.697
 4618WAT     H215437   6.611   3.560   0.728
 4619WAT      O15438   5.357   3.242   0.973
 4619WAT     H115439   5.284   3.180   0.967
 4619WAT     H215440   5.363   3.281   0.886
 4620WAT      O15441   5.717   3.463   0.652
 4620WAT     H115442   5.769   3.402   0.599
 4620WAT     H215443   5.782   3.513   0.701
 4621WAT      O15444   5.991   3.552   0.734
 4621WAT     H115445   6.020   3.527   0.647
 4621WAT     H215446   6.042   3.497   0.794
 4622WAT      O15447   6.113   1.926   0.792
 4622WAT     H115448   6.034   1.974   0.820
 4622WAT     H215449   6.083   1.836   0.782
 4623WAT      O15450   6.568   1.996   0.597
 4623WAT     H115451   6.612   1.991   0.512
 4623WAT     H215452   6.541   2.088   0.604
 4624WAT      O15453   6.754   1.959   0.398
 4624WAT     H115454   6.748   1.865   0.383
 4624WAT     H215455   6.832   1.970   0.453
 4625WAT      O15456   5.185   3.573   0.294
 4625WAT     H115457   5.168   3.510   0.364
 4625WAT     H215458   5.098   3.594   0.259
 4626WAT      O15459   5.901   2.168   0.344
 4626WAT     H115460   5.820   2.131   0.310
 4626WAT     H215461   5.952   2.092   0.374
 4627WAT      O15462   6.352   1.834   0.467
 4627WAT     H115463   6.412   1.892   0.515
 4627WAT     H215464   6.277   1.891   0.445
 4628WAT      O15465   5.704   1.983   0.204
 4628WAT     H115466   5.641   1.913   0.221
 4628WAT     H215467   5.650   2.059   0.182
 4629WAT      O15468   5.998   3.644   1.471
 4629WAT     H115469   6.090   3.621   1.476
 4629WAT     H215470   5.996   3.727   1.423
 4630WAT      O15471   5.716   1.911   1.448
 4630WAT     H115472   5.688   1.961   1.371
 4630WAT     H215473   5.755   1.831   1.411
 4631WAT      O15474   6.376   1.852   1.505
 4631WAT     H115475   6.365   1.884   1.595
 4631WAT     H215476   6.458   1.892   1.476
 4632WAT      O15477   6.654   3.567   1.454
 4632WAT     H115478   6.734   3.518   1.433
 4632WAT     H215479   6.684   3.635   1.514
 4633WAT      O15480   6.267   0.777   6.051
 4633WAT     H115481   6.259   0.685   6.024
 4633WAT     H215482   6.226   0.827   5.981
 4634WAT      O15483   6.080   0.955   6.240
 4634WAT     H115484   6.003   0.907   6.269
 4634WAT     H215485   6.145   0.887   6.222
 4635WAT      O15486   5.482   0.986   6.327
 4635WAT     H115487   5.399   0.960   6.367
 4635WAT     H215488   5.543   0.993   6.401
 4636WAT      O15489   6.482   1.395   6.118
 4636WAT     H115490   6.436   1.318   6.150
 4636WAT     H215491   6.564   1.398   6.168
 4637WAT      O15492   5.480   1.389   6.347
 4637WAT     H115493   5.510   1.300   6.329
 4637WAT     H215494   5.554   1.445   6.324
 4638WAT      O15495   5.323   0.482   5.706
 4638WAT     H115496   5.234   0.516   5.696
 4638WAT     H215497   5.351   0.462   5.617
 4639WAT      O15498   5.119   0.742   6.294
 4639WAT     H115499   5.176   0.665   6.294
 4639WAT     H215500   5.119   0.772   6.203
 4640WAT      O15501   6.105   1.624   6.080
 4640WAT     H115502   6.043   1.669   6.023
 4640WAT     H215503   6.190   1.639   6.039
 4641WAT      O15504   6.024   1.222   6.240
 4641WAT     H115505   6.017   1.128   6.224
 4641WAT     H215506   6.101   1.231   6.297
 4642WAT      O15507   5.243   0.283   6.473
 4642WAT     H115508   5.225   0.193   6.501
 4642WAT     H215509   5.203   0.337   6.540
 4643WAT      O15510   6.127   0.503   6.263
 4643WAT     H115511   6.165   0.416   6.252
 4643WAT     H215512   6.118   0.537   6.174
 4644WAT      O15513   5.540   0.340   5.809
 4644WAT     H115514   5.551   0.430   5.840
 4644WAT     H215515   5.449   0.335   5.780
 4645WAT      O15516   6.506   0.252   5.956
 4645WAT     H115517   6.588   0.203   5.960
 4645WAT     H215518   6.509   0.311   6.032
 4646WAT      O15519   5.305   0.532   6.334
 4646WAT     H115520   5.373   0.559   6.396
 4646WAT     H215521   5.274   0.448   6.367
 4647WAT      O15522   5.725   0.637   6.242
 4647WAT     H115523   5.775   0.687   6.306
 4647WAT     H215524   5.778   0.559   6.225
 4648WAT      O15525   6.192   1.112   5.819
 4648WAT     H115526   6.130   1.159   5.763
 4648WAT     H215527   6.243   1.181   5.861
 4649WAT      O15528   5.678   1.065   6.487
 4649WAT     H115529   5.645   1.128   6.551
 4649WAT     H215530   5.696   1.118   6.409
 4650WAT      O15531   6.529   0.446   6.234
 4650WAT     H115532   6.459   0.475   6.292
 4650WAT     H215533   6.565   0.527   6.198
 4651WAT      O15534   5.521   0.272   6.470
 4651WAT     H115535   5.555   0.357   6.440
 4651WAT     H215536   5.427   0.287   6.481
 4652WAT      O15537   5.128   1.181   5.556
 4652WAT     H115538   5.091   1.230   5.483
 4652WAT     H215539   5.154   1.248   5.619
 4653WAT      O15540   6.691   1.408   6.460
 4653WAT     H115541   6.623   1.475   6.459
 4653WAT     H215542   6.745   1.428   6.383
 4654WAT      O15543   6.836   0.391   6.273
 4654WAT     H115544   6.741   0.394   6.286
 4654WAT     H215545   6.869   0.472   6.311
 4655WAT      O15546   6.444   1.593   6.331
 4655WAT     H115547   6.446   1.552   6.244
 4655WAT     H215548   6.389   1.670   6.321
 4656WAT      O15549   6.574   1.265   5.840
 4656WAT     H115550   6.563   1.171   5.853
 4656WAT     H215551   6.574   1.301   5.929
 4657WAT      O15552   6.384   1.083   6.464
 4657WAT     H115553   6.426   1.062   6.381
 4657WAT     H215554   6.457   1.109   6.521
 4658WAT      O15555   6.128   0.827   5.776
 4658WAT     H115556   6.035   0.821   5.799
 4658WAT     H215557   6.143   0.921   5.764
 4659WAT      O15558   6.127   0.455   5.475
 4659WAT     H115559   6.033   0.471   5.484
 4659WAT     H215560   6.159   0.526   5.421
 4660WAT      O15561   6.779   0.923   6.473
 4660WAT     H115562   6.696   0.930   6.426
 4660WAT     H215563   6.838   0.981   6.426
 4661WAT      O15564   6.531   0.984   5.826
 4661WAT     H115565   6.469   0.950   5.761
 4661WAT     H215566   6.529   0.919   5.897
 4662WAT      O15567   6.475   0.601   6.568
 4662WAT     H115568   6.434   0.684   6.593
 4662WAT     H215569   6.402   0.543   6.549
 4663WAT      O15570   5.689   0.880   6.054
 4663WAT     H115571   5.648   0.809   6.004
 4663WAT     H215572   5.697   0.846   6.143
 4664WAT      O15573   5.736   1.249   6.270
 4664WAT     H115574   5.706   1.188   6.202
 4664WAT     H215575   5.831   1.253   6.259
 4665WAT      O15576   5.560   0.558   6.432
 4665WAT     H115577   5.615   0.568   6.354
 4665WAT     H215578   5.611   0.595   6.504
 4666WAT      O15579   6.544   1.606   6.637
 4666WAT     H115580   6.497   1.687   6.617
 4666WAT     H215581   6.476   1.541   6.652
 4667WAT      O15582   6.349   0.908   5.527
 4667WAT     H115583   6.393   0.824   5.512
 4667WAT     H215584   6.420   0.971   5.535
 4668WAT      O15585   6.160   1.401   5.924
 4668WAT     H115586   6.204   1.476   5.882
 4668WAT     H215587   6.154   1.426   6.016
 4669WAT      O15588   5.359   0.770   5.804
 4669WAT     H115589   5.347   0.842   5.743
 4669WAT     H215590   5.328   0.693   5.756
 4670WAT      O15591   5.123   1.087   6.385
 4670WAT     H115592   5.130   1.100   6.290
 4670WAT     H215593   5.184   1.016   6.404
 4671WAT      O15594   5.247   1.257   6.026
 4671WAT     H115595   5.206   1.271   5.940
 4671WAT     H215596   5.336   1.228   6.005
 4672WAT      O15597   6.426   1.700   5.659
 4672WAT     H115598   6.410   1.671   5.749
 4672WAT     H215599   6.410   1.623   5.606
 4673WAT      O15600   5.674   1.678   5.837
 4673WAT     H115601   5.657   1.586   5.816
 4673WAT     H215602   5.589   1.714   5.861
 4674WAT      O15603   6.397   1.451   5.515
 4674WAT     H115604   6.327   1.451   5.449
 4674WAT     H215605   6.471   1.409   5.472
 4675WAT      O15606   6.353   1.614   5.923
 4675WAT     H115607   6.399   1.536   5.954
 4675WAT     H215608   6.387   1.685   5.977
 4676WAT      O15609   5.585   0.616   5.915
 4676WAT     H115610   5.562   0.595   6.006
 4676WAT     H215611   5.506   0.659   5.881
 4677WAT      O15612   6.307   0.617   5.775
 4677WAT     H115613   6.248   0.689   5.757
 4677WAT     H215614   6.362   0.611   5.697
 4678WAT      O15615   6.168   0.480   5.978
 4678WAT     H115616   6.207   0.512   5.897
 4678WAT     H215617   6.204   0.393   5.989
 4679WAT      O15618   5.090   0.534   5.321
 4679WAT     H115619   5.082   0.628   5.336
 4679WAT     H215620   5.055   0.519   5.233
 4680WAT      O15621   6.227   0.740   6.388
 4680WAT     H115622   6.154   0.790   6.422
 4680WAT     H215623   6.187   0.658   6.357
 4681WAT      O15624   5.870   0.407   6.228
 4681WAT     H115625   5.871   0.363   6.143
 4681WAT     H215626   5.960   0.439   6.239
 4682WAT      O15627   5.455   0.395   6.124
 4682WAT     H115628   5.421   0.443   6.200
 4682WAT     H215629   5.379   0.350   6.088
 4683WAT      O15630   5.877   0.507   5.527
 4683WAT     H115631   5.889   0.503   5.622
 4683WAT     H215632   5.838   0.593   5.512
 4684WAT      O15633   6.273   0.285   6.329
 4684WAT     H115634   6.275   0.330   6.413
 4684WAT     H215635   6.248   0.195   6.350
 4685WAT      O15636   5.778   0.738   5.467
 4685WAT     H115637   5.721   0.693   5.404
 4685WAT     H215638   5.849   0.774   5.414
 4686WAT      O15639   5.901   0.813   6.403
 4686WAT     H115640   5.937   0.766   6.477
 4686WAT     H215641   5.882   0.901   6.437
 4687WAT      O15642   5.187   0.288   6.016
 4687WAT     H115643   5.158   0.251   6.099
 4687WAT     H215644   5.181   0.214   5.954
 4688WAT      O15645   5.532   1.138   5.694
 4688WAT     H115646   5.455   1.084   5.678
 4688WAT     H215647   5.605   1.086   5.660
 4689WAT      O15648   6.608   1.037   6.273
 4689WAT     H115649   6.680   1.087   6.234
 4689WAT     H215650   6.588   0.970   6.209
 4690WAT      O15651   6.154   0.177   5.688
 4690WAT     H115652   6.073   0.127   5.680
 4690WAT     H215653   6.135   0.261   5.646
 4691WAT      O15654   6.426   0.614   5.517
 4691WAT     H115655   6.515   0.645   5.500
 4691WAT     H215656   6.423   0.527   5.478
 4692WAT      O15657   5.537   1.105   6.058
 4692WAT     H115658   5.589   1.024   6.053
 4692WAT     H215659   5.492   1.098   6.142
 4693WAT      O15660   6.025   1.231   5.585
 4693WAT     H115661   6.060   1.306   5.536
 4693WAT     H215662   5.943   1.263   5.622
 4694WAT      O15663   6.653   0.745   5.464
 4694WAT     H115664   6.645   0.788   5.379
 4694WAT     H215665   6.725   0.791   5.507
 4695WAT      O15666   6.756   1.431   5.737
 4695WAT     H115667   6.692   1.365   5.764
 4695WAT     H215668   6.717   1.471   5.659
 4696WAT      O15669   6.314   1.163   6.122
 4696WAT     H115670   6.349   1.104   6.056
 4696WAT     H215671   6.225   1.131   6.139
 4697WAT      O15672   5.922   1.239   5.862
 4697WAT     H115673   5.991   1.294   5.901
 4697WAT     H215674   5.844   1.294   5.866
 4698WAT      O15675   5.136   0.801   5.412
 4698WAT     H115676   5.223   0.829   5.440
 4698WAT     H215677   5.087   0.882   5.400
 4699WAT      O15678   5.853   0.940   5.824
 4699WAT     H115679   5.898   1.021   5.846
 4699WAT     H215680   5.817   0.908   5.907
 4700WAT      O15681   6.083   1.491   6.547
 4700WAT     H115682   6.147   1.512   6.614
 4700WAT     H215683   6.119   1.415   6.501
 4701WAT      O15684   6.210   1.291   6.418
 4701WAT     H115685   6.274   1.221   6.430
 4701WAT     H215686   6.263   1.369   6.400
 4702WAT      O15687   6.595   1.320   5.391
 4702WAT     H115688   6.572   1.248   5.450
 4702WAT     H215689   6.556   1.295   5.307
 4703WAT      O15690   5.173   1.722   5.468
 4703WAT     H115691   5.209   1.782   5.403
 4703WAT     H215692   5.159   1.777   5.546
 4704WAT      O15693   6.553   1.111   5.557
 4704WAT     H115694   6.524   1.158   5.636
 4704WAT     H215695   6.632   1.065   5.584
 4705WAT      O15696   5.775   1.461   5.550
 4705WAT     H115697   5.774   1.534   5.488
 4705WAT     H215698   5.683   1.436   5.559
 4706WAT      O15699   5.335   0.983   5.624
 4706WAT     H115700   5.274   1.057   5.625
 4706WAT     H215701   5.382   0.992   5.542
 4707WAT      O15702   6.292   0.399   6.592
 4707WAT     H115703   6.329   0.317   6.625
 4707WAT     H215704   6.206   0.405   6.634
 4708WAT      O15705   6.629   0.295   5.673
 4708WAT     H115706   6.566   0.305   5.601
 4708WAT     H215707   6.579   0.317   5.752
 4709WAT      O15708   6.073   1.467   5.416
 4709WAT     H115709   6.083   1.447   5.323
 4709WAT     H215710   5.983   1.442   5.437
 4710WAT      O15711   5.826   0.523   5.814
 4710WAT     H115712   5.755   0.570   5.859
 4710WAT     H215713   5.854   0.457   5.878
 4711WAT      O15714   6.229   0.195   5.958
 4711WAT     H115715   6.216   0.197   5.864
 4711WAT     H215716   6.324   0.200   5.970
 4712WAT      O15717   5.937   1.719   5.886
 4712WAT     H115718   5.963   1.715   5.793
 4712WAT     H215719   5.843   1.706   5.885
 4713WAT      O15720   5.646   0.354   5.552
 4713WAT     H115721   5.731   0.397   5.545
 4713WAT     H215722   5.609   0.385   5.635
 4714WAT      O15723   6.538   0.811   6.043
 4714WAT     H115724   6.444   0.812   6.061
 4714WAT     H215725   6.569   0.732   6.088
 4715WAT      O15726   5.536   0.979   5.399
 4715WAT     H115727   5.612   0.968   5.456
 4715WAT     H215728   5.544   0.909   5.334
 4716WAT      O15729   5.405   0.722   5.468
 4716WAT     H115730   5.413   0.627   5.479
 4716WAT     H215731   5.494   0.755   5.478
 4717WAT      O15732   6.738   1.528   6.211
 4717WAT     H115733   6.751   1.610   6.258
 4717WAT     H215734   6.825   1.507   6.176
 4718WAT      O15735   5.485   1.737   6.178
 4718WAT     H115736   5.559   1.682   6.205
 4718WAT     H215737   5.524   1.824   6.164
 4719WAT      O15738   5.174   1.344   5.765
 4719WAT     H115739   5.081   1.368   5.764
 4719WAT     H215740   5.220   1.427   5.753
 4720WAT      O15741   5.796   1.654   5.360
 4720WAT     H115742   5.876   1.683   5.315
 4720WAT     H215743   5.744   1.611   5.292
 4721WAT      O15744   6.702   1.577   5.503
 4721WAT     H115745   6.673   1.536   5.421
 4721WAT     H215746   6.682   1.670   5.491
 4722WAT      O15747   5.848   1.177   5.347
 4722WAT     H115748   5.838   1.115   5.419
 4722WAT     H215749   5.831   1.124   5.268
 4723WAT      O15750   6.172   1.083   5.407
 4723WAT     H115751   6.117   1.127   5.472
 4723WAT     H215752   6.234   1.032   5.459
 4724WAT      O15753   5.739   0.979   5.597
 4724WAT     H115754   5.781   0.962   5.681
 4724WAT     H215755   5.751   0.898   5.547
 4725WAT      O15756   5.990   0.881   5.322
 4725WAT     H115757   6.042   0.809   5.285
 4725WAT     H215758   6.055   0.945   5.352
 4726WAT      O15759   5.921   1.018   6.651
 4726WAT     H115760   5.963   1.103   6.634
 4726WAT     H215761   5.829   1.032   6.628
 4727WAT      O15762   5.629   0.586   5.291
 4727WAT     H115763   5.608   0.500   5.327
 4727WAT     H215764   5.611   0.577   5.198
 4728WAT      O15765   5.508   0.296   5.290
 4728WAT     H115766   5.539   0.297   5.199
 4728WAT     H215767   5.582   0.261   5.340
 4729WAT      O15768   6.047   1.689   5.551
 4729WAT     H115769   6.136   1.723   5.553
 4729WAT     H215770   6.050   1.617   5.488
 4730WAT      O15771   5.411   1.226   5.373
 4730WAT     H115772   5.454   1.281   5.439
 4730WAT     H215773   5.459   1.144   5.374
 4731WAT      O15774   5.132   1.505   6.119
 4731WAT     H115775   5.165   1.418   6.095
 4731WAT     H215776   5.175   1.526   6.202
 4732WAT      O15777   5.592   1.338   5.885
 4732WAT     H115778   5.562   1.326   5.975
 4732WAT     H215779   5.581   1.252   5.844
 4733WAT      O15780   5.181   1.592   6.392
 4733WAT     H115781   5.137   1.610   6.476
 4733WAT     H215782   5.238   1.668   6.378
 4734WAT      O15783   6.869   1.316   5.355
 4734WAT     H115784   6.786   1.323   5.402
 4734WAT     H215785   6.886   1.405   5.325
 4735WAT      O15786   6.814   0.991   5.605
 4735WAT     H115787   6.890   1.048   5.616
 4735WAT     H215788   6.816   0.934   5.682
 4736WAT      O15789   5.164   0.843   6.028
 4736WAT     H115790   5.099   0.816   5.964
 4736WAT     H215791   5.248   0.832   5.983
 4737WAT      O15792   6.915   1.076   6.090
 4737WAT     H115793   6.952   0.998   6.049
 4737WAT     H215794   6.979   1.145   6.072
 4738WAT      O15795   6.819   1.020   5.321
 4738WAT     H115796   6.847   1.111   5.308
 4738WAT     H215797   6.801   1.014   5.415
 4739WAT      O15798   6.459   0.323   5.450
 4739WAT     H115799   6.501   0.304   5.366
 4739WAT     H215800   6.429   0.237   5.482
 4740WAT      O15801   6.809   0.814   5.820
 4740WAT     H115802   6.772   0.737   5.777
 4740WAT     H215803   6.736   0.852   5.869
 4741WAT      O15804   5.268   0.882   6.482
 4741WAT     H115805   5.305   0.873   6.570
 4741WAT     H215806   5.211   0.805   6.472
 4742WAT      O15807   5.086   0.564   5.623
 4742WAT     H115808   4.995   0.590   5.605
 4742WAT     H215809   5.134   0.591   5.545
 4743WAT      O15810   6.737   0.636   6.150
 4743WAT     H115811   6.789   0.587   6.087
 4743WAT     H215812   6.795   0.650   6.225
 4744WAT      O15813   6.755   0.645   6.503
 4744WAT     H115814   6.660   0.641   6.514
 4744WAT     H215815   6.773   0.736   6.479
 4745WAT      O15816   5.340   0.470   5.414
 4745WAT     H115817   5.411   0.428   5.365
 4745WAT     H215818   5.268   0.477   5.350
 4746WAT      O15819   6.686   0.562   5.744
 4746WAT     H115820   6.735   0.539   5.823
 4746WAT     H215821   6.666   0.478   5.703
 4747WAT      O15822   6.828   0.426   5.998
 4747WAT     H115823   6.817   0.410   6.091
 4747WAT     H215824   6.905   0.373   5.973
 4748WAT      O15825   6.917   0.209   5.322
 4748WAT     H115826   7.010   0.196   5.301
 4748WAT     H215827   6.915   0.217   5.417
 4749WAT      O15828   6.925   0.286   5.584
 4749WAT     H115829   6.845   0.279   5.637
 4749WAT     H215830   6.945   0.379   5.583
 4750WAT      O15831   6.619   1.690   5.984
 4750WAT     H115832   6.679   1.658   5.916
 4750WAT     H215833   6.645   1.643   6.063
 4751WAT      O15834   5.780   1.489   6.559
 4751WAT     H115835   5.756   1.515   6.470
 4751WAT     H215836   5.874   1.506   6.564
 4752WAT      O15837   6.674   1.755   6.367
 4752WAT     H115838   6.628   1.830   6.329
 4752WAT     H215839   6.611   1.683   6.361
 4753WAT      O15840   5.357   1.364   6.606
 4753WAT     H115841   5.284   1.302   6.599
 4753WAT     H215842   5.363   1.404   6.519
 4754WAT      O15843   5.717   1.586   6.284
 4754WAT     H115844   5.769   1.525   6.232
 4754WAT     H215845   5.782   1.636   6.333
 4755WAT      O15846   5.991   1.675   6.367
 4755WAT     H115847   6.020   1.649   6.279
 4755WAT     H215848   6.042   1.620   6.426
 4756WAT      O15849   5.185   1.696   5.927
 4756WAT     H115850   5.168   1.633   5.996
 4756WAT     H215851   5.098   1.717   5.892
 4757WAT      O15852   5.901   0.291   5.976
 4757WAT     H115853   5.820   0.253   5.942
 4757WAT     H215854   5.952   0.215   6.006
 4758WAT      O15855   5.346   1.565   5.671
 4758WAT     H115856   5.293   1.603   5.601
 4758WAT     H215857   5.338   1.628   5.743
 4759WAT      O15858   6.821   1.721   5.803
 4759WAT     H115859   6.839   1.653   5.739
 4759WAT     H215860   6.751   1.774   5.764
 4760WAT      O15861   5.605   1.760   5.559
 4760WAT     H115862   5.679   1.732   5.504
 4760WAT     H215863   5.631   1.736   5.648
 4761WAT      O15864   5.522   1.372   5.559
 4761WAT     H115865   5.459   1.419   5.614
 4761WAT     H215866   5.533   1.287   5.602
 4762WAT      O15867   6.267   0.777   4.174
 4762WAT     H115868   6.259   0.685   4.147
 4762WAT     H215869   6.226   0.827   4.103
 4763WAT      O15870   6.080   0.955   4.362
 4763WAT     H115871   6.003   0.907   4.391
 4763WAT     H215872   6.145   0.887   4.345
 4764WAT      O15873   5.482   0.986   4.450
 4764WAT     H115874   5.399   0.960   4.490
 4764WAT     H215875   5.543   0.993   4.523
 4765WAT      O15876   6.482   1.395   4.240
 4765WAT     H115877   6.436   1.318   4.273
 4765WAT     H215878   6.564   1.398   4.291
 4766WAT      O15879   5.480   1.389   4.469
 4766WAT     H115880   5.510   1.300   4.452
 4766WAT     H215881   5.554   1.445   4.447
 4767WAT      O15882   5.323   0.482   3.828
 4767WAT     H115883   5.234   0.516   3.818
 4767WAT     H215884   5.351   0.462   3.739
 4768WAT      O15885   5.119   0.742   4.417
 4768WAT     H115886   5.176   0.665   4.417
 4768WAT     H215887   5.119   0.772   4.326
 4769WAT      O15888   6.105   1.624   4.202
 4769WAT     H115889   6.043   1.669   4.145
 4769WAT     H215890   6.190   1.639   4.162
 4770WAT      O15891   6.024   1.222   4.363
 4770WAT     H115892   6.017   1.128   4.347
 4770WAT     H215893   6.101   1.231   4.420
 4771WAT      O15894   5.243   0.283   4.595
 4771WAT     H115895   5.225   0.193   4.623
 4771WAT     H215896   5.203   0.337   4.663
 4772WAT      O15897   6.127   0.503   4.386
 4772WAT     H115898   6.165   0.416   4.374
 4772WAT     H215899   6.118   0.537   4.296
 4773WAT      O15900   5.540   0.340   3.932
 4773WAT     H115901   5.551   0.430   3.962
 4773WAT     H215902   5.449   0.335   3.903
 4774WAT      O15903   6.506   0.252   4.079
 4774WAT     H115904   6.588   0.203   4.083
 4774WAT     H215905   6.509   0.311   4.154
 4775WAT      O15906   5.305   0.532   4.456
 4775WAT     H115907   5.373   0.559   4.518
 4775WAT     H215908   5.274   0.448   4.490
 4776WAT      O15909   5.725   0.637   4.365
 4776WAT     H115910   5.775   0.687   4.429
 4776WAT     H215911   5.778   0.559   4.347
 4777WAT      O15912   6.935   0.454   4.735
 4777WAT     H115913   6.864   0.493   4.683
 4777WAT     H215914   6.961   0.524   4.795
 4778WAT      O15915   6.192   1.112   3.941
 4778WAT     H115916   6.130   1.159   3.885
 4778WAT     H215917   6.243   1.181   3.983
 4779WAT      O15918   5.678   1.065   4.609
 4779WAT     H115919   5.645   1.128   4.674
 4779WAT     H215920   5.696   1.118   4.531
 4780WAT      O15921   6.529   0.446   4.356
 4780WAT     H115922   6.459   0.475   4.414
 4780WAT     H215923   6.565   0.527   4.320
 4781WAT      O15924   5.521   0.272   4.592
 4781WAT     H115925   5.555   0.357   4.563
 4781WAT     H215926   5.427   0.287   4.604
 4782WAT      O15927   5.599   1.262   4.791
 4782WAT     H115928   5.661   1.329   4.763
 4782WAT     H215929   5.513   1.303   4.782
 4783WAT      O15930   5.128   1.181   3.679
 4783WAT     H115931   5.091   1.230   3.606
 4783WAT     H215932   5.154   1.248   3.742
 4784WAT      O15933   6.691   1.408   4.582
 4784WAT     H115934   6.623   1.475   4.582
 4784WAT     H215935   6.745   1.428   4.506
 4785WAT      O15936   6.836   0.391   4.395
 4785WAT     H115937   6.741   0.394   4.408
 4785WAT     H215938   6.869   0.472   4.434
 4786WAT      O15939   6.444   1.593   4.454
 4786WAT     H115940   6.446   1.552   4.367
 4786WAT     H215941   6.389   1.670   4.443
 4787WAT      O15942   6.574   1.265   3.963
 4787WAT     H115943   6.563   1.171   3.975
 4787WAT     H215944   6.574   1.301   4.051
 4788WAT      O15945   6.384   1.083   4.587
 4788WAT     H115946   6.426   1.062   4.503
 4788WAT     H215947   6.457   1.109   4.644
 4789WAT      O15948   6.128   0.827   3.898
 4789WAT     H115949   6.035   0.821   3.921
 4789WAT     H215950   6.143   0.921   3.887
 4790WAT      O15951   6.127   0.455   3.598
 4790WAT     H115952   6.033   0.471   3.607
 4790WAT     H215953   6.159   0.526   3.543
 4791WAT      O15954   6.779   0.923   4.596
 4791WAT     H115955   6.696   0.930   4.548
 4791WAT     H215956   6.838   0.981   4.549
 4792WAT      O15957   6.531   0.984   3.949
 4792WAT     H115958   6.469   0.950   3.884
 4792WAT     H215959   6.529   0.919   4.019
 4793WAT      O15960   6.475   0.601   4.690
 4793WAT     H115961   6.434   0.684   4.716
 4793WAT     H215962   6.402   0.543   4.671
 4794WAT      O15963   5.689   0.880   4.177
 4794WAT     H115964   5.648   0.809   4.127
 4794WAT     H215965   5.697   0.846   4.265
 4795WAT      O15966   5.736   1.249   4.393
 4795WAT     H115967   5.706   1.188   4.325
 4795WAT     H215968   5.831   1.253   4.382
 4796WAT      O15969   5.560   0.558   4.555
 4796WAT     H115970   5.615   0.568   4.477
 4796WAT     H215971   5.611   0.595   4.626
 4797WAT      O15972   6.544   1.606   4.759
 4797WAT     H115973   6.497   1.687   4.740
 4797WAT     H215974   6.476   1.541   4.774
 4798WAT      O15975   5.645   1.223   5.058
 4798WAT     H115976   5.555   1.245   5.083
 4798WAT     H215977   5.647   1.235   4.963
 4799WAT      O15978   6.349   0.908   3.649
 4799WAT     H115979   6.393   0.824   3.635
 4799WAT     H215980   6.420   0.971   3.658
 4800WAT      O15981   5.527   0.910   4.916
 4800WAT     H115982   5.513   0.997   4.952
 4800WAT     H215983   5.439   0.875   4.901
 4801WAT      O15984   6.160   1.401   4.046
 4801WAT     H115985   6.204   1.476   4.005
 4801WAT     H215986   6.154   1.426   4.139
 4802WAT      O15987   5.707   1.504   5.136
 4802WAT     H115988   5.704   1.544   5.050
 4802WAT     H215989   5.691   1.411   5.120
 4803WAT      O15990   5.359   0.770   3.927
 4803WAT     H115991   5.347   0.842   3.865
 4803WAT     H215992   5.328   0.693   3.879
 4804WAT      O15993   6.902   1.582   5.266
 4804WAT     H115994   6.950   1.630   5.334
 4804WAT     H215995   6.964   1.575   5.194
 4805WAT      O15996   5.123   1.087   4.507
 4805WAT     H115997   5.130   1.100   4.413
 4805WAT     H215998   5.184   1.016   4.527
 4806WAT      O15999   5.247   1.257   4.148
 4806WAT     H116000   5.206   1.271   4.063
 4806WAT     H216001   5.336   1.228   4.128
 4807WAT      O16002   6.843   1.301   4.982
 4807WAT     H116003   6.855   1.277   4.890
 4807WAT     H216004   6.847   1.218   5.029
 4808WAT      O16005   6.229   1.672   4.839
 4808WAT     H116006   6.280   1.663   4.919
 4808WAT     H216007   6.145   1.706   4.868
 4809WAT      O16008   6.426   1.700   3.782
 4809WAT     H116009   6.410   1.671   3.872
 4809WAT     H216010   6.410   1.623   3.728
 4810WAT      O16011   5.674   1.678   3.960
 4810WAT     H116012   5.657   1.586   3.938
 4810WAT     H216013   5.589   1.714   3.984
 4811WAT      O16014   6.397   1.451   3.638
 4811WAT     H116015   6.327   1.451   3.572
 4811WAT     H216016   6.471   1.409   3.595
 4812WAT      O16017   6.353   1.614   4.045
 4812WAT     H116018   6.399   1.536   4.077
 4812WAT     H216019   6.387   1.685   4.100
 4813WAT      O16020   6.828   0.507   5.079
 4813WAT     H116021   6.766   0.557   5.026
 4813WAT     H216022   6.796   0.417   5.073
 4814WAT      O16023   5.128   1.191   4.761
 4814WAT     H116024   5.144   1.144   4.679
 4814WAT     H216025   5.175   1.140   4.828
 4815WAT      O16026   6.034   0.391   4.825
 4815WAT     H116027   5.988   0.411   4.906
 4815WAT     H216028   5.994   0.309   4.795
 4816WAT      O16029   6.534   0.513   4.938
 4816WAT     H116030   6.449   0.483   4.970
 4816WAT     H216031   6.518   0.537   4.847
 4817WAT      O16032   6.244   0.663   5.148
 4817WAT     H116033   6.276   0.579   5.114
 4817WAT     H216034   6.322   0.715   5.163
 4818WAT      O16035   5.585   0.616   4.038
 4818WAT     H116036   5.562   0.595   4.128
 4818WAT     H216037   5.506   0.659   4.003
 4819WAT      O16038   6.307   0.617   3.898
 4819WAT     H116039   6.248   0.689   3.879
 4819WAT     H216040   6.362   0.611   3.819
 4820WAT      O16041   5.829   0.706   5.104
 4820WAT     H116042   5.819   0.612   5.089
 4820WAT     H216043   5.913   0.728   5.065
 4821WAT      O16044   6.168   0.480   4.101
 4821WAT     H116045   6.207   0.512   4.019
 4821WAT     H216046   6.204   0.393   4.112
 4822WAT      O16047   5.342   0.347   4.920
 4822WAT     H116048   5.302   0.432   4.940
 4822WAT     H216049   5.273   0.283   4.939
 4823WAT      O16050   5.999   0.356   5.227
 4823WAT     H116051   5.930   0.336   5.290
 4823WAT     H216052   6.073   0.384   5.280
 4824WAT      O16053   5.090   0.534   3.444
 4824WAT     H116054   5.082   0.628   3.458
 4824WAT     H216055   5.055   0.519   3.356
 4825WAT      O16056   6.227   0.740   4.510
 4825WAT     H116057   6.154   0.790   4.545
 4825WAT     H216058   6.187   0.658   4.480
 4826WAT      O16059   5.870   0.407   4.351
 4826WAT     H116060   5.871   0.363   4.266
 4826WAT     H216061   5.960   0.439   4.361
 4827WAT      O16062   5.455   0.395   4.247
 4827WAT     H116063   5.421   0.443   4.322
 4827WAT     H216064   5.379   0.350   4.211
 4828WAT      O16065   5.877   0.507   3.650
 4828WAT     H116066   5.889   0.503   3.745
 4828WAT     H216067   5.838   0.593   3.634
 4829WAT      O16068   6.273   0.285   4.451
 4829WAT     H116069   6.275   0.330   4.536
 4829WAT     H216070   6.248   0.195   4.473
 4830WAT      O16071   5.778   0.738   3.590
 4830WAT     H116072   5.721   0.693   3.527
 4830WAT     H216073   5.849   0.774   3.536
 4831WAT      O16074   5.286   1.128   4.977
 4831WAT     H116075   5.247   1.064   5.037
 4831WAT     H216076   5.317   1.199   5.034
 4832WAT      O16077   5.901   0.813   4.525
 4832WAT     H116078   5.937   0.766   4.600
 4832WAT     H216079   5.882   0.901   4.559
 4833WAT      O16080   5.187   0.288   4.138
 4833WAT     H116081   5.158   0.251   4.222
 4833WAT     H216082   5.181   0.214   4.077
 4834WAT      O16083   5.680   0.717   4.757
 4834WAT     H116084   5.649   0.805   4.780
 4834WAT     H216085   5.775   0.723   4.761
 4835WAT      O16086   5.532   1.138   3.817
 4835WAT     H116087   5.455   1.084   3.801
 4835WAT     H216088   5.605   1.086   3.783
 4836WAT      O16089   6.608   1.037   4.396
 4836WAT     H116090   6.680   1.087   4.357
 4836WAT     H216091   6.588   0.970   4.332
 4837WAT      O16092   6.154   0.177   3.810
 4837WAT     H116093   6.073   0.127   3.803
 4837WAT     H216094   6.135   0.261   3.769
 4838WAT      O16095   6.146   1.045   4.985
 4838WAT     H116096   6.140   0.952   4.959
 4838WAT     H216097   6.083   1.054   5.056
 4839WAT      O16098   6.426   0.614   3.640
 4839WAT     H116099   6.515   0.645   3.622
 4839WAT     H216100   6.423   0.527   3.601
 4840WAT      O16101   5.537   1.105   4.181
 4840WAT     H116102   5.589   1.024   4.175
 4840WAT     H216103   5.492   1.098   4.265
 4841WAT      O16104   6.025   1.231   3.708
 4841WAT     H116105   6.060   1.306   3.658
 4841WAT     H216106   5.943   1.263   3.744
 4842WAT      O16107   5.285   0.801   4.872
 4842WAT     H116108   5.249   0.868   4.931
 4842WAT     H216109   5.256   0.718   4.909
 4843WAT      O16110   5.605   0.847   5.160
 4843WAT     H116111   5.575   0.862   5.071
 4843WAT     H216112   5.682   0.791   5.151
 4844WAT      O16113   6.140   1.327   4.960
 4844WAT     H116114   6.141   1.234   4.938
 4844WAT     H216115   6.069   1.335   5.024
 4845WAT      O16116   6.653   0.745   3.587
 4845WAT     H116117   6.645   0.788   3.502
 4845WAT     H216118   6.725   0.791   3.630
 4846WAT      O16119   6.761   0.991   4.894
 4846WAT     H116120   6.688   1.050   4.875
 4846WAT     H216121   6.813   0.990   4.815
 4847WAT      O16122   6.756   1.431   3.860
 4847WAT     H116123   6.692   1.365   3.887
 4847WAT     H216124   6.717   1.471   3.782
 4848WAT      O16125   6.314   1.163   4.244
 4848WAT     H116126   6.349   1.104   4.178
 4848WAT     H216127   6.225   1.131   4.261
 4849WAT      O16128   5.922   1.239   3.985
 4849WAT     H116129   5.991   1.294   4.023
 4849WAT     H216130   5.844   1.294   3.989
 4850WAT      O16131   5.136   0.801   3.534
 4850WAT     H116132   5.223   0.829   3.563
 4850WAT     H216133   5.087   0.882   3.523
 4851WAT      O16134   5.853   0.940   3.946
 4851WAT     H116135   5.898   1.021   3.969
 4851WAT     H216136   5.817   0.908   4.029
 4852WAT      O16137   6.083   1.491   4.669
 4852WAT     H116138   6.147   1.512   4.737
 4852WAT     H216139   6.119   1.415   4.624
 4853WAT      O16140   6.210   1.291   4.541
 4853WAT     H116141   6.274   1.221   4.552
 4853WAT     H216142   6.263   1.369   4.523
 4854WAT      O16143   6.595   1.320   3.513
 4854WAT     H116144   6.572   1.248   3.573
 4854WAT     H216145   6.556   1.295   3.430
 4855WAT      O16146   6.388   1.371   4.861
 4855WAT     H116147   6.421   1.430   4.929
 4855WAT     H216148   6.296   1.358   4.884
 4856WAT      O16149   5.173   1.722   3.591
 4856WAT     H116150   5.209   1.782   3.525
 4856WAT     H216151   5.159   1.777   3.668
 4857WAT      O16152   6.553   1.111   3.679
 4857WAT     H116153   6.524   1.158   3.758
 4857WAT     H216154   6.632   1.065   3.706
 4858WAT      O16155   5.171   1.549   5.038
 4858WAT     H116156   5.182   1.455   5.024
 4858WAT     H216157   5.106   1.575   4.973
 4859WAT      O16158   5.971   1.376   5.178
 4859WAT     H116159   5.938   1.304   5.233
 4859WAT     H216160   5.903   1.444   5.186
 4860WAT      O16161   5.775   1.461   3.673
 4860WAT     H116162   5.774   1.534   3.611
 4860WAT     H216163   5.683   1.436   3.682
 4861WAT      O16164   5.335   0.983   3.747
 4861WAT     H116165   5.274   1.057   3.748
 4861WAT     H216166   5.382   0.992   3.664
 4862WAT      O16167   6.292   0.399   4.715
 4862WAT     H116168   6.329   0.317   4.747
 4862WAT     H216169   6.206   0.405   4.756
 4863WAT      O16170   6.629   0.295   3.795
 4863WAT     H116171   6.566   0.305   3.724
 4863WAT     H216172   6.579   0.317   3.874
 4864WAT      O16173   6.073   1.467   3.539
 4864WAT     H116174   6.083   1.447   3.446
 4864WAT     H216175   5.983   1.442   3.559
 4865WAT      O16176   5.826   0.523   3.937
 4865WAT     H116177   5.755   0.570   3.981
 4865WAT     H216178   5.854   0.457   4.000
 4866WAT      O16179   5.988   0.665   4.737
 4866WAT     H116180   6.038   0.712   4.803
 4866WAT     H216181   6.002   0.572   4.758
 4867WAT      O16182   6.229   0.195   4.081
 4867WAT     H116183   6.216   0.197   3.986
 4867WAT     H216184   6.324   0.200   4.093
 4868WAT      O16185   5.937   1.719   4.008
 4868WAT     H116186   5.963   1.715   3.916
 4868WAT     H216187   5.843   1.706   4.008
 4869WAT      O16188   5.646   0.354   3.675
 4869WAT     H116189   5.731   0.397   3.668
 4869WAT     H216190   5.609   0.385   3.757
 4870WAT      O16191   6.709   0.286   4.821
 4870WAT     H116192   6.658   0.360   4.855
 4870WAT     H216193   6.790   0.325   4.790
 4871WAT      O16194   6.538   0.811   4.166
 4871WAT     H116195   6.444   0.812   4.183
 4871WAT     H216196   6.569   0.732   4.210
 4872WAT      O16197   5.536   0.979   3.522
 4872WAT     H116198   5.612   0.968   3.578
 4872WAT     H216199   5.544   0.909   3.457
 4873WAT      O16200   5.405   0.722   3.590
 4873WAT     H116201   5.413   0.627   3.601
 4873WAT     H216202   5.494   0.755   3.601
 4874WAT      O16203   6.738   1.528   4.333
 4874WAT     H116204   6.751   1.610   4.381
 4874WAT     H216205   6.825   1.507   4.299
 4875WAT      O16206   5.485   1.737   4.301
 4875WAT     H116207   5.559   1.682   4.328
 4875WAT     H216208   5.524   1.824   4.287
 4876WAT      O16209   5.174   1.344   3.888
 4876WAT     H116210   5.081   1.368   3.887
 4876WAT     H216211   5.220   1.427   3.876
 4877WAT      O16212   5.386   1.656   5.219
 4877WAT     H116213   5.466   1.688   5.261
 4877WAT     H216214   5.334   1.620   5.292
 4878WAT      O16215   5.796   1.654   3.483
 4878WAT     H116216   5.876   1.683   3.438
 4878WAT     H216217   5.744   1.611   3.415
 4879WAT      O16218   6.270   1.266   5.214
 4879WAT     H116219   6.209   1.269   5.140
 4879WAT     H216220   6.239   1.193   5.268
 4880WAT      O16221   6.413   1.639   5.075
 4880WAT     H116222   6.508   1.631   5.070
 4880WAT     H216223   6.398   1.706   5.143
 4881WAT      O16224   6.702   1.577   3.625
 4881WAT     H116225   6.673   1.536   3.544
 4881WAT     H216226   6.682   1.670   3.613
 4882WAT      O16227   5.158   0.904   5.114
 4882WAT     H116228   5.208   0.846   5.171
 4882WAT     H216229   5.084   0.933   5.168
 4883WAT      O16230   5.848   1.177   3.469
 4883WAT     H116231   5.838   1.115   3.542
 4883WAT     H216232   5.831   1.124   3.391
 4884WAT      O16233   5.863   1.045   5.067
 4884WAT     H116234   5.787   1.102   5.059
 4884WAT     H216235   5.881   1.016   4.978
 4885WAT      O16236   6.172   1.083   3.530
 4885WAT     H116237   6.117   1.127   3.594
 4885WAT     H216238   6.234   1.032   3.582
 4886WAT      O16239   6.578   1.218   5.123
 4886WAT     H116240   6.652   1.252   5.073
 4886WAT     H216241   6.501   1.235   5.068
 4887WAT      O16242   5.361   0.719   5.203
 4887WAT     H116243   5.365   0.689   5.294
 4887WAT     H216244   5.447   0.759   5.187
 4888WAT      O16245   5.739   0.979   3.719
 4888WAT     H116246   5.781   0.962   3.804
 4888WAT     H216247   5.751   0.898   3.670
 4889WAT      O16248   5.555   0.577   5.000
 4889WAT     H116249   5.502   0.527   4.937
 4889WAT     H216250   5.622   0.619   4.947
 4890WAT      O16251   5.990   0.881   3.444
 4890WAT     H116252   6.042   0.809   3.407
 4890WAT     H216253   6.055   0.945   3.474
 4891WAT      O16254   6.445   1.023   4.976
 4891WAT     H116255   6.486   1.039   5.061
 4891WAT     H216256   6.352   1.036   4.993
 4892WAT      O16257   6.492   0.757   5.177
 4892WAT     H116258   6.550   0.682   5.168
 4892WAT     H216259   6.510   0.810   5.099
 4893WAT      O16260   5.604   0.273   5.008
 4893WAT     H116261   5.595   0.211   4.936
 4893WAT     H216262   5.546   0.346   4.985
 4894WAT      O16263   5.921   1.018   4.773
 4894WAT     H116264   5.963   1.103   4.756
 4894WAT     H216265   5.829   1.032   4.750
 4895WAT      O16266   6.155   0.792   4.912
 4895WAT     H116267   6.167   0.732   4.986
 4895WAT     H216268   6.241   0.795   4.870
 4896WAT      O16269   6.389   0.847   4.769
 4896WAT     H116270   6.336   0.899   4.709
 4896WAT     H216271   6.423   0.910   4.832
 4897WAT      O16272   5.629   0.586   3.414
 4897WAT     H116273   5.608   0.500   3.450
 4897WAT     H216274   5.611   0.577   3.320
 4898WAT      O16275   5.706   1.649   4.885
 4898WAT     H116276   5.652   1.721   4.853
 4898WAT     H216277   5.732   1.601   4.806
 4899WAT      O16278   5.832   0.446   5.038
 4899WAT     H116279   5.890   0.415   5.106
 4899WAT     H216280   5.750   0.399   5.053
 4900WAT      O16281   6.313   0.408   5.061
 4900WAT     H116282   6.245   0.341   5.054
 4900WAT     H216283   6.385   0.363   5.105
 4901WAT      O16284   5.508   0.296   3.413
 4901WAT     H116285   5.539   0.297   3.322
 4901WAT     H216286   5.582   0.261   3.462
 4902WAT      O16287   5.992   1.773   4.911
 4902WAT     H116288   5.984   1.863   4.942
 4902WAT     H216289   5.902   1.741   4.908
 4903WAT      O16290   6.047   1.689   3.673
 4903WAT     H116291   6.136   1.723   3.675
 4903WAT     H216292   6.050   1.617   3.610
 4904WAT      O16293   5.411   1.226   3.496
 4904WAT     H116294   5.454   1.281   3.562
 4904WAT     H216295   5.459   1.144   3.497
 4905WAT      O16296   5.132   1.505   4.241
 4905WAT     H116297   5.165   1.418   4.218
 4905WAT     H216298   5.175   1.526   4.324
 4906WAT      O16299   5.592   1.338   4.007
 4906WAT     H116300   5.562   1.326   4.097
 4906WAT     H216301   5.581   1.252   3.966
 4907WAT      O16302   5.181   1.592   4.515
 4907WAT     H116303   5.137   1.610   4.598
 4907WAT     H216304   5.238   1.668   4.501
 4908WAT      O16305   6.745   1.542   4.944
 4908WAT     H116306   6.685   1.548   4.869
 4908WAT     H216307   6.758   1.448   4.957
 4909WAT      O16308   6.869   1.316   3.477
 4909WAT     H116309   6.786   1.323   3.525
 4909WAT     H216310   6.886   1.405   3.447
 4910WAT      O16311   6.814   0.991   3.728
 4910WAT     H116312   6.890   1.048   3.738
 4910WAT     H216313   6.816   0.934   3.805
 4911WAT      O16314   5.164   0.843   4.151
 4911WAT     H116315   5.099   0.816   4.086
 4911WAT     H216316   5.248   0.832   4.106
 4912WAT      O16317   6.915   1.076   4.212
 4912WAT     H116318   6.952   0.998   4.172
 4912WAT     H216319   6.979   1.145   4.194
 4913WAT      O16320   6.613   1.215   4.754
 4913WAT     H116321   6.532   1.258   4.780
 4913WAT     H216322   6.654   1.276   4.692
 4914WAT      O16323   6.819   1.020   3.444
 4914WAT     H116324   6.847   1.111   3.431
 4914WAT     H216325   6.801   1.014   3.537
 4915WAT      O16326   6.459   0.323   3.573
 4915WAT     H116327   6.501   0.304   3.489
 4915WAT     H216328   6.429   0.237   3.604
 4916WAT      O16329   6.809   0.814   3.943
 4916WAT     H116330   6.772   0.737   3.900
 4916WAT     H216331   6.736   0.852   3.992
 4917WAT      O16332   5.268   0.882   4.605
 4917WAT     H116333   5.305   0.873   4.693
 4917WAT     H216334   5.211   0.805   4.595
 4918WAT      O16335   6.748   0.729   4.906
 4918WAT     H116336   6.725   0.706   4.816
 4918WAT     H216337   6.774   0.821   4.902
 4919WAT      O16338   5.223   0.573   4.995
 4919WAT     H116339   5.134   0.569   5.029
 4919WAT     H216340   5.277   0.593   5.072
 4920WAT      O16341   6.592   0.251   5.184
 4920WAT     H116342   6.680   0.252   5.222
 4920WAT     H216343   6.593   0.177   5.123
 4921WAT      O16344   5.086   0.564   3.745
 4921WAT     H116345   4.995   0.590   3.728
 4921WAT     H216346   5.134   0.591   3.667
 4922WAT      O16347   6.737   0.636   4.273
 4922WAT     H116348   6.789   0.587   4.210
 4922WAT     H216349   6.795   0.650   4.347
 4923WAT      O16350   6.755   0.645   4.625
 4923WAT     H116351   6.660   0.641   4.637
 4923WAT     H216352   6.773   0.736   4.602
 4924WAT      O16353   5.340   0.470   3.536
 4924WAT     H116354   5.411   0.428   3.488
 4924WAT     H216355   5.268   0.477   3.473
 4925WAT      O16356   6.686   0.562   3.867
 4925WAT     H116357   6.735   0.539   3.945
 4925WAT     H216358   6.666   0.478   3.825
 4926WAT      O16359   6.828   0.426   4.120
 4926WAT     H116360   6.817   0.410   4.214
 4926WAT     H216361   6.905   0.373   4.096
 4927WAT      O16362   6.917   0.209   3.444
 4927WAT     H116363   7.010   0.196   3.423
 4927WAT     H216364   6.915   0.217   3.540
 4928WAT      O16365   6.925   0.286   3.707
 4928WAT     H116366   6.845   0.279   3.760
 4928WAT     H216367   6.945   0.379   3.706
 4929WAT      O16368   6.619   1.690   4.106
 4929WAT     H116369   6.679   1.658   4.039
 4929WAT     H216370   6.645   1.643   4.185
 4930WAT      O16371   5.410   1.333   5.121
 4930WAT     H116372   5.405   1.296   5.209
 4930WAT     H216373   5.423   1.427   5.135
 4931WAT      O16374   5.780   1.489   4.681
 4931WAT     H116375   5.756   1.515   4.593
 4931WAT     H216376   5.874   1.506   4.687
 4932WAT      O16377   6.906   1.691   4.761
 4932WAT     H116378   6.856   1.730   4.690
 4932WAT     H216379   6.845   1.628   4.801
 4933WAT      O16380   5.393   1.628   4.833
 4933WAT     H116381   5.334   1.615   4.907
 4933WAT     H216382   5.393   1.544   4.787
 4934WAT      O16383   6.674   1.755   4.489
 4934WAT     H116384   6.628   1.830   4.452
 4934WAT     H216385   6.611   1.683   4.483
 4935WAT      O16386   5.357   1.364   4.728
 4935WAT     H116387   5.284   1.302   4.721
 4935WAT     H216388   5.363   1.404   4.641
 4936WAT      O16389   5.717   1.586   4.407
 4936WAT     H116390   5.769   1.525   4.354
 4936WAT     H216391   5.782   1.636   4.456
 4937WAT      O16392   5.991   1.675   4.489
 4937WAT     H116393   6.020   1.649   4.402
 4937WAT     H216394   6.042   1.620   4.548
 4938WAT      O16395   5.185   1.696   4.049
 4938WAT     H116396   5.168   1.633   4.119
 4938WAT     H216397   5.098   1.717   4.014
 4939WAT      O16398   5.901   0.291   4.098
 4939WAT     H116399   5.820   0.253   4.064
 4939WAT     H216400   5.952   0.215   4.129
 4940WAT      O16401   5.346   1.565   3.794
 4940WAT     H116402   5.293   1.603   3.723
 4940WAT     H216403   5.338   1.628   3.866
 4941WAT      O16404   5.998   1.767   5.226
 4941WAT     H116405   6.090   1.743   5.230
 4941WAT     H216406   5.996   1.850   5.178
 4942WAT      O16407   6.821   1.721   3.926
 4942WAT     H116408   6.839   1.653   3.861
 4942WAT     H216409   6.751   1.774   3.887
 4943WAT      O16410   5.605   1.760   3.681
 4943WAT     H116411   5.679   1.732   3.626
 4943WAT     H216412   5.631   1.736   3.770
 4944WAT      O16413   5.522   1.372   3.682
 4944WAT     H116414   5.459   1.419   3.736
 4944WAT     H216415   5.533   1.287   3.725
 4945WAT      O16416   6.654   1.690   5.208
 4945WAT     H116417   6.734   1.640   5.188
 4945WAT     H216418   6.684   1.758   5.269
 4946WAT      O16419   6.267   0.777   2.297
 4946WAT     H116420   6.259   0.685   2.270
 4946WAT     H216421   6.226   0.827   2.226
 4947WAT      O16422   6.080   0.955   2.485
 4947WAT     H116423   6.003   0.907   2.514
 4947WAT     H216424   6.145   0.887   2.467
 4948WAT      O16425   5.482   0.986   2.572
 4948WAT     H116426   5.399   0.960   2.612
 4948WAT     H216427   5.543   0.993   2.646
 4949WAT      O16428   6.482   1.395   2.363
 4949WAT     H116429   6.436   1.318   2.396
 4949WAT     H216430   6.564   1.398   2.413
 4950WAT      O16431   5.480   1.389   2.592
 4950WAT     H116432   5.510   1.300   2.574
 4950WAT     H216433   5.554   1.445   2.569
 4951WAT      O16434   5.323   0.482   1.951
 4951WAT     H116435   5.234   0.516   1.941
 4951WAT     H216436   5.351   0.462   1.862
 4952WAT      O16437   5.119   0.742   2.539
 4952WAT     H116438   5.176   0.665   2.539
 4952WAT     H216439   5.119   0.772   2.448
 4953WAT      O16440   6.105   1.624   2.325
 4953WAT     H116441   6.043   1.669   2.268
 4953WAT     H216442   6.190   1.639   2.285
 4954WAT      O16443   6.024   1.222   2.485
 4954WAT     H116444   6.017   1.128   2.469
 4954WAT     H216445   6.101   1.231   2.543
 4955WAT      O16446   5.243   0.283   2.718
 4955WAT     H116447   5.225   0.193   2.746
 4955WAT     H216448   5.203   0.337   2.785
 4956WAT      O16449   6.127   0.503   2.508
 4956WAT     H116450   6.165   0.416   2.497
 4956WAT     H216451   6.118   0.537   2.419
 4957WAT      O16452   5.540   0.340   2.054
 4957WAT     H116453   5.551   0.430   2.085
 4957WAT     H216454   5.449   0.335   2.025
 4958WAT      O16455   6.506   0.252   2.201
 4958WAT     H116456   6.588   0.203   2.206
 4958WAT     H216457   6.509   0.311   2.277
 4959WAT      O16458   5.305   0.532   2.579
 4959WAT     H116459   5.373   0.559   2.641
 4959WAT     H216460   5.274   0.448   2.612
 4960WAT      O16461   5.725   0.637   2.488
 4960WAT     H116462   5.775   0.687   2.552
 4960WAT     H216463   5.778   0.559   2.470
 4961WAT      O16464   6.935   0.454   2.858
 4961WAT     H116465   6.864   0.493   2.806
 4961WAT     H216466   6.961   0.524   2.918
 4962WAT      O16467   6.192   1.112   2.064
 4962WAT     H116468   6.130   1.159   2.008
 4962WAT     H216469   6.243   1.181   2.106
 4963WAT      O16470   5.678   1.065   2.732
 4963WAT     H116471   5.645   1.128   2.796
 4963WAT     H216472   5.696   1.118   2.654
 4964WAT      O16473   6.529   0.446   2.479
 4964WAT     H116474   6.459   0.475   2.537
 4964WAT     H216475   6.565   0.527   2.443
 4965WAT      O16476   5.521   0.272   2.715
 4965WAT     H116477   5.555   0.357   2.685
 4965WAT     H216478   5.427   0.287   2.727
 4966WAT      O16479   5.599   1.262   2.913
 4966WAT     H116480   5.661   1.329   2.885
 4966WAT     H216481   5.513   1.303   2.904
 4967WAT      O16482   5.128   1.181   1.801
 4967WAT     H116483   5.091   1.230   1.728
 4967WAT     H216484   5.154   1.248   1.865
 4968WAT      O16485   6.691   1.408   2.705
 4968WAT     H116486   6.623   1.475   2.704
 4968WAT     H216487   6.745   1.428   2.628
 4969WAT      O16488   6.836   0.391   2.518
 4969WAT     H116489   6.741   0.394   2.531
 4969WAT     H216490   6.869   0.472   2.556
 4970WAT      O16491   6.444   1.593   2.576
 4970WAT     H116492   6.446   1.552   2.490
 4970WAT     H216493   6.389   1.670   2.566
 4971WAT      O16494   6.574   1.265   2.085
 4971WAT     H116495   6.563   1.171   2.098
 4971WAT     H216496   6.574   1.301   2.174
 4972WAT      O16497   6.384   1.083   2.709
 4972WAT     H116498   6.426   1.062   2.626
 4972WAT     H216499   6.457   1.109   2.766
 4973WAT      O16500   6.128   0.827   2.021
 4973WAT     H116501   6.035   0.821   2.044
 4973WAT     H216502   6.143   0.921   2.009
 4974WAT      O16503   6.127   0.455   1.721
 4974WAT     H116504   6.033   0.471   1.729
 4974WAT     H216505   6.159   0.526   1.666
 4975WAT      O16506   6.779   0.923   2.718
 4975WAT     H116507   6.696   0.930   2.671
 4975WAT     H216508   6.838   0.981   2.672
 4976WAT      O16509   6.531   0.984   2.071
 4976WAT     H116510   6.469   0.950   2.007
 4976WAT     H216511   6.529   0.919   2.142
 4977WAT      O16512   6.475   0.601   2.813
 4977WAT     H116513   6.434   0.684   2.838
 4977WAT     H216514   6.402   0.543   2.794
 4978WAT      O16515   5.689   0.880   2.299
 4978WAT     H116516   5.648   0.809   2.250
 4978WAT     H216517   5.697   0.846   2.388
 4979WAT      O16518   5.736   1.249   2.515
 4979WAT     H116519   5.706   1.188   2.448
 4979WAT     H216520   5.831   1.253   2.504
 4980WAT      O16521   5.560   0.558   2.677
 4980WAT     H116522   5.615   0.568   2.600
 4980WAT     H216523   5.611   0.595   2.749
 4981WAT      O16524   6.544   1.606   2.882
 4981WAT     H116525   6.497   1.687   2.862
 4981WAT     H216526   6.476   1.541   2.897
 4982WAT      O16527   5.645   1.223   3.181
 4982WAT     H116528   5.555   1.245   3.205
 4982WAT     H216529   5.647   1.235   3.086
 4983WAT      O16530   6.349   0.908   1.772
 4983WAT     H116531   6.393   0.824   1.757
 4983WAT     H216532   6.420   0.971   1.781
 4984WAT      O16533   5.527   0.910   3.038
 4984WAT     H116534   5.513   0.997   3.075
 4984WAT     H216535   5.439   0.875   3.024
 4985WAT      O16536   6.160   1.401   2.169
 4985WAT     H116537   6.204   1.476   2.127
 4985WAT     H216538   6.154   1.426   2.261
 4986WAT      O16539   5.707   1.504   3.259
 4986WAT     H116540   5.704   1.544   3.172
 4986WAT     H216541   5.691   1.411   3.243
 4987WAT      O16542   5.359   0.770   2.049
 4987WAT     H116543   5.347   0.842   1.988
 4987WAT     H216544   5.328   0.693   2.001
 4988WAT      O16545   6.902   1.582   3.389
 4988WAT     H116546   6.950   1.630   3.457
 4988WAT     H216547   6.964   1.575   3.316
 4989WAT      O16548   5.123   1.087   2.630
 4989WAT     H116549   5.130   1.100   2.535
 4989WAT     H216550   5.184   1.016   2.649
 4990WAT      O16551   5.247   1.257   2.271
 4990WAT     H116552   5.206   1.271   2.185
 4990WAT     H216553   5.336   1.228   2.251
 4991WAT      O16554   6.843   1.301   3.105
 4991WAT     H116555   6.855   1.277   3.013
 4991WAT     H216556   6.847   1.218   3.152
 4992WAT      O16557   6.229   1.672   2.962
 4992WAT     H116558   6.280   1.663   3.042
 4992WAT     H216559   6.145   1.706   2.991
 4993WAT      O16560   6.426   1.700   1.904
 4993WAT     H116561   6.410   1.671   1.994
 4993WAT     H216562   6.410   1.623   1.851
 4994WAT      O16563   5.674   1.678   2.082
 4994WAT     H116564   5.657   1.586   2.061
 4994WAT     H216565   5.589   1.714   2.106
 4995WAT      O16566   6.397   1.451   1.760
 4995WAT     H116567   6.327   1.451   1.694
 4995WAT     H216568   6.471   1.409   1.717
 4996WAT      O16569   6.353   1.614   2.168
 4996WAT     H116570   6.399   1.536   2.199
 4996WAT     H216571   6.387   1.685   2.222
 4997WAT      O16572   6.828   0.507   3.201
 4997WAT     H116573   6.766   0.557   3.148
 4997WAT     H216574   6.796   0.417   3.195
 4998WAT      O16575   5.128   1.191   2.884
 4998WAT     H116576   5.144   1.144   2.802
 4998WAT     H216577   5.175   1.140   2.950
 4999WAT      O16578   6.034   0.391   2.948
 4999WAT     H116579   5.988   0.411   3.029
 4999WAT     H216580   5.994   0.309   2.917
 5000WAT      O16581   6.534   0.513   3.061
 5000WAT     H116582   6.449   0.483   3.093
 5000WAT     H216583   6.518   0.537   2.970
 5001WAT      O16584   6.244   0.663   3.271
 5001WAT     H116585   6.276   0.579   3.237
 5001WAT     H216586   6.322   0.715   3.285
 5002WAT      O16587   5.585   0.616   2.160
 5002WAT     H116588   5.562   0.595   2.251
 5002WAT     H216589   5.506   0.659   2.126
 5003WAT      O16590   6.307   0.617   2.020
 5003WAT     H116591   6.248   0.689   2.002
 5003WAT     H216592   6.362   0.611   1.942
 5004WAT      O16593   5.829   0.706   3.227
 5004WAT     H116594   5.819   0.612   3.212
 5004WAT     H216595   5.913   0.728   3.187
 5005WAT      O16596   6.168   0.480   2.223
 5005WAT     H116597   6.207   0.512   2.142
 5005WAT     H216598   6.204   0.393   2.235
 5006WAT      O16599   5.342   0.347   3.042
 5006WAT     H116600   5.302   0.432   3.063
 5006WAT     H216601   5.273   0.283   3.061
 5007WAT      O16602   5.999   0.356   3.349
 5007WAT     H116603   5.930   0.336   3.413
 5007WAT     H216604   6.073   0.384   3.402
 5008WAT      O16605   5.090   0.534   1.566
 5008WAT     H116606   5.082   0.628   1.581
 5008WAT     H216607   5.055   0.519   1.479
 5009WAT      O16608   6.227   0.740   2.633
 5009WAT     H116609   6.154   0.790   2.668
 5009WAT     H216610   6.187   0.658   2.603
 5010WAT      O16611   5.870   0.407   2.473
 5010WAT     H116612   5.871   0.363   2.388
 5010WAT     H216613   5.960   0.439   2.484
 5011WAT      O16614   5.455   0.395   2.369
 5011WAT     H116615   5.421   0.443   2.445
 5011WAT     H216616   5.379   0.350   2.333
 5012WAT      O16617   5.877   0.507   1.772
 5012WAT     H116618   5.889   0.503   1.867
 5012WAT     H216619   5.838   0.593   1.757
 5013WAT      O16620   6.273   0.285   2.574
 5013WAT     H116621   6.275   0.330   2.658
 5013WAT     H216622   6.248   0.195   2.595
 5014WAT      O16623   5.778   0.738   1.712
 5014WAT     H116624   5.721   0.693   1.649
 5014WAT     H216625   5.849   0.774   1.659
 5015WAT      O16626   5.286   1.128   3.100
 5015WAT     H116627   5.247   1.064   3.160
 5015WAT     H216628   5.317   1.199   3.157
 5016WAT      O16629   5.901   0.813   2.648
 5016WAT     H116630   5.937   0.766   2.722
 5016WAT     H216631   5.882   0.901   2.682
 5017WAT      O16632   5.187   0.288   2.261
 5017WAT     H116633   5.158   0.251   2.345
 5017WAT     H216634   5.181   0.214   2.199
 5018WAT      O16635   5.680   0.717   2.880
 5018WAT     H116636   5.649   0.805   2.902
 5018WAT     H216637   5.775   0.723   2.883
 5019WAT      O16638   5.532   1.138   1.939
 5019WAT     H116639   5.455   1.084   1.923
 5019WAT     H216640   5.605   1.086   1.906
 5020WAT      O16641   6.608   1.037   2.519
 5020WAT     H116642   6.680   1.087   2.480
 5020WAT     H216643   6.588   0.970   2.454
 5021WAT      O16644   6.154   0.177   1.933
 5021WAT     H116645   6.073   0.127   1.925
 5021WAT     H216646   6.135   0.261   1.891
 5022WAT      O16647   6.146   1.045   3.107
 5022WAT     H116648   6.140   0.952   3.082
 5022WAT     H216649   6.083   1.054   3.179
 5023WAT      O16650   6.426   0.614   1.763
 5023WAT     H116651   6.515   0.645   1.745
 5023WAT     H216652   6.423   0.527   1.723
 5024WAT      O16653   5.537   1.105   2.303
 5024WAT     H116654   5.589   1.024   2.298
 5024WAT     H216655   5.492   1.098   2.387
 5025WAT      O16656   6.025   1.231   1.830
 5025WAT     H116657   6.060   1.306   1.781
 5025WAT     H216658   5.943   1.263   1.867
 5026WAT      O16659   5.285   0.801   2.994
 5026WAT     H116660   5.249   0.868   3.053
 5026WAT     H216661   5.256   0.718   3.032
 5027WAT      O16662   5.605   0.847   3.283
 5027WAT     H116663   5.575   0.862   3.193
 5027WAT     H216664   5.682   0.791   3.274
 5028WAT      O16665   6.140   1.327   3.082
 5028WAT     H116666   6.141   1.234   3.061
 5028WAT     H216667   6.069   1.335   3.146
 5029WAT      O16668   6.653   0.745   1.709
 5029WAT     H116669   6.645   0.788   1.624
 5029WAT     H216670   6.725   0.791   1.753
 5030WAT      O16671   6.761   0.991   3.017
 5030WAT     H116672   6.688   1.050   2.997
 5030WAT     H216673   6.813   0.990   2.937
 5031WAT      O16674   6.756   1.431   1.982
 5031WAT     H116675   6.692   1.365   2.010
 5031WAT     H216676   6.717   1.471   1.905
 5032WAT      O16677   6.314   1.163   2.367
 5032WAT     H116678   6.349   1.104   2.301
 5032WAT     H216679   6.225   1.131   2.384
 5033WAT      O16680   5.922   1.239   2.108
 5033WAT     H116681   5.991   1.294   2.146
 5033WAT     H216682   5.844   1.294   2.111
 5034WAT      O16683   5.136   0.801   1.657
 5034WAT     H116684   5.223   0.829   1.685
 5034WAT     H216685   5.087   0.882   1.645
 5035WAT      O16686   5.853   0.940   2.069
 5035WAT     H116687   5.898   1.021   2.091
 5035WAT     H216688   5.817   0.908   2.152
 5036WAT      O16689   6.083   1.491   2.792
 5036WAT     H116690   6.147   1.512   2.859
 5036WAT     H216691   6.119   1.415   2.746
 5037WAT      O16692   6.210   1.291   2.664
 5037WAT     H116693   6.274   1.221   2.675
 5037WAT     H216694   6.263   1.369   2.645
 5038WAT      O16695   6.595   1.320   1.636
 5038WAT     H116696   6.572   1.248   1.695
 5038WAT     H216697   6.556   1.295   1.552
 5039WAT      O16698   6.388   1.371   2.984
 5039WAT     H116699   6.421   1.430   3.052
 5039WAT     H216700   6.296   1.358   3.007
 5040WAT      O16701   5.173   1.722   1.713
 5040WAT     H116702   5.209   1.782   1.648
 5040WAT     H216703   5.159   1.777   1.791
 5041WAT      O16704   6.553   1.111   1.802
 5041WAT     H116705   6.524   1.158   1.881
 5041WAT     H216706   6.632   1.065   1.829
 5042WAT      O16707   5.171   1.549   3.161
 5042WAT     H116708   5.182   1.455   3.147
 5042WAT     H216709   5.106   1.575   3.096
 5043WAT      O16710   5.971   1.376   3.301
 5043WAT     H116711   5.938   1.304   3.355
 5043WAT     H216712   5.903   1.444   3.308
 5044WAT      O16713   5.775   1.461   1.795
 5044WAT     H116714   5.774   1.534   1.734
 5044WAT     H216715   5.683   1.436   1.804
 5045WAT      O16716   5.335   0.983   1.870
 5045WAT     H116717   5.274   1.057   1.871
 5045WAT     H216718   5.382   0.992   1.787
 5046WAT      O16719   6.292   0.399   2.837
 5046WAT     H116720   6.329   0.317   2.870
 5046WAT     H216721   6.206   0.405   2.879
 5047WAT      O16722   6.629   0.295   1.918
 5047WAT     H116723   6.566   0.305   1.847
 5047WAT     H216724   6.579   0.317   1.997
 5048WAT      O16725   6.073   1.467   1.661
 5048WAT     H116726   6.083   1.447   1.568
 5048WAT     H216727   5.983   1.442   1.682
 5049WAT      O16728   5.826   0.523   2.060
 5049WAT     H116729   5.755   0.570   2.104
 5049WAT     H216730   5.854   0.457   2.123
 5050WAT      O16731   5.988   0.665   2.860
 5050WAT     H116732   6.038   0.712   2.926
 5050WAT     H216733   6.002   0.572   2.880
 5051WAT      O16734   6.229   0.195   2.204
 5051WAT     H116735   6.216   0.197   2.109
 5051WAT     H216736   6.324   0.200   2.216
 5052WAT      O16737   5.937   1.719   2.131
 5052WAT     H116738   5.963   1.715   2.039
 5052WAT     H216739   5.843   1.706   2.130
 5053WAT      O16740   5.646   0.354   1.797
 5053WAT     H116741   5.731   0.397   1.790
 5053WAT     H216742   5.609   0.385   1.880
 5054WAT      O16743   6.709   0.286   2.944
 5054WAT     H116744   6.658   0.360   2.978
 5054WAT     H216745   6.790   0.325   2.912
 5055WAT      O16746   6.538   0.811   2.288
 5055WAT     H116747   6.444   0.812   2.306
 5055WAT     H216748   6.569   0.732   2.333
 5056WAT      O16749   5.536   0.979   1.644
 5056WAT     H116750   5.612   0.968   1.701
 5056WAT     H216751   5.544   0.909   1.579
 5057WAT      O16752   5.405   0.722   1.713
 5057WAT     H116753   5.413   0.627   1.724
 5057WAT     H216754   5.494   0.755   1.723
 5058WAT      O16755   6.738   1.528   2.456
 5058WAT     H116756   6.751   1.610   2.503
 5058WAT     H216757   6.825   1.507   2.421
 5059WAT      O16758   5.485   1.737   2.423
 5059WAT     H116759   5.559   1.682   2.450
 5059WAT     H216760   5.524   1.824   2.409
 5060WAT      O16761   5.174   1.344   2.011
 5060WAT     H116762   5.081   1.368   2.010
 5060WAT     H216763   5.220   1.427   1.998
 5061WAT      O16764   5.386   1.656   3.342
 5061WAT     H116765   5.466   1.688   3.383
 5061WAT     H216766   5.334   1.620   3.414
 5062WAT      O16767   5.796   1.654   1.605
 5062WAT     H116768   5.876   1.683   1.560
 5062WAT     H216769   5.744   1.611   1.538
 5063WAT      O16770   6.270   1.266   3.337
 5063WAT     H116771   6.209   1.269   3.263
 5063WAT     H216772   6.239   1.193   3.390
 5064WAT      O16773   6.413   1.639   3.198
 5064WAT     H116774   6.508   1.631   3.193
 5064WAT     H216775   6.398   1.706   3.265
 5065WAT      O16776   6.702   1.577   1.748
 5065WAT     H116777   6.673   1.536   1.666
 5065WAT     H216778   6.682   1.670   1.736
 5066WAT      O16779   5.158   0.904   3.236
 5066WAT     H116780   5.208   0.846   3.294
 5066WAT     H216781   5.084   0.933   3.290
 5067WAT      O16782   5.848   1.177   1.592
 5067WAT     H116783   5.838   1.115   1.664
 5067WAT     H216784   5.831   1.124   1.513
 5068WAT      O16785   5.863   1.045   3.190
 5068WAT     H116786   5.787   1.102   3.181
 5068WAT     H216787   5.881   1.016   3.100
 5069WAT      O16788   6.172   1.083   1.652
 5069WAT     H116789   6.117   1.127   1.717
 5069WAT     H216790   6.234   1.032   1.705
 5070WAT      O16791   6.578   1.218   3.245
 5070WAT     H116792   6.652   1.252   3.195
 5070WAT     H216793   6.501   1.235   3.190
 5071WAT      O16794   5.361   0.719   3.326
 5071WAT     H116795   5.365   0.689   3.417
 5071WAT     H216796   5.447   0.759   3.310
 5072WAT      O16797   5.739   0.979   1.842
 5072WAT     H116798   5.781   0.962   1.926
 5072WAT     H216799   5.751   0.898   1.792
 5073WAT      O16800   5.555   0.577   3.123
 5073WAT     H116801   5.502   0.527   3.060
 5073WAT     H216802   5.622   0.619   3.069
 5074WAT      O16803   5.990   0.881   1.567
 5074WAT     H116804   6.042   0.809   1.530
 5074WAT     H216805   6.055   0.945   1.597
 5075WAT      O16806   6.445   1.023   3.099
 5075WAT     H116807   6.486   1.039   3.184
 5075WAT     H216808   6.352   1.036   3.115
 5076WAT      O16809   6.492   0.757   3.299
 5076WAT     H116810   6.550   0.682   3.291
 5076WAT     H216811   6.510   0.810   3.222
 5077WAT      O16812   5.604   0.273   3.131
 5077WAT     H116813   5.595   0.211   3.058
 5077WAT     H216814   5.546   0.346   3.108
 5078WAT      O16815   5.921   1.018   2.896
 5078WAT     H116816   5.963   1.103   2.879
 5078WAT     H216817   5.829   1.032   2.873
 5079WAT      O16818   6.155   0.792   3.034
 5079WAT     H116819   6.167   0.732   3.108
 5079WAT     H216820   6.241   0.795   2.992
 5080WAT      O16821   6.389   0.847   2.892
 5080WAT     H116822   6.336   0.899   2.832
 5080WAT     H216823   6.423   0.910   2.955
 5081WAT      O16824   5.629   0.586   1.536
 5081WAT     H116825   5.608   0.500   1.573
 5081WAT     H216826   5.611   0.577   1.443
 5082WAT      O16827   5.706   1.649   3.008
 5082WAT     H116828   5.652   1.721   2.976
 5082WAT     H216829   5.732   1.601   2.929
 5083WAT      O16830   5.832   0.446   3.160
 5083WAT     H116831   5.890   0.415   3.229
 5083WAT     H216832   5.750   0.399   3.176
 5084WAT      O16833   6.313   0.408   3.183
 5084WAT     H116834   6.245   0.341   3.177
 5084WAT     H216835   6.385   0.363   3.228
 5085WAT      O16836   5.508   0.296   1.535
 5085WAT     H116837   5.539   0.297   1.444
 5085WAT     H216838   5.582   0.261   1.585
 5086WAT      O16839   5.992   1.773   3.033
 5086WAT     H116840   5.984   1.863   3.064
 5086WAT     H216841   5.902   1.741   3.031
 5087WAT      O16842   6.047   1.689   1.796
 5087WAT     H116843   6.136   1.723   1.798
 5087WAT     H216844   6.050   1.617   1.733
 5088WAT      O16845   5.411   1.226   1.619
 5088WAT     H116846   5.454   1.281   1.684
 5088WAT     H216847   5.459   1.144   1.619
 5089WAT      O16848   5.132   1.505   2.364
 5089WAT     H116849   5.165   1.418   2.341
 5089WAT     H216850   5.175   1.526   2.447
 5090WAT      O16851   5.592   1.338   2.130
 5090WAT     H116852   5.562   1.326   2.220
 5090WAT     H216853   5.581   1.252   2.089
 5091WAT      O16854   5.181   1.592   2.638
 5091WAT     H116855   5.137   1.610   2.721
 5091WAT     H216856   5.238   1.668   2.623
 5092WAT      O16857   6.745   1.542   3.066
 5092WAT     H116858   6.685   1.548   2.992
 5092WAT     H216859   6.758   1.448   3.079
 5093WAT      O16860   6.869   1.316   1.600
 5093WAT     H116861   6.786   1.323   1.647
 5093WAT     H216862   6.886   1.405   1.570
 5094WAT      O16863   6.814   0.991   1.850
 5094WAT     H116864   6.890   1.048   1.861
 5094WAT     H216865   6.816   0.934   1.927
 5095WAT      O16866   5.164   0.843   2.273
 5095WAT     H116867   5.099   0.816   2.209
 5095WAT     H216868   5.248   0.832   2.228
 5096WAT      O16869   6.915   1.076   2.335
 5096WAT     H116870   6.952   0.998   2.294
 5096WAT     H216871   6.979   1.145   2.317
 5097WAT      O16872   6.613   1.215   2.876
 5097WAT     H116873   6.532   1.258   2.902
 5097WAT     H216874   6.654   1.276   2.815
 5098WAT      O16875   6.819   1.020   1.566
 5098WAT     H116876   6.847   1.111   1.553
 5098WAT     H216877   6.801   1.014   1.660
 5099WAT      O16878   6.459   0.323   1.696
 5099WAT     H116879   6.501   0.304   1.612
 5099WAT     H216880   6.429   0.237   1.727
 5100WAT      O16881   6.809   0.814   2.065
 5100WAT     H116882   6.772   0.737   2.022
 5100WAT     H216883   6.736   0.852   2.114
 5101WAT      O16884   5.268   0.882   2.727
 5101WAT     H116885   5.305   0.873   2.815
 5101WAT     H216886   5.211   0.805   2.718
 5102WAT      O16887   6.748   0.729   3.029
 5102WAT     H116888   6.725   0.706   2.939
 5102WAT     H216889   6.774   0.821   3.024
 5103WAT      O16890   5.223   0.573   3.118
 5103WAT     H116891   5.134   0.569   3.152
 5103WAT     H216892   5.277   0.593   3.195
 5104WAT      O16893   6.592   0.251   3.307
 5104WAT     H116894   6.680   0.252   3.345
 5104WAT     H216895   6.593   0.177   3.246
 5105WAT      O16896   5.086   0.564   1.868
 5105WAT     H116897   4.995   0.590   1.850
 5105WAT     H216898   5.134   0.591   1.790
 5106WAT      O16899   6.737   0.636   2.395
 5106WAT     H116900   6.789   0.587   2.332
 5106WAT     H216901   6.795   0.650   2.470
 5107WAT      O16902   6.755   0.645   2.748
 5107WAT     H116903   6.660   0.641   2.759
 5107WAT     H216904   6.773   0.736   2.724
 5108WAT      O16905   5.340   0.470   1.659
 5108WAT     H116906   5.411   0.428   1.610
 5108WAT     H216907   5.268   0.477   1.595
 5109WAT      O16908   6.686   0.562   1.989
 5109WAT     H116909   6.735   0.539   2.068
 5109WAT     H216910   6.666   0.478   1.948
 5110WAT      O16911   6.828   0.426   2.243
 5110WAT     H116912   6.817   0.410   2.337
 5110WAT     H216913   6.905   0.373   2.219
 5111WAT      O16914   6.917   0.209   1.567
 5111WAT     H116915   7.010   0.196   1.546
 5111WAT     H216916   6.915   0.217   1.662
 5112WAT      O16917   6.925   0.286   1.829
 5112WAT     H116918   6.845   0.279   1.882
 5112WAT     H216919   6.945   0.379   1.828
 5113WAT      O16920   6.619   1.690   2.229
 5113WAT     H116921   6.679   1.658   2.161
 5113WAT     H216922   6.645   1.643   2.308
 5114WAT      O16923   5.410   1.333   3.244
 5114WAT     H116924   5.405   1.296   3.332
 5114WAT     H216925   5.423   1.427   3.258
 5115WAT      O16926   5.780   1.489   2.804
 5115WAT     H116927   5.756   1.515   2.715
 5115WAT     H216928   5.874   1.506   2.809
 5116WAT      O16929   6.906   1.691   2.884
 5116WAT     H116930   6.856   1.730   2.812
 5116WAT     H216931   6.845   1.628   2.923
 5117WAT      O16932   5.393   1.628   2.956
 5117WAT     H116933   5.334   1.615   3.030
 5117WAT     H216934   5.393   1.544   2.909
 5118WAT      O16935   6.674   1.755   2.612
 5118WAT     H116936   6.628   1.830   2.574
 5118WAT     H216937   6.611   1.683   2.606
 5119WAT      O16938   5.357   1.364   2.851
 5119WAT     H116939   5.284   1.302   2.844
 5119WAT     H216940   5.363   1.404   2.764
 5120WAT      O16941   5.717   1.586   2.529
 5120WAT     H116942   5.769   1.525   2.477
 5120WAT     H216943   5.782   1.636   2.578
 5121WAT      O16944   5.991   1.675   2.612
 5121WAT     H116945   6.020   1.649   2.524
 5121WAT     H216946   6.042   1.620   2.671
 5122WAT      O16947   5.185   1.696   2.172
 5122WAT     H116948   5.168   1.633   2.242
 5122WAT     H216949   5.098   1.717   2.137
 5123WAT      O16950   5.901   0.291   2.221
 5123WAT     H116951   5.820   0.253   2.187
 5123WAT     H216952   5.952   0.215   2.251
 5124WAT      O16953   5.346   1.565   1.916
 5124WAT     H116954   5.293   1.603   1.846
 5124WAT     H216955   5.338   1.628   1.988
 5125WAT      O16956   5.998   1.767   3.349
 5125WAT     H116957   6.090   1.743   3.353
 5125WAT     H216958   5.996   1.850   3.300
 5126WAT      O16959   6.821   1.721   2.048
 5126WAT     H116960   6.839   1.653   1.984
 5126WAT     H216961   6.751   1.774   2.009
 5127WAT      O16962   5.605   1.760   1.804
 5127WAT     H116963   5.679   1.732   1.749
 5127WAT     H216964   5.631   1.736   1.893
 5128WAT      O16965   5.522   1.372   1.804
 5128WAT     H116966   5.459   1.419   1.859
 5128WAT     H216967   5.533   1.287   1.848
 5129WAT      O16968   6.654   1.690   3.331
 5129WAT     H116969   6.734   1.640   3.310
 5129WAT     H216970   6.684   1.758   3.392
 5130WAT      O16971   6.267   0.777   0.419
 5130WAT     H116972   6.259   0.685   0.392
 5130WAT     H216973   6.226   0.827   0.349
 5131WAT      O16974   6.080   0.955   0.607
 5131WAT     H116975   6.003   0.907   0.636
 5131WAT     H216976   6.145   0.887   0.590
 5132WAT      O16977   5.482   0.986   0.695
 5132WAT     H116978   5.399   0.960   0.735
 5132WAT     H216979   5.543   0.993   0.769
 5133WAT      O16980   6.482   1.395   0.485
 5133WAT     H116981   6.436   1.318   0.518
 5133WAT     H216982   6.564   1.398   0.536
 5134WAT      O16983   5.480   1.389   0.715
 5134WAT     H116984   5.510   1.300   0.697
 5134WAT     H216985   5.554   1.445   0.692
 5135WAT      O16986   5.119   0.742   0.662
 5135WAT     H116987   5.176   0.665   0.662
 5135WAT     H216988   5.119   0.772   0.571
 5136WAT      O16989   6.105   1.624   0.447
 5136WAT     H116990   6.043   1.669   0.390
 5136WAT     H216991   6.190   1.639   0.407
 5137WAT      O16992   6.024   1.222   0.608
 5137WAT     H116993   6.017   1.128   0.592
 5137WAT     H216994   6.101   1.231   0.665
 5138WAT      O16995   5.243   0.283   0.841
 5138WAT     H116996   5.225   0.193   0.869
 5138WAT     H216997   5.203   0.337   0.908
 5139WAT      O16998   6.127   0.503   0.631
 5139WAT     H116999   6.165   0.416   0.619
 5139WAT     H217000   6.118   0.537   0.542
 5140WAT      O17001   5.540   0.340   0.177
 5140WAT     H117002   5.551   0.430   0.208
 5140WAT     H217003   5.449   0.335   0.148
 5141WAT      O17004   6.506   0.252   0.324
 5141WAT     H117005   6.588   0.203   0.328
 5141WAT     H217006   6.509   0.311   0.399
 5142WAT      O17007   5.305   0.532   0.701
 5142WAT     H117008   5.373   0.559   0.763
 5142WAT     H217009   5.274   0.448   0.735
 5143WAT      O17010   5.725   0.637   0.610
 5143WAT     H117011   5.775   0.687   0.674
 5143WAT     H217012   5.778   0.559   0.592
 5144WAT      O17013   6.935   0.454   0.980
 5144WAT     H117014   6.864   0.493   0.929
 5144WAT     H217015   6.961   0.524   1.041
 5145WAT      O17016   5.678   1.065   0.854
 5145WAT     H117017   5.645   1.128   0.919
 5145WAT     H217018   5.696   1.118   0.776
 5146WAT      O17019   6.529   0.446   0.601
 5146WAT     H117020   6.459   0.475   0.659
 5146WAT     H217021   6.565   0.527   0.565
 5147WAT      O17022   5.521   0.272   0.837
 5147WAT     H117023   5.555   0.357   0.808
 5147WAT     H217024   5.427   0.287   0.849
 5148WAT      O17025   5.599   1.262   1.036
 5148WAT     H117026   5.661   1.329   1.008
 5148WAT     H217027   5.513   1.303   1.027
 5149WAT      O17028   6.691   1.408   0.827
 5149WAT     H117029   6.623   1.475   0.827
 5149WAT     H217030   6.745   1.428   0.751
 5150WAT      O17031   6.836   0.391   0.640
 5150WAT     H117032   6.741   0.394   0.653
 5150WAT     H217033   6.869   0.472   0.679
 5151WAT      O17034   6.444   1.593   0.699
 5151WAT     H117035   6.446   1.552   0.612
 5151WAT     H217036   6.389   1.670   0.689
 5152WAT      O17037   6.574   1.265   0.208
 5152WAT     H117038   6.563   1.171   0.220
 5152WAT     H217039   6.574   1.301   0.296
 5153WAT      O17040   6.384   1.083   0.832
 5153WAT     H117041   6.426   1.062   0.748
 5153WAT     H217042   6.457   1.109   0.889
 5154WAT      O17043   6.779   0.923   0.841
 5154WAT     H117044   6.696   0.930   0.793
 5154WAT     H217045   6.838   0.981   0.794
 5155WAT      O17046   6.475   0.601   0.935
 5155WAT     H117047   6.434   0.684   0.961
 5155WAT     H217048   6.402   0.543   0.916
 5156WAT      O17049   5.689   0.880   0.422
 5156WAT     H117050   5.648   0.809   0.372
 5156WAT     H217051   5.697   0.846   0.511
 5157WAT      O17052   5.736   1.249   0.638
 5157WAT     H117053   5.706   1.188   0.570
 5157WAT     H217054   5.831   1.253   0.627
 5158WAT      O17055   5.560   0.558   0.800
 5158WAT     H117056   5.615   0.568   0.722
 5158WAT     H217057   5.611   0.595   0.871
 5159WAT      O17058   6.544   1.606   1.004
 5159WAT     H117059   6.497   1.687   0.985
 5159WAT     H217060   6.476   1.541   1.020
 5160WAT      O17061   5.645   1.223   1.303
 5160WAT     H117062   5.555   1.245   1.328
 5160WAT     H217063   5.647   1.235   1.208
 5161WAT      O17064   5.527   0.910   1.161
 5161WAT     H117065   5.513   0.997   1.198
 5161WAT     H217066   5.439   0.875   1.146
 5162WAT      O17067   6.160   1.401   0.291
 5162WAT     H117068   6.204   1.476   0.250
 5162WAT     H217069   6.154   1.426   0.384
 5163WAT      O17070   5.707   1.504   1.382
 5163WAT     H117071   5.704   1.544   1.295
 5163WAT     H217072   5.691   1.411   1.365
 5164WAT      O17073   6.902   1.582   1.511
 5164WAT     H117074   6.950   1.630   1.579
 5164WAT     H217075   6.964   1.575   1.439
 5165WAT      O17076   5.123   1.087   0.752
 5165WAT     H117077   5.130   1.100   0.658
 5165WAT     H217078   5.184   1.016   0.772
 5166WAT      O17079   5.247   1.257   0.393
 5166WAT     H117080   5.206   1.271   0.308
 5166WAT     H217081   5.336   1.228   0.373
 5167WAT      O17082   6.843   1.301   1.227
 5167WAT     H117083   6.855   1.277   1.135
 5167WAT     H217084   6.847   1.218   1.274
 5168WAT      O17085   6.229   1.672   1.084
 5168WAT     H117086   6.280   1.663   1.164
 5168WAT     H217087   6.145   1.706   1.113
 5169WAT      O17088   5.674   1.678   0.205
 5169WAT     H117089   5.657   1.586   0.183
 5169WAT     H217090   5.589   1.714   0.229
 5170WAT      O17091   6.353   1.614   0.290
 5170WAT     H117092   6.399   1.536   0.322
 5170WAT     H217093   6.387   1.685   0.345
 5171WAT      O17094   6.828   0.507   1.324
 5171WAT     H117095   6.766   0.557   1.271
 5171WAT     H217096   6.796   0.417   1.318
 5172WAT      O17097   5.128   1.191   1.006
 5172WAT     H117098   5.144   1.144   0.925
 5172WAT     H217099   5.175   1.140   1.073
 5173WAT      O17100   6.034   0.391   1.070
 5173WAT     H117101   5.988   0.411   1.152
 5173WAT     H217102   5.994   0.309   1.040
 5174WAT      O17103   6.534   0.513   1.183
 5174WAT     H117104   6.449   0.483   1.215
 5174WAT     H217105   6.518   0.537   1.092
 5175WAT      O17106   6.244   0.663   1.393
 5175WAT     H117107   6.276   0.579   1.359
 5175WAT     H217108   6.322   0.715   1.408
 5176WAT      O17109   5.585   0.616   0.283
 5176WAT     H117110   5.562   0.595   0.373
 5176WAT     H217111   5.506   0.659   0.248
 5177WAT      O17112   5.829   0.706   1.349
 5177WAT     H117113   5.819   0.612   1.334
 5177WAT     H217114   5.913   0.728   1.310
 5178WAT      O17115   6.168   0.480   0.346
 5178WAT     H117116   6.207   0.512   0.264
 5178WAT     H217117   6.204   0.393   0.357
 5179WAT      O17118   5.342   0.347   1.165
 5179WAT     H117119   5.302   0.432   1.185
 5179WAT     H217120   5.273   0.283   1.184
 5180WAT      O17121   5.999   0.356   1.472
 5180WAT     H117122   5.930   0.336   1.535
 5180WAT     H217123   6.073   0.384   1.525
 5181WAT      O17124   6.227   0.740   0.755
 5181WAT     H117125   6.154   0.790   0.790
 5181WAT     H217126   6.187   0.658   0.725
 5182WAT      O17127   5.870   0.407   0.596
 5182WAT     H117128   5.871   0.363   0.511
 5182WAT     H217129   5.960   0.439   0.606
 5183WAT      O17130   5.455   0.395   0.492
 5183WAT     H117131   5.421   0.443   0.567
 5183WAT     H217132   5.379   0.350   0.456
 5184WAT      O17133   6.273   0.285   0.696
 5184WAT     H117134   6.275   0.330   0.781
 5184WAT     H217135   6.248   0.195   0.718
 5185WAT      O17136   5.286   1.128   1.222
 5185WAT     H117137   5.247   1.064   1.282
 5185WAT     H217138   5.317   1.199   1.279
 5186WAT      O17139   5.901   0.813   0.770
 5186WAT     H117140   5.937   0.766   0.845
 5186WAT     H217141   5.882   0.901   0.804
 5187WAT      O17142   5.187   0.288   0.383
 5187WAT     H117143   5.158   0.251   0.467
 5187WAT     H217144   5.181   0.214   0.322
 5188WAT      O17145   5.680   0.717   1.002
 5188WAT     H117146   5.649   0.805   1.025
 5188WAT     H217147   5.775   0.723   1.006
 5189WAT      O17148   6.608   1.037   0.641
 5189WAT     H117149   6.680   1.087   0.602
 5189WAT     H217150   6.588   0.970   0.577
 5190WAT      O17151   6.146   1.045   1.230
 5190WAT     H117152   6.140   0.952   1.204
 5190WAT     H217153   6.083   1.054   1.301
 5191WAT      O17154   5.537   1.105   0.426
 5191WAT     H117155   5.589   1.024   0.420
 5191WAT     H217156   5.492   1.098   0.510
 5192WAT      O17157   5.285   0.801   1.117
 5192WAT     H117158   5.249   0.868   1.176
 5192WAT     H217159   5.256   0.718   1.154
 5193WAT      O17160   5.605   0.847   1.405
 5193WAT     H117161   5.575   0.862   1.316
 5193WAT     H217162   5.682   0.791   1.396
 5194WAT      O17163   6.140   1.327   1.205
 5194WAT     H117164   6.141   1.234   1.183
 5194WAT     H217165   6.069   1.335   1.269
 5195WAT      O17166   6.761   0.991   1.140
 5195WAT     H117167   6.688   1.050   1.120
 5195WAT     H217168   6.813   0.990   1.060
 5196WAT      O17169   6.314   1.163   0.489
 5196WAT     H117170   6.349   1.104   0.423
 5196WAT     H217171   6.225   1.131   0.507
 5197WAT      O17172   5.922   1.239   0.230
 5197WAT     H117173   5.991   1.294   0.268
 5197WAT     H217174   5.844   1.294   0.234
 5198WAT      O17175   5.853   0.940   0.191
 5198WAT     H117176   5.898   1.021   0.214
 5198WAT     H217177   5.817   0.908   0.275
 5199WAT      O17178   6.083   1.491   0.914
 5199WAT     H117179   6.147   1.512   0.982
 5199WAT     H217180   6.119   1.415   0.869
 5200WAT      O17181   6.210   1.291   0.786
 5200WAT     H117182   6.274   1.221   0.797
 5200WAT     H217183   6.263   1.369   0.768
 5201WAT      O17184   6.388   1.371   1.106
 5201WAT     H117185   6.421   1.430   1.174
 5201WAT     H217186   6.296   1.358   1.129
 5202WAT      O17187   5.171   1.549   1.283
 5202WAT     H117188   5.182   1.455   1.269
 5202WAT     H217189   5.106   1.575   1.218
 5203WAT      O17190   5.971   1.376   1.423
 5203WAT     H117191   5.938   1.304   1.478
 5203WAT     H217192   5.903   1.444   1.431
 5204WAT      O17193   6.292   0.399   0.960
 5204WAT     H117194   6.329   0.317   0.992
 5204WAT     H217195   6.206   0.405   1.001
 5205WAT      O17196   5.826   0.523   0.182
 5205WAT     H117197   5.755   0.570   0.226
 5205WAT     H217198   5.854   0.457   0.246
 5206WAT      O17199   5.988   0.665   0.982
 5206WAT     H117200   6.038   0.712   1.049
 5206WAT     H217201   6.002   0.572   1.003
 5207WAT      O17202   6.229   0.195   0.326
 5207WAT     H117203   6.216   0.197   0.231
 5207WAT     H217204   6.324   0.200   0.338
 5208WAT      O17205   5.937   1.719   0.253
 5208WAT     H117206   5.963   1.715   0.161
 5208WAT     H217207   5.843   1.706   0.253
 5209WAT      O17208   6.709   0.286   1.066
 5209WAT     H117209   6.658   0.360   1.100
 5209WAT     H217210   6.790   0.325   1.035
 5210WAT      O17211   6.538   0.811   0.411
 5210WAT     H117212   6.444   0.812   0.428
 5210WAT     H217213   6.569   0.732   0.456
 5211WAT      O17214   6.738   1.528   0.579
 5211WAT     H117215   6.751   1.610   0.626
 5211WAT     H217216   6.825   1.507   0.544
 5212WAT      O17217   5.485   1.737   0.546
 5212WAT     H117218   5.559   1.682   0.573
 5212WAT     H217219   5.524   1.824   0.532
 5213WAT      O17220   5.386   1.656   1.465
 5213WAT     H117221   5.466   1.688   1.506
 5213WAT     H217222   5.334   1.620   1.537
 5214WAT      O17223   6.270   1.266   1.459
 5214WAT     H117224   6.209   1.269   1.385
 5214WAT     H217225   6.239   1.193   1.513
 5215WAT      O17226   6.413   1.639   1.320
 5215WAT     H117227   6.508   1.631   1.315
 5215WAT     H217228   6.398   1.706   1.388
 5216WAT      O17229   5.158   0.904   1.359
 5216WAT     H117230   5.208   0.846   1.416
 5216WAT     H217231   5.084   0.933   1.413
 5217WAT      O17232   5.863   1.045   1.312
 5217WAT     H117233   5.787   1.102   1.304
 5217WAT     H217234   5.881   1.016   1.223
 5218WAT      O17235   6.578   1.218   1.368
 5218WAT     H117236   6.652   1.252   1.318
 5218WAT     H217237   6.501   1.235   1.313
 5219WAT      O17238   5.361   0.719   1.448
 5219WAT     H117239   5.365   0.689   1.539
 5219WAT     H217240   5.447   0.759   1.432
 5220WAT      O17241   5.555   0.577   1.245
 5220WAT     H117242   5.502   0.527   1.182
 5220WAT     H217243   5.622   0.619   1.192
 5221WAT      O17244   6.445   1.023   1.222
 5221WAT     H117245   6.486   1.039   1.306
 5221WAT     H217246   6.352   1.036   1.238
 5222WAT      O17247   6.492   0.757   1.422
 5222WAT     H117248   6.550   0.682   1.413
 5222WAT     H217249   6.510   0.810   1.344
 5223WAT      O17250   5.604   0.273   1.253
 5223WAT     H117251   5.595   0.211   1.181
 5223WAT     H217252   5.546   0.346   1.230
 5224WAT      O17253   5.921   1.018   1.019
 5224WAT     H117254   5.963   1.103   1.001
 5224WAT     H217255   5.829   1.032   0.996
 5225WAT      O17256   6.155   0.792   1.157
 5225WAT     H117257   6.167   0.732   1.231
 5225WAT     H217258   6.241   0.795   1.115
 5226WAT      O17259   6.389   0.847   1.015
 5226WAT     H117260   6.336   0.899   0.954
 5226WAT     H217261   6.423   0.910   1.078
 5227WAT      O17262   5.706   1.649   1.130
 5227WAT     H117263   5.652   1.721   1.098
 5227WAT     H217264   5.732   1.601   1.051
 5228WAT      O17265   5.832   0.446   1.283
 5228WAT     H117266   5.890   0.415   1.351
 5228WAT     H217267   5.750   0.399   1.298
 5229WAT      O17268   6.313   0.408   1.306
 5229WAT     H117269   6.245   0.341   1.299
 5229WAT     H217270   6.385   0.363   1.350
 5230WAT      O17271   5.992   1.773   1.156
 5230WAT     H117272   5.984   1.863   1.187
 5230WAT     H217273   5.902   1.741   1.153
 5231WAT      O17274   5.132   1.505   0.486
 5231WAT     H117275   5.165   1.418   0.463
 5231WAT     H217276   5.175   1.526   0.569
 5232WAT      O17277   5.592   1.338   0.252
 5232WAT     H117278   5.562   1.326   0.342
 5232WAT     H217279   5.581   1.252   0.211
 5233WAT      O17280   5.181   1.592   0.760
 5233WAT     H117281   5.137   1.610   0.843
 5233WAT     H217282   5.238   1.668   0.746
 5234WAT      O17283   6.745   1.542   1.189
 5234WAT     H117284   6.685   1.548   1.115
 5234WAT     H217285   6.758   1.448   1.202
 5235WAT      O17286   5.164   0.843   0.396
 5235WAT     H117287   5.099   0.816   0.332
 5235WAT     H217288   5.248   0.832   0.351
 5236WAT      O17289   6.915   1.076   0.457
 5236WAT     H117290   6.952   0.998   0.417
 5236WAT     H217291   6.979   1.145   0.440
 5237WAT      O17292   6.613   1.215   0.999
 5237WAT     H117293   6.532   1.258   1.025
 5237WAT     H217294   6.654   1.276   0.937
 5238WAT      O17295   6.809   0.814   0.188
 5238WAT     H117296   6.772   0.737   0.145
 5238WAT     H217297   6.736   0.852   0.237
 5239WAT      O17298   5.268   0.882   0.850
 5239WAT     H117299   5.305   0.873   0.938
 5239WAT     H217300   5.211   0.805   0.840
 5240WAT      O17301   6.748   0.729   1.151
 5240WAT     H117302   6.725   0.706   1.061
 5240WAT     H217303   6.774   0.821   1.147
 5241WAT      O17304   5.223   0.573   1.241
 5241WAT     H117305   5.134   0.569   1.275
 5241WAT     H217306   5.277   0.593   1.317
 5242WAT      O17307   6.592   0.251   1.429
 5242WAT     H117308   6.680   0.252   1.467
 5242WAT     H217309   6.593   0.177   1.368
 5243WAT      O17310   6.737   0.636   0.518
 5243WAT     H117311   6.789   0.587   0.455
 5243WAT     H217312   6.795   0.650   0.592
 5244WAT      O17313   6.755   0.645   0.870
 5244WAT     H117314   6.660   0.641   0.882
 5244WAT     H217315   6.773   0.736   0.847
 5245WAT      O17316   6.828   0.426   0.365
 5245WAT     H117317   6.817   0.410   0.459
 5245WAT     H217318   6.905   0.373   0.341
 5246WAT      O17319   6.619   1.690   0.351
 5246WAT     H117320   6.679   1.658   0.284
 5246WAT     H217321   6.645   1.643   0.430
 5247WAT      O17322   5.410   1.333   1.366
 5247WAT     H117323   5.405   1.296   1.454
 5247WAT     H217324   5.423   1.427   1.380
 5248WAT      O17325   5.780   1.489   0.926
 5248WAT     H117326   5.756   1.515   0.838
 5248WAT     H217327   5.874   1.506   0.932
 5249WAT      O17328   6.906   1.691   1.006
 5249WAT     H117329   6.856   1.730   0.935
 5249WAT     H217330   6.845   1.628   1.046
 5250WAT      O17331   5.393   1.628   1.078
 5250WAT     H117332   5.334   1.615   1.152
 5250WAT     H217333   5.393   1.544   1.032
 5251WAT      O17334   6.674   1.755   0.734
 5251WAT     H117335   6.628   1.830   0.697
 5251WAT     H217336   6.611   1.683   0.728
 5252WAT      O17337   5.357   1.364   0.973
 5252WAT     H117338   5.284   1.302   0.967
 5252WAT     H217339   5.363   1.404   0.886
 5253WAT      O17340   5.717   1.586   0.652
 5253WAT     H117341   5.769   1.525   0.599
 5253WAT     H217342   5.782   1.636   0.701
 5254WAT      O17343   5.991   1.675   0.734
 5254WAT     H117344   6.020   1.649   0.647
 5254WAT     H217345   6.042   1.620   0.794
 5255WAT      O17346   5.185   1.696   0.294
 5255WAT     H117347   5.168   1.633   0.364
 5255WAT     H217348   5.098   1.717   0.259
 5256WAT      O17349   5.901   0.291   0.344
 5256WAT     H117350   5.820   0.253   0.310
 5256WAT     H217351   5.952   0.215   0.374
 5257WAT      O17352   5.998   1.767   1.471
 5257WAT     H117353   6.090   1.743   1.476
 5257WAT     H217354   5.996   1.850   1.423
 5258WAT      O17355   6.654   1.690   1.454
 5258WAT     H117356   6.734   1.640   1.433
 5258WAT     H217357   6.684   1.758   1.514
 5259WAT      O17358   4.390   8.287   6.051
 5259WAT     H117359   4.382   8.195   6.024
 5259WAT     H217360   4.348   8.336   5.981
 5260WAT      O17361   4.203   8.464   6.240
 5260WAT     H117362   4.125   8.416   6.269
 5260WAT     H217363   4.268   8.396   6.222
 5261WAT      O17364   3.604   8.496   6.327
 5261WAT     H117365   3.521   8.470   6.367
 5261WAT     H217366   3.665   8.503   6.401
 5262WAT      O17367   4.605   8.905   6.118
 5262WAT     H117368   4.559   8.828   6.150
 5262WAT     H217369   4.686   8.908   6.168
 5263WAT      O17370   3.602   8.899   6.347
 5263WAT     H117371   3.633   8.810   6.329
 5263WAT     H217372   3.677   8.955   6.324
 5264WAT      O17373   3.445   7.992   5.706
 5264WAT     H117374   3.357   8.026   5.696
 5264WAT     H217375   3.474   7.972   5.617
 5265WAT      O17376   3.242   8.252   6.294
 5265WAT     H117377   3.299   8.175   6.294
 5265WAT     H217378   3.242   8.282   6.203
 5266WAT      O17379   4.147   8.732   6.240
 5266WAT     H117380   4.140   8.638   6.224
 5266WAT     H217381   4.223   8.741   6.297
 5267WAT      O17382   3.366   7.792   6.473
 5267WAT     H117383   3.348   7.703   6.501
 5267WAT     H217384   3.326   7.847   6.540
 5268WAT      O17385   4.250   8.013   6.263
 5268WAT     H117386   4.288   7.925   6.252
 5268WAT     H217387   4.240   8.046   6.174
 5269WAT      O17388   3.663   7.850   5.809
 5269WAT     H117389   3.674   7.940   5.840
 5269WAT     H217390   3.572   7.845   5.780
 5270WAT      O17391   4.628   7.762   5.956
 5270WAT     H117392   4.710   7.713   5.960
 5270WAT     H217393   4.632   7.821   6.032
 5271WAT      O17394   3.428   8.042   6.334
 5271WAT     H117395   3.496   8.068   6.396
 5271WAT     H217396   3.396   7.958   6.367
 5272WAT      O17397   3.847   8.147   6.242
 5272WAT     H117398   3.898   8.197   6.306
 5272WAT     H217399   3.900   8.069   6.225
 5273WAT      O17400   4.314   8.622   5.819
 5273WAT     H117401   4.252   8.668   5.763
 5273WAT     H217402   4.365   8.691   5.861
 5274WAT      O17403   3.800   8.575   6.487
 5274WAT     H117404   3.767   8.637   6.551
 5274WAT     H217405   3.818   8.627   6.409
 5275WAT      O17406   4.652   7.956   6.234
 5275WAT     H117407   4.581   7.985   6.292
 5275WAT     H217408   4.688   8.037   6.198
 5276WAT      O17409   3.644   7.782   6.470
 5276WAT     H117410   3.678   7.866   6.440
 5276WAT     H217411   3.550   7.797   6.481
 5277WAT      O17412   3.251   8.691   5.556
 5277WAT     H117413   3.213   8.739   5.483
 5277WAT     H217414   3.277   8.758   5.619
 5278WAT      O17415   4.813   8.918   6.460
 5278WAT     H117416   4.745   8.985   6.459
 5278WAT     H217417   4.867   8.938   6.383
 5279WAT      O17418   4.959   7.901   6.273
 5279WAT     H117419   4.864   7.904   6.286
 5279WAT     H217420   4.991   7.982   6.311
 5280WAT      O17421   4.012   7.531   6.102
 5280WAT     H117422   4.043   7.475   6.031
 5280WAT     H217423   3.919   7.544   6.084
 5281WAT      O17424   4.696   8.775   5.840
 5281WAT     H117425   4.685   8.680   5.853
 5281WAT     H217426   4.696   8.811   5.929
 5282WAT      O17427   4.507   8.593   6.464
 5282WAT     H117428   4.549   8.571   6.381
 5282WAT     H217429   4.579   8.618   6.521
 5283WAT      O17430   4.251   8.337   5.776
 5283WAT     H117431   4.158   8.331   5.799
 5283WAT     H217432   4.266   8.431   5.764
 5284WAT      O17433   4.249   7.964   5.475
 5284WAT     H117434   4.155   7.980   5.484
 5284WAT     H217435   4.281   8.036   5.421
 5285WAT      O17436   4.902   8.433   6.473
 5285WAT     H117437   4.819   8.439   6.426
 5285WAT     H217438   4.961   8.491   6.426
 5286WAT      O17439   4.654   8.493   5.826
 5286WAT     H117440   4.592   8.460   5.761
 5286WAT     H217441   4.652   8.429   5.897
 5287WAT      O17442   4.598   8.111   6.568
 5287WAT     H117443   4.557   8.194   6.593
 5287WAT     H217444   4.525   8.053   6.549
 5288WAT      O17445   3.811   8.390   6.054
 5288WAT     H117446   3.771   8.319   6.004
 5288WAT     H217447   3.820   8.355   6.143
 5289WAT      O17448   3.858   8.758   6.270
 5289WAT     H117449   3.828   8.698   6.202
 5289WAT     H217450   3.953   8.762   6.259
 5290WAT      O17451   3.683   8.067   6.432
 5290WAT     H117452   3.738   8.078   6.354
 5290WAT     H217453   3.734   8.105   6.504
 5291WAT      O17454   4.471   8.417   5.527
 5291WAT     H117455   4.515   8.333   5.512
 5291WAT     H217456   4.543   8.481   5.535
 5292WAT      O17457   4.282   8.911   5.924
 5292WAT     H117458   4.326   8.985   5.882
 5292WAT     H217459   4.276   8.935   6.016
 5293WAT      O17460   4.829   7.543   5.358
 5293WAT     H117461   4.798   7.552   5.448
 5293WAT     H217462   4.906   7.600   5.353
 5294WAT      O17463   3.481   8.279   5.804
 5294WAT     H117464   3.469   8.352   5.743
 5294WAT     H217465   3.450   8.202   5.756
 5295WAT      O17466   3.245   8.596   6.385
 5295WAT     H117467   3.253   8.610   6.290
 5295WAT     H217468   3.307   8.526   6.404
 5296WAT      O17469   3.370   8.766   6.026
 5296WAT     H117470   3.329   8.781   5.940
 5296WAT     H217471   3.459   8.738   6.005
 5297WAT      O17472   4.519   8.961   5.515
 5297WAT     H117473   4.450   8.961   5.449
 5297WAT     H217474   4.593   8.918   5.472
 5298WAT      O17475   3.728   7.614   6.142
 5298WAT     H117476   3.684   7.692   6.109
 5298WAT     H217477   3.784   7.646   6.213
 5299WAT      O17478   4.040   7.576   5.630
 5299WAT     H117479   3.977   7.575   5.703
 5299WAT     H217480   4.031   7.489   5.591
 5300WAT      O17481   3.932   7.668   6.328
 5300WAT     H117482   3.961   7.759   6.320
 5300WAT     H217483   3.987   7.619   6.267
 5301WAT      O17484   3.707   8.126   5.915
 5301WAT     H117485   3.684   8.104   6.006
 5301WAT     H217486   3.629   8.169   5.881
 5302WAT      O17487   4.430   8.127   5.775
 5302WAT     H117488   4.370   8.199   5.757
 5302WAT     H217489   4.485   8.120   5.697
 5303WAT      O17490   4.291   7.990   5.978
 5303WAT     H117491   4.330   8.022   5.897
 5303WAT     H217492   4.327   7.902   5.989
 5304WAT      O17493   3.194   7.649   6.200
 5304WAT     H117494   3.165   7.706   6.272
 5304WAT     H217495   3.269   7.601   6.237
 5305WAT      O17496   3.213   8.043   5.321
 5305WAT     H117497   3.205   8.138   5.336
 5305WAT     H217498   3.178   8.029   5.233
 5306WAT      O17499   4.349   8.249   6.388
 5306WAT     H117500   4.276   8.300   6.422
 5306WAT     H217501   4.310   8.168   6.357
 5307WAT      O17502   3.993   7.917   6.228
 5307WAT     H117503   3.993   7.873   6.143
 5307WAT     H217504   4.083   7.949   6.239
 5308WAT      O17505   3.578   7.905   6.124
 5308WAT     H117506   3.544   7.953   6.200
 5308WAT     H217507   3.502   7.860   6.088
 5309WAT      O17508   3.999   8.017   5.527
 5309WAT     H117509   4.011   8.013   5.622
 5309WAT     H217510   3.961   8.103   5.512
 5310WAT      O17511   4.396   7.795   6.329
 5310WAT     H117512   4.397   7.840   6.413
 5310WAT     H217513   4.371   7.705   6.350
 5311WAT      O17514   3.900   8.248   5.467
 5311WAT     H117515   3.844   8.203   5.404
 5311WAT     H217516   3.971   8.284   5.414
 5312WAT      O17517   4.023   8.323   6.403
 5312WAT     H117518   4.060   8.275   6.477
 5312WAT     H217519   4.004   8.410   6.437
 5313WAT      O17520   3.310   7.797   6.016
 5313WAT     H117521   3.281   7.761   6.099
 5313WAT     H217522   3.303   7.724   5.954
 5314WAT      O17523   3.655   8.648   5.694
 5314WAT     H117524   3.578   8.594   5.678
 5314WAT     H217525   3.728   8.596   5.660
 5315WAT      O17526   4.731   8.547   6.273
 5315WAT     H117527   4.803   8.597   6.234
 5315WAT     H217528   4.711   8.479   6.209
 5316WAT      O17529   4.277   7.687   5.688
 5316WAT     H117530   4.196   7.637   5.680
 5316WAT     H217531   4.258   7.771   5.646
 5317WAT      O17532   4.548   8.124   5.517
 5317WAT     H117533   4.637   8.155   5.500
 5317WAT     H217534   4.545   8.036   5.478
 5318WAT      O17535   3.659   8.614   6.058
 5318WAT     H117536   3.711   8.534   6.053
 5318WAT     H217537   3.614   8.608   6.142
 5319WAT      O17538   4.148   8.741   5.585
 5319WAT     H117539   4.182   8.815   5.536
 5319WAT     H217540   4.065   8.772   5.622
 5320WAT      O17541   4.776   8.255   5.464
 5320WAT     H117542   4.767   8.298   5.379
 5320WAT     H217543   4.847   8.301   5.507
 5321WAT      O17544   4.878   8.940   5.737
 5321WAT     H117545   4.814   8.875   5.764
 5321WAT     H217546   4.840   8.981   5.659
 5322WAT      O17547   4.436   8.673   6.122
 5322WAT     H117548   4.472   8.613   6.056
 5322WAT     H217549   4.348   8.641   6.139
 5323WAT      O17550   4.045   8.749   5.862
 5323WAT     H117551   4.114   8.804   5.901
 5323WAT     H217552   3.966   8.804   5.866
 5324WAT      O17553   3.259   8.311   5.412
 5324WAT     H117554   3.346   8.339   5.440
 5324WAT     H217555   3.210   8.392   5.400
 5325WAT      O17556   3.975   8.450   5.824
 5325WAT     H117557   4.021   8.531   5.846
 5325WAT     H217558   3.940   8.418   5.907
 5326WAT      O17559   4.205   9.001   6.547
 5326WAT     H117560   4.270   9.021   6.614
 5326WAT     H217561   4.242   8.925   6.501
 5327WAT      O17562   3.565   7.484   5.871
 5327WAT     H117563   3.552   7.483   5.966
 5327WAT     H217564   3.483   7.518   5.836
 5328WAT      O17565   4.333   8.801   6.418
 5328WAT     H117566   4.397   8.731   6.430
 5328WAT     H217567   4.385   8.879   6.400
 5329WAT      O17568   4.717   8.829   5.391
 5329WAT     H117569   4.695   8.758   5.450
 5329WAT     H217570   4.678   8.805   5.307
 5330WAT      O17571   4.676   8.621   5.557
 5330WAT     H117572   4.647   8.667   5.636
 5330WAT     H217573   4.755   8.575   5.584
 5331WAT      O17574   3.897   8.970   5.550
 5331WAT     H117575   3.896   9.044   5.488
 5331WAT     H217576   3.805   8.946   5.559
 5332WAT      O17577   3.457   8.493   5.624
 5332WAT     H117578   3.397   8.567   5.625
 5332WAT     H217579   3.505   8.502   5.542
 5333WAT      O17580   4.415   7.909   6.592
 5333WAT     H117581   4.451   7.827   6.625
 5333WAT     H217582   4.329   7.915   6.634
 5334WAT      O17583   4.751   7.805   5.673
 5334WAT     H117584   4.688   7.815   5.601
 5334WAT     H217585   4.702   7.827   5.752
 5335WAT      O17586   4.196   8.977   5.416
 5335WAT     H117587   4.206   8.956   5.323
 5335WAT     H217588   4.106   8.951   5.437
 5336WAT      O17589   3.948   8.033   5.814
 5336WAT     H117590   3.877   8.079   5.859
 5336WAT     H217591   3.977   7.967   5.878
 5337WAT      O17592   4.351   7.705   5.958
 5337WAT     H117593   4.339   7.707   5.864
 5337WAT     H217594   4.446   7.710   5.970
 5338WAT      O17595   3.768   7.863   5.552
 5338WAT     H117596   3.853   7.907   5.545
 5338WAT     H217597   3.732   7.895   5.635
 5339WAT      O17598   4.661   8.321   6.043
 5339WAT     H117599   4.566   8.322   6.061
 5339WAT     H217600   4.692   8.242   6.088
 5340WAT      O17601   3.658   8.489   5.399
 5340WAT     H117602   3.735   8.478   5.456
 5340WAT     H217603   3.666   8.419   5.334
 5341WAT      O17604   3.528   8.232   5.468
 5341WAT     H117605   3.536   8.137   5.479
 5341WAT     H217606   3.617   8.265   5.478
 5342WAT      O17607   3.296   8.854   5.765
 5342WAT     H117608   3.204   8.878   5.764
 5342WAT     H217609   3.343   8.936   5.753
 5343WAT      O17610   3.971   8.686   5.347
 5343WAT     H117611   3.960   8.625   5.419
 5343WAT     H217612   3.954   8.634   5.268
 5344WAT      O17613   4.295   8.592   5.407
 5344WAT     H117614   4.240   8.637   5.472
 5344WAT     H217615   4.357   8.542   5.459
 5345WAT      O17616   3.862   8.488   5.597
 5345WAT     H117617   3.904   8.472   5.681
 5345WAT     H217618   3.874   8.407   5.547
 5346WAT      O17619   4.113   8.391   5.322
 5346WAT     H117620   4.165   8.319   5.285
 5346WAT     H217621   4.177   8.455   5.352
 5347WAT      O17622   4.003   7.639   6.589
 5347WAT     H117623   3.958   7.641   6.504
 5347WAT     H217624   3.940   7.599   6.648
 5348WAT      O17625   4.044   8.528   6.651
 5348WAT     H117626   4.086   8.613   6.634
 5348WAT     H217627   3.952   8.542   6.628
 5349WAT      O17628   3.751   8.096   5.291
 5349WAT     H117629   3.731   8.009   5.327
 5349WAT     H217630   3.734   8.087   5.198
 5350WAT      O17631   4.499   7.577   5.544
 5350WAT     H117632   4.527   7.492   5.580
 5350WAT     H217633   4.422   7.600   5.596
 5351WAT      O17634   3.631   7.806   5.290
 5351WAT     H117635   3.661   7.806   5.199
 5351WAT     H217636   3.705   7.771   5.340
 5352WAT      O17637   3.953   7.700   5.389
 5352WAT     H117638   3.918   7.632   5.331
 5352WAT     H217639   3.973   7.654   5.470
 5353WAT      O17640   3.533   8.736   5.373
 5353WAT     H117641   3.577   8.790   5.439
 5353WAT     H217642   3.582   8.654   5.374
 5354WAT      O17643   3.255   9.015   6.119
 5354WAT     H117644   3.288   8.928   6.095
 5354WAT     H217645   3.298   9.036   6.202
 5355WAT      O17646   3.714   8.848   5.885
 5355WAT     H117647   3.684   8.836   5.975
 5355WAT     H217648   3.704   8.762   5.844
 5356WAT      O17649   4.991   8.826   5.355
 5356WAT     H117650   4.908   8.833   5.402
 5356WAT     H217651   5.009   8.915   5.325
 5357WAT      O17652   4.937   8.501   5.605
 5357WAT     H117653   5.013   8.558   5.616
 5357WAT     H217654   4.938   8.444   5.682
 5358WAT      O17655   3.287   8.353   6.028
 5358WAT     H117656   3.221   8.326   5.964
 5358WAT     H217657   3.371   8.342   5.983
 5359WAT      O17658   5.037   8.586   6.090
 5359WAT     H117659   5.075   8.508   6.049
 5359WAT     H217660   5.101   8.655   6.072
 5360WAT      O17661   4.942   8.530   5.321
 5360WAT     H117662   4.969   8.621   5.308
 5360WAT     H217663   4.923   8.524   5.415
 5361WAT      O17664   4.582   7.832   5.450
 5361WAT     H117665   4.624   7.814   5.366
 5361WAT     H217666   4.551   7.747   5.482
 5362WAT      O17667   4.932   8.324   5.820
 5362WAT     H117668   4.894   8.247   5.777
 5362WAT     H217669   4.859   8.362   5.869
 5363WAT      O17670   3.391   8.391   6.482
 5363WAT     H117671   3.427   8.383   6.570
 5363WAT     H217672   3.334   8.315   6.472
 5364WAT      O17673   3.208   8.074   5.623
 5364WAT     H117674   3.118   8.100   5.605
 5364WAT     H217675   3.257   8.101   5.545
 5365WAT      O17676   4.859   8.146   6.150
 5365WAT     H117677   4.912   8.097   6.087
 5365WAT     H217678   4.918   8.160   6.225
 5366WAT      O17679   4.877   8.155   6.503
 5366WAT     H117680   4.782   8.151   6.514
 5366WAT     H217681   4.895   8.246   6.479
 5367WAT      O17682   3.463   7.980   5.414
 5367WAT     H117683   3.533   7.937   5.365
 5367WAT     H217684   3.391   7.986   5.350
 5368WAT      O17685   3.427   7.585   5.318
 5368WAT     H117686   3.500   7.639   5.349
 5368WAT     H217687   3.454   7.558   5.230
 5369WAT      O17688   4.808   8.072   5.744
 5369WAT     H117689   4.858   8.049   5.823
 5369WAT     H217690   4.788   7.988   5.703
 5370WAT      O17691   3.396   7.510   6.308
 5370WAT     H117692   3.461   7.455   6.264
 5370WAT     H217693   3.438   7.535   6.390
 5371WAT      O17694   4.951   7.935   5.998
 5371WAT     H117695   4.940   7.920   6.091
 5371WAT     H217696   5.027   7.883   5.973
 5372WAT      O17697   5.040   7.719   5.322
 5372WAT     H117698   5.132   7.705   5.301
 5372WAT     H217699   5.038   7.727   5.417
 5373WAT      O17700   5.047   7.796   5.584
 5373WAT     H117701   4.968   7.789   5.637
 5373WAT     H217702   5.068   7.889   5.583
 5374WAT      O17703   3.902   8.998   6.559
 5374WAT     H117704   3.878   9.025   6.470
 5374WAT     H217705   3.996   9.015   6.564
 5375WAT      O17706   4.461   7.467   6.531
 5375WAT     H117707   4.373   7.500   6.511
 5375WAT     H217708   4.450   7.419   6.613
 5376WAT      O17709   3.479   8.874   6.606
 5376WAT     H117710   3.406   8.812   6.599
 5376WAT     H217711   3.485   8.913   6.519
 5377WAT      O17712   4.235   7.558   6.425
 5377WAT     H117713   4.157   7.606   6.453
 5377WAT     H217714   4.206   7.468   6.414
 5378WAT      O17715   4.691   7.629   6.229
 5378WAT     H117716   4.735   7.623   6.144
 5378WAT     H217717   4.664   7.720   6.236
 5379WAT      O17718   4.877   7.592   6.030
 5379WAT     H117719   4.871   7.497   6.016
 5379WAT     H217720   4.955   7.603   6.085
 5380WAT      O17721   3.370   7.589   5.677
 5380WAT     H117722   3.446   7.600   5.620
 5380WAT     H217723   3.323   7.673   5.672
 5381WAT      O17724   4.024   7.800   5.976
 5381WAT     H117725   3.943   7.763   5.942
 5381WAT     H217726   4.074   7.725   6.006
 5382WAT      O17727   4.474   7.467   6.100
 5382WAT     H117728   4.534   7.524   6.147
 5382WAT     H217729   4.400   7.523   6.077
 5383WAT      O17730   4.788   7.507   5.627
 5383WAT     H117731   4.808   7.597   5.654
 5383WAT     H217732   4.710   7.484   5.676
 5384WAT      O17733   3.607   7.642   5.531
 5384WAT     H117734   3.660   7.563   5.518
 5384WAT     H217735   3.670   7.709   5.554
 5385WAT      O17736   3.826   7.615   5.836
 5385WAT     H117737   3.763   7.545   5.853
 5385WAT     H217738   3.772   7.691   5.815
 5386WAT      O17739   3.644   8.882   5.559
 5386WAT     H117740   3.581   8.928   5.614
 5386WAT     H217741   3.656   8.797   5.602
 5387WAT      O17742   4.390   8.287   4.174
 5387WAT     H117743   4.382   8.195   4.147
 5387WAT     H217744   4.348   8.336   4.103
 5388WAT      O17745   4.203   8.464   4.362
 5388WAT     H117746   4.125   8.416   4.391
 5388WAT     H217747   4.268   8.396   4.345
 5389WAT      O17748   3.604   8.496   4.450
 5389WAT     H117749   3.521   8.470   4.490
 5389WAT     H217750   3.665   8.503   4.523
 5390WAT      O17751   4.605   8.905   4.240
 5390WAT     H117752   4.559   8.828   4.273
 5390WAT     H217753   4.686   8.908   4.291
 5391WAT      O17754   3.602   8.899   4.469
 5391WAT     H117755   3.633   8.810   4.452
 5391WAT     H217756   3.677   8.955   4.447
 5392WAT      O17757   3.445   7.992   3.828
 5392WAT     H117758   3.357   8.026   3.818
 5392WAT     H217759   3.474   7.972   3.739
 5393WAT      O17760   3.242   8.252   4.417
 5393WAT     H117761   3.299   8.175   4.417
 5393WAT     H217762   3.242   8.282   4.326
 5394WAT      O17763   4.147   8.732   4.363
 5394WAT     H117764   4.140   8.638   4.347
 5394WAT     H217765   4.223   8.741   4.420
 5395WAT      O17766   3.366   7.792   4.595
 5395WAT     H117767   3.348   7.703   4.623
 5395WAT     H217768   3.326   7.847   4.663
 5396WAT      O17769   4.250   8.013   4.386
 5396WAT     H117770   4.288   7.925   4.374
 5396WAT     H217771   4.240   8.046   4.296
 5397WAT      O17772   3.663   7.850   3.932
 5397WAT     H117773   3.674   7.940   3.962
 5397WAT     H217774   3.572   7.845   3.903
 5398WAT      O17775   4.628   7.762   4.079
 5398WAT     H117776   4.710   7.713   4.083
 5398WAT     H217777   4.632   7.821   4.154
 5399WAT      O17778   3.428   8.042   4.456
 5399WAT     H117779   3.496   8.068   4.518
 5399WAT     H217780   3.396   7.958   4.490
 5400WAT      O17781   3.847   8.147   4.365
 5400WAT     H117782   3.898   8.197   4.429
 5400WAT     H217783   3.900   8.069   4.347
 5401WAT      O17784   5.057   7.964   4.735
 5401WAT     H117785   4.987   8.003   4.683
 5401WAT     H217786   5.084   8.033   4.795
 5402WAT      O17787   3.675   7.611   4.792
 5402WAT     H117788   3.676   7.662   4.711
 5402WAT     H217789   3.592   7.563   4.789
 5403WAT      O17790   4.314   8.622   3.941
 5403WAT     H117791   4.252   8.668   3.885
 5403WAT     H217792   4.365   8.691   3.983
 5404WAT      O17793   3.800   8.575   4.609
 5404WAT     H117794   3.767   8.637   4.674
 5404WAT     H217795   3.818   8.627   4.531
 5405WAT      O17796   4.652   7.956   4.356
 5405WAT     H117797   4.581   7.985   4.414
 5405WAT     H217798   4.688   8.037   4.320
 5406WAT      O17799   3.644   7.782   4.592
 5406WAT     H117800   3.678   7.866   4.563
 5406WAT     H217801   3.550   7.797   4.604
 5407WAT      O17802   3.722   8.772   4.791
 5407WAT     H117803   3.783   8.839   4.763
 5407WAT     H217804   3.636   8.812   4.782
 5408WAT      O17805   3.251   8.691   3.679
 5408WAT     H117806   3.213   8.739   3.606
 5408WAT     H217807   3.277   8.758   3.742
 5409WAT      O17808   4.813   8.918   4.582
 5409WAT     H117809   4.745   8.985   4.582
 5409WAT     H217810   4.867   8.938   4.506
 5410WAT      O17811   4.959   7.901   4.395
 5410WAT     H117812   4.864   7.904   4.408
 5410WAT     H217813   4.991   7.982   4.434
 5411WAT      O17814   4.012   7.531   4.225
 5411WAT     H117815   4.043   7.475   4.153
 5411WAT     H217816   3.919   7.544   4.206
 5412WAT      O17817   4.696   8.775   3.963
 5412WAT     H117818   4.685   8.680   3.975
 5412WAT     H217819   4.696   8.811   4.051
 5413WAT      O17820   4.507   8.593   4.587
 5413WAT     H117821   4.549   8.571   4.503
 5413WAT     H217822   4.579   8.618   4.644
 5414WAT      O17823   4.251   8.337   3.898
 5414WAT     H117824   4.158   8.331   3.921
 5414WAT     H217825   4.266   8.431   3.887
 5415WAT      O17826   4.249   7.964   3.598
 5415WAT     H117827   4.155   7.980   3.607
 5415WAT     H217828   4.281   8.036   3.543
 5416WAT      O17829   4.902   8.433   4.596
 5416WAT     H117830   4.819   8.439   4.548
 5416WAT     H217831   4.961   8.491   4.549
 5417WAT      O17832   4.654   8.493   3.949
 5417WAT     H117833   4.592   8.460   3.884
 5417WAT     H217834   4.652   8.429   4.019
 5418WAT      O17835   4.598   8.111   4.690
 5418WAT     H117836   4.557   8.194   4.716
 5418WAT     H217837   4.525   8.053   4.671
 5419WAT      O17838   3.811   8.390   4.177
 5419WAT     H117839   3.771   8.319   4.127
 5419WAT     H217840   3.820   8.355   4.265
 5420WAT      O17841   3.858   8.758   4.393
 5420WAT     H117842   3.828   8.698   4.325
 5420WAT     H217843   3.953   8.762   4.382
 5421WAT      O17844   3.683   8.067   4.555
 5421WAT     H117845   3.738   8.078   4.477
 5421WAT     H217846   3.734   8.105   4.626
 5422WAT      O17847   3.767   8.732   5.058
 5422WAT     H117848   3.678   8.755   5.083
 5422WAT     H217849   3.770   8.745   4.963
 5423WAT      O17850   4.471   8.417   3.649
 5423WAT     H117851   4.515   8.333   3.635
 5423WAT     H217852   4.543   8.481   3.658
 5424WAT      O17853   3.650   8.419   4.916
 5424WAT     H117854   3.636   8.507   4.952
 5424WAT     H217855   3.562   8.385   4.901
 5425WAT      O17856   4.282   8.911   4.046
 5425WAT     H117857   4.326   8.985   4.005
 5425WAT     H217858   4.276   8.935   4.139
 5426WAT      O17859   3.830   9.014   5.136
 5426WAT     H117860   3.827   9.054   5.050
 5426WAT     H217861   3.813   8.921   5.120
 5427WAT      O17862   4.829   7.543   3.481
 5427WAT     H117863   4.798   7.552   3.571
 5427WAT     H217864   4.906   7.600   3.476
 5428WAT      O17865   3.481   8.279   3.927
 5428WAT     H117866   3.469   8.352   3.865
 5428WAT     H217867   3.450   8.202   3.879
 5429WAT      O17868   3.245   8.596   4.507
 5429WAT     H117869   3.253   8.610   4.413
 5429WAT     H217870   3.307   8.526   4.527
 5430WAT      O17871   3.370   8.766   4.148
 5430WAT     H117872   3.329   8.781   4.063
 5430WAT     H217873   3.459   8.738   4.128
 5431WAT      O17874   4.965   8.811   4.982
 5431WAT     H117875   4.978   8.787   4.890
 5431WAT     H217876   4.969   8.728   5.029
 5432WAT      O17877   4.519   8.961   3.638
 5432WAT     H117878   4.450   8.961   3.572
 5432WAT     H217879   4.593   8.918   3.595
 5433WAT      O17880   4.950   8.016   5.079
 5433WAT     H117881   4.889   8.067   5.026
 5433WAT     H217882   4.918   7.926   5.073
 5434WAT      O17883   3.251   8.701   4.761
 5434WAT     H117884   3.267   8.654   4.679
 5434WAT     H217885   3.297   8.650   4.828
 5435WAT      O17886   3.728   7.614   4.265
 5435WAT     H117887   3.684   7.692   4.232
 5435WAT     H217888   3.784   7.646   4.336
 5436WAT      O17889   4.157   7.900   4.825
 5436WAT     H117890   4.110   7.921   4.906
 5436WAT     H217891   4.116   7.819   4.795
 5437WAT      O17892   4.657   8.022   4.938
 5437WAT     H117893   4.572   7.992   4.970
 5437WAT     H217894   4.641   8.047   4.847
 5438WAT      O17895   4.366   8.172   5.148
 5438WAT     H117896   4.399   8.089   5.114
 5438WAT     H217897   4.445   8.225   5.163
 5439WAT      O17898   4.040   7.576   3.753
 5439WAT     H117899   3.977   7.575   3.825
 5439WAT     H217900   4.031   7.489   3.713
 5440WAT      O17901   3.932   7.668   4.451
 5440WAT     H117902   3.961   7.759   4.443
 5440WAT     H217903   3.987   7.619   4.389
 5441WAT      O17904   3.707   8.126   4.038
 5441WAT     H117905   3.684   8.104   4.128
 5441WAT     H217906   3.629   8.169   4.003
 5442WAT      O17907   4.430   8.127   3.898
 5442WAT     H117908   4.370   8.199   3.879
 5442WAT     H217909   4.485   8.120   3.819
 5443WAT      O17910   3.951   8.216   5.104
 5443WAT     H117911   3.942   8.122   5.089
 5443WAT     H217912   4.035   8.238   5.065
 5444WAT      O17913   4.291   7.990   4.101
 5444WAT     H117914   4.330   8.022   4.019
 5444WAT     H217915   4.327   7.902   4.112
 5445WAT      O17916   3.464   7.857   4.920
 5445WAT     H117917   3.425   7.942   4.940
 5445WAT     H217918   3.395   7.793   4.939
 5446WAT      O17919   4.122   7.865   5.227
 5446WAT     H117920   4.053   7.846   5.290
 5446WAT     H217921   4.196   7.894   5.280
 5447WAT      O17922   3.194   7.649   4.323
 5447WAT     H117923   3.165   7.706   4.394
 5447WAT     H217924   3.269   7.601   4.359
 5448WAT      O17925   3.213   8.043   3.444
 5448WAT     H117926   3.205   8.138   3.458
 5448WAT     H217927   3.178   8.029   3.356
 5449WAT      O17928   4.349   8.249   4.510
 5449WAT     H117929   4.276   8.300   4.545
 5449WAT     H217930   4.310   8.168   4.480
 5450WAT      O17931   3.993   7.917   4.351
 5450WAT     H117932   3.993   7.873   4.266
 5450WAT     H217933   4.083   7.949   4.361
 5451WAT      O17934   3.578   7.905   4.247
 5451WAT     H117935   3.544   7.953   4.322
 5451WAT     H217936   3.502   7.860   4.211
 5452WAT      O17937   3.999   8.017   3.650
 5452WAT     H117938   4.011   8.013   3.745
 5452WAT     H217939   3.961   8.103   3.634
 5453WAT      O17940   4.396   7.795   4.451
 5453WAT     H117941   4.397   7.840   4.536
 5453WAT     H217942   4.371   7.705   4.473
 5454WAT      O17943   3.900   8.248   3.590
 5454WAT     H117944   3.844   8.203   3.527
 5454WAT     H217945   3.971   8.284   3.536
 5455WAT      O17946   4.738   7.536   5.035
 5455WAT     H117947   4.771   7.463   5.088
 5455WAT     H217948   4.742   7.504   4.945
 5456WAT      O17949   3.408   8.638   4.977
 5456WAT     H117950   3.370   8.574   5.037
 5456WAT     H217951   3.439   8.708   5.034
 5457WAT      O17952   4.023   8.323   4.525
 5457WAT     H117953   4.060   8.275   4.600
 5457WAT     H217954   4.004   8.410   4.559
 5458WAT      O17955   3.310   7.797   4.138
 5458WAT     H117956   3.281   7.761   4.222
 5458WAT     H217957   3.303   7.724   4.077
 5459WAT      O17958   3.802   8.227   4.757
 5459WAT     H117959   3.772   8.315   4.780
 5459WAT     H217960   3.898   8.233   4.761
 5460WAT      O17961   3.655   8.648   3.817
 5460WAT     H117962   3.578   8.594   3.801
 5460WAT     H217963   3.728   8.596   3.783
 5461WAT      O17964   4.731   8.547   4.396
 5461WAT     H117965   4.803   8.597   4.357
 5461WAT     H217966   4.711   8.479   4.332
 5462WAT      O17967   4.277   7.687   3.810
 5462WAT     H117968   4.196   7.637   3.803
 5462WAT     H217969   4.258   7.771   3.769
 5463WAT      O17970   4.269   8.554   4.985
 5463WAT     H117971   4.262   8.462   4.959
 5463WAT     H217972   4.206   8.564   5.056
 5464WAT      O17973   4.548   8.124   3.640
 5464WAT     H117974   4.637   8.155   3.622
 5464WAT     H217975   4.545   8.036   3.601
 5465WAT      O17976   3.659   8.614   4.181
 5465WAT     H117977   3.711   8.534   4.175
 5465WAT     H217978   3.614   8.608   4.265
 5466WAT      O17979   4.148   8.741   3.708
 5466WAT     H117980   4.182   8.815   3.658
 5466WAT     H217981   4.065   8.772   3.744
 5467WAT      O17982   3.408   8.311   4.872
 5467WAT     H117983   3.372   8.377   4.931
 5467WAT     H217984   3.378   8.228   4.909
 5468WAT      O17985   3.728   8.357   5.160
 5468WAT     H117986   3.698   8.371   5.071
 5468WAT     H217987   3.805   8.301   5.151
 5469WAT      O17988   4.262   8.836   4.960
 5469WAT     H117989   4.264   8.743   4.938
 5469WAT     H217990   4.191   8.845   5.024
 5470WAT      O17991   4.776   8.255   3.587
 5470WAT     H117992   4.767   8.298   3.502
 5470WAT     H217993   4.847   8.301   3.630
 5471WAT      O17994   4.883   8.501   4.894
 5471WAT     H117995   4.811   8.560   4.875
 5471WAT     H217996   4.936   8.500   4.815
 5472WAT      O17997   4.878   8.940   3.860
 5472WAT     H117998   4.814   8.875   3.887
 5472WAT     H217999   4.840   8.981   3.782
 5473WAT      O18000   4.436   8.673   4.244
 5473WAT     H118001   4.472   8.613   4.178
 5473WAT     H218002   4.348   8.641   4.261
 5474WAT      O18003   4.045   8.749   3.985
 5474WAT     H118004   4.114   8.804   4.023
 5474WAT     H218005   3.966   8.804   3.989
 5475WAT      O18006   3.259   8.311   3.534
 5475WAT     H118007   3.346   8.339   3.563
 5475WAT     H218008   3.210   8.392   3.523
 5476WAT      O18009   3.975   8.450   3.946
 5476WAT     H118010   4.021   8.531   3.969
 5476WAT     H218011   3.940   8.418   4.029
 5477WAT      O18012   4.205   9.001   4.669
 5477WAT     H118013   4.270   9.021   4.737
 5477WAT     H218014   4.242   8.925   4.624
 5478WAT      O18015   3.565   7.484   3.993
 5478WAT     H118016   3.552   7.483   4.088
 5478WAT     H218017   3.483   7.518   3.958
 5479WAT      O18018   4.333   8.801   4.541
 5479WAT     H118019   4.397   8.731   4.552
 5479WAT     H218020   4.385   8.879   4.523
 5480WAT      O18021   4.717   8.829   3.513
 5480WAT     H118022   4.695   8.758   3.573
 5480WAT     H218023   4.678   8.805   3.430
 5481WAT      O18024   4.510   8.881   4.861
 5481WAT     H118025   4.544   8.940   4.929
 5481WAT     H218026   4.418   8.868   4.884
 5482WAT      O18027   3.265   7.660   4.940
 5482WAT     H118028   3.194   7.680   5.000
 5482WAT     H218029   3.307   7.582   4.977
 5483WAT      O18030   4.676   8.621   3.679
 5483WAT     H118031   4.647   8.667   3.758
 5483WAT     H218032   4.755   8.575   3.706
 5484WAT      O18033   3.294   9.059   5.038
 5484WAT     H118034   3.305   8.965   5.024
 5484WAT     H218035   3.229   9.085   4.973
 5485WAT      O18036   4.093   8.886   5.178
 5485WAT     H118037   4.061   8.814   5.233
 5485WAT     H218038   4.026   8.953   5.186
 5486WAT      O18039   3.897   8.970   3.673
 5486WAT     H118040   3.896   9.044   3.611
 5486WAT     H218041   3.805   8.946   3.682
 5487WAT      O18042   3.457   8.493   3.747
 5487WAT     H118043   3.397   8.567   3.748
 5487WAT     H218044   3.505   8.502   3.664
 5488WAT      O18045   4.415   7.909   4.715
 5488WAT     H118046   4.451   7.827   4.747
 5488WAT     H218047   4.329   7.915   4.756
 5489WAT      O18048   4.751   7.805   3.795
 5489WAT     H118049   4.688   7.815   3.724
 5489WAT     H218050   4.702   7.827   3.874
 5490WAT      O18051   4.196   8.977   3.539
 5490WAT     H118052   4.206   8.956   3.446
 5490WAT     H218053   4.106   8.951   3.559
 5491WAT      O18054   3.948   8.033   3.937
 5491WAT     H118055   3.877   8.079   3.981
 5491WAT     H218056   3.977   7.967   4.000
 5492WAT      O18057   4.111   8.175   4.737
 5492WAT     H118058   4.160   8.222   4.803
 5492WAT     H218059   4.125   8.082   4.758
 5493WAT      O18060   4.351   7.705   4.081
 5493WAT     H118061   4.339   7.707   3.986
 5493WAT     H218062   4.446   7.710   4.093
 5494WAT      O18063   3.768   7.863   3.675
 5494WAT     H118064   3.853   7.907   3.668
 5494WAT     H218065   3.732   7.895   3.757
 5495WAT      O18066   4.831   7.796   4.821
 5495WAT     H118067   4.781   7.870   4.855
 5495WAT     H218068   4.913   7.835   4.790
 5496WAT      O18069   4.661   8.321   4.166
 5496WAT     H118070   4.566   8.322   4.183
 5496WAT     H218071   4.692   8.242   4.210
 5497WAT      O18072   3.658   8.489   3.522
 5497WAT     H118073   3.735   8.478   3.578
 5497WAT     H218074   3.666   8.419   3.457
 5498WAT      O18075   3.528   8.232   3.590
 5498WAT     H118076   3.536   8.137   3.601
 5498WAT     H218077   3.617   8.265   3.601
 5499WAT      O18078   3.296   8.854   3.888
 5499WAT     H118079   3.204   8.878   3.887
 5499WAT     H218080   3.343   8.936   3.876
 5500WAT      O18081   4.392   8.776   5.214
 5500WAT     H118082   4.332   8.778   5.140
 5500WAT     H218083   4.362   8.703   5.268
 5501WAT      O18084   3.281   8.414   5.114
 5501WAT     H118085   3.331   8.356   5.171
 5501WAT     H218086   3.207   8.443   5.168
 5502WAT      O18087   3.971   8.686   3.469
 5502WAT     H118088   3.960   8.625   3.542
 5502WAT     H218089   3.954   8.634   3.391
 5503WAT      O18090   3.986   8.555   5.067
 5503WAT     H118091   3.909   8.612   5.059
 5503WAT     H218092   4.004   8.526   4.978
 5504WAT      O18093   4.295   8.592   3.530
 5504WAT     H118094   4.240   8.637   3.594
 5504WAT     H218095   4.357   8.542   3.582
 5505WAT      O18096   4.700   8.728   5.123
 5505WAT     H118097   4.774   8.762   5.073
 5505WAT     H218098   4.624   8.745   5.068
 5506WAT      O18099   3.484   8.228   5.203
 5506WAT     H118100   3.488   8.199   5.294
 5506WAT     H218101   3.569   8.268   5.187
 5507WAT      O18102   3.862   8.488   3.719
 5507WAT     H118103   3.904   8.472   3.804
 5507WAT     H218104   3.874   8.407   3.670
 5508WAT      O18105   3.678   8.086   5.000
 5508WAT     H118106   3.625   8.037   4.937
 5508WAT     H218107   3.745   8.129   4.947
 5509WAT      O18108   4.113   8.391   3.444
 5509WAT     H118109   4.165   8.319   3.407
 5509WAT     H218110   4.177   8.455   3.474
 5510WAT      O18111   4.568   8.533   4.976
 5510WAT     H118112   4.609   8.548   5.061
 5510WAT     H218113   4.474   8.546   4.993
 5511WAT      O18114   4.615   8.267   5.177
 5511WAT     H118115   4.673   8.192   5.168
 5511WAT     H218116   4.632   8.320   5.099
 5512WAT      O18117   3.727   7.783   5.008
 5512WAT     H118118   3.717   7.721   4.936
 5512WAT     H218119   3.669   7.856   4.985
 5513WAT      O18120   4.003   7.639   4.711
 5513WAT     H118121   3.958   7.641   4.627
 5513WAT     H218122   3.940   7.599   4.771
 5514WAT      O18123   4.044   8.528   4.773
 5514WAT     H118124   4.086   8.613   4.756
 5514WAT     H218125   3.952   8.542   4.750
 5515WAT      O18126   4.277   8.301   4.912
 5515WAT     H118127   4.289   8.242   4.986
 5515WAT     H218128   4.363   8.305   4.870
 5516WAT      O18129   4.511   8.357   4.769
 5516WAT     H118130   4.459   8.409   4.709
 5516WAT     H218131   4.546   8.420   4.832
 5517WAT      O18132   3.751   8.096   3.414
 5517WAT     H118133   3.731   8.009   3.450
 5517WAT     H218134   3.734   8.087   3.320
 5518WAT      O18135   3.954   7.956   5.038
 5518WAT     H118136   4.013   7.925   5.106
 5518WAT     H218137   3.872   7.908   5.053
 5519WAT      O18138   4.436   7.917   5.061
 5519WAT     H118139   4.367   7.851   5.054
 5519WAT     H218140   4.508   7.873   5.105
 5520WAT      O18141   4.499   7.577   3.667
 5520WAT     H118142   4.527   7.492   3.702
 5520WAT     H218143   4.422   7.600   3.718
 5521WAT      O18144   3.631   7.806   3.413
 5521WAT     H118145   3.661   7.806   3.322
 5521WAT     H218146   3.705   7.771   3.462
 5522WAT      O18147   3.953   7.700   3.511
 5522WAT     H118148   3.918   7.632   3.453
 5522WAT     H218149   3.973   7.654   3.593
 5523WAT      O18150   3.533   8.736   3.496
 5523WAT     H118151   3.577   8.790   3.562
 5523WAT     H218152   3.582   8.654   3.497
 5524WAT      O18153   3.255   9.015   4.241
 5524WAT     H118154   3.288   8.928   4.218
 5524WAT     H218155   3.298   9.036   4.324
 5525WAT      O18156   3.714   8.848   4.007
 5525WAT     H118157   3.684   8.836   4.097
 5525WAT     H218158   3.704   8.762   3.966
 5526WAT      O18159   4.867   9.052   4.944
 5526WAT     H118160   4.807   9.058   4.869
 5526WAT     H218161   4.880   8.958   4.957
 5527WAT      O18162   4.991   8.826   3.477
 5527WAT     H118163   4.908   8.833   3.525
 5527WAT     H218164   5.009   8.915   3.447
 5528WAT      O18165   4.937   8.501   3.728
 5528WAT     H118166   5.013   8.558   3.738
 5528WAT     H218167   4.938   8.444   3.805
 5529WAT      O18168   3.287   8.353   4.151
 5529WAT     H118169   3.221   8.326   4.086
 5529WAT     H218170   3.371   8.342   4.106
 5530WAT      O18171   5.037   8.586   4.212
 5530WAT     H118172   5.075   8.508   4.172
 5530WAT     H218173   5.101   8.655   4.194
 5531WAT      O18174   4.736   8.724   4.754
 5531WAT     H118175   4.654   8.767   4.780
 5531WAT     H218176   4.776   8.786   4.692
 5532WAT      O18177   4.942   8.530   3.444
 5532WAT     H118178   4.969   8.621   3.431
 5532WAT     H218179   4.923   8.524   3.537
 5533WAT      O18180   4.582   7.832   3.573
 5533WAT     H118181   4.624   7.814   3.489
 5533WAT     H218182   4.551   7.747   3.604
 5534WAT      O18183   4.932   8.324   3.943
 5534WAT     H118184   4.894   8.247   3.900
 5534WAT     H218185   4.859   8.362   3.992
 5535WAT      O18186   3.391   8.391   4.605
 5535WAT     H118187   3.427   8.383   4.693
 5535WAT     H218188   3.334   8.315   4.595
 5536WAT      O18189   4.871   8.238   4.906
 5536WAT     H118190   4.848   8.215   4.816
 5536WAT     H218191   4.897   8.330   4.902
 5537WAT      O18192   3.346   8.083   4.995
 5537WAT     H118193   3.256   8.079   5.029
 5537WAT     H218194   3.400   8.102   5.072
 5538WAT      O18195   4.715   7.761   5.184
 5538WAT     H118196   4.802   7.762   5.222
 5538WAT     H218197   4.716   7.687   5.123
 5539WAT      O18198   3.208   8.074   3.745
 5539WAT     H118199   3.118   8.100   3.728
 5539WAT     H218200   3.257   8.101   3.667
 5540WAT      O18201   4.859   8.146   4.273
 5540WAT     H118202   4.912   8.097   4.210
 5540WAT     H218203   4.918   8.160   4.347
 5541WAT      O18204   4.877   8.155   4.625
 5541WAT     H118205   4.782   8.151   4.637
 5541WAT     H218206   4.895   8.246   4.602
 5542WAT      O18207   3.463   7.980   3.536
 5542WAT     H118208   3.533   7.937   3.488
 5542WAT     H218209   3.391   7.986   3.473
 5543WAT      O18210   3.427   7.585   3.440
 5543WAT     H118211   3.500   7.639   3.472
 5543WAT     H218212   3.454   7.558   3.353
 5544WAT      O18213   4.808   8.072   3.867
 5544WAT     H118214   4.858   8.049   3.945
 5544WAT     H218215   4.788   7.988   3.825
 5545WAT      O18216   3.396   7.510   4.430
 5545WAT     H118217   3.461   7.455   4.386
 5545WAT     H218218   3.438   7.535   4.512
 5546WAT      O18219   4.951   7.935   4.120
 5546WAT     H118220   4.940   7.920   4.214
 5546WAT     H218221   5.027   7.883   4.096
 5547WAT      O18222   4.786   7.529   4.766
 5547WAT     H118223   4.849   7.591   4.803
 5547WAT     H218224   4.800   7.533   4.672
 5548WAT      O18225   5.040   7.719   3.444
 5548WAT     H118226   5.132   7.705   3.423
 5548WAT     H218227   5.038   7.727   3.540
 5549WAT      O18228   5.047   7.796   3.707
 5549WAT     H118229   4.968   7.789   3.760
 5549WAT     H218230   5.068   7.889   3.706
 5550WAT      O18231   3.371   7.526   4.705
 5550WAT     H118232   3.337   7.571   4.781
 5550WAT     H218233   3.338   7.436   4.713
 5551WAT      O18234   3.532   8.843   5.121
 5551WAT     H118235   3.528   8.806   5.209
 5551WAT     H218236   3.545   8.937   5.135
 5552WAT      O18237   3.902   8.998   4.681
 5552WAT     H118238   3.878   9.025   4.593
 5552WAT     H218239   3.996   9.015   4.687
 5553WAT      O18240   4.123   7.645   5.057
 5553WAT     H118241   4.117   7.704   5.132
 5553WAT     H218242   4.217   7.634   5.042
 5554WAT      O18243   4.386   7.610   5.021
 5554WAT     H118244   4.448   7.642   4.955
 5554WAT     H218245   4.441   7.562   5.083
 5555WAT      O18246   3.439   7.478   5.032
 5555WAT     H118247   3.494   7.460   4.956
 5555WAT     H218248   3.445   7.399   5.086
 5556WAT      O18249   4.461   7.467   4.653
 5556WAT     H118250   4.373   7.500   4.633
 5556WAT     H218251   4.450   7.419   4.736
 5557WAT      O18252   4.551   7.687   4.792
 5557WAT     H118253   4.518   7.606   4.754
 5557WAT     H218254   4.646   7.683   4.779
 5558WAT      O18255   3.479   8.874   4.728
 5558WAT     H118256   3.406   8.812   4.721
 5558WAT     H218257   3.485   8.913   4.641
 5559WAT      O18258   4.235   7.558   4.547
 5559WAT     H118259   4.157   7.606   4.575
 5559WAT     H218260   4.206   7.468   4.536
 5560WAT      O18261   4.691   7.629   4.352
 5560WAT     H118262   4.735   7.623   4.267
 5560WAT     H218263   4.664   7.720   4.359
 5561WAT      O18264   4.877   7.592   4.153
 5561WAT     H118265   4.871   7.497   4.138
 5561WAT     H218266   4.955   7.603   4.207
 5562WAT      O18267   3.370   7.589   3.799
 5562WAT     H118268   3.446   7.600   3.742
 5562WAT     H218269   3.323   7.673   3.795
 5563WAT      O18270   4.024   7.800   4.098
 5563WAT     H118271   3.943   7.763   4.064
 5563WAT     H218272   4.074   7.725   4.129
 5564WAT      O18273   4.474   7.467   4.222
 5564WAT     H118274   4.534   7.524   4.270
 5564WAT     H218275   4.400   7.523   4.200
 5565WAT      O18276   4.788   7.507   3.750
 5565WAT     H118277   4.808   7.597   3.776
 5565WAT     H218278   4.710   7.484   3.799
 5566WAT      O18279   3.607   7.642   3.653
 5566WAT     H118280   3.660   7.563   3.641
 5566WAT     H218281   3.670   7.709   3.677
 5567WAT      O18282   3.826   7.615   3.959
 5567WAT     H118283   3.763   7.545   3.976
 5567WAT     H218284   3.772   7.691   3.937
 5568WAT      O18285   3.839   7.543   5.202
 5568WAT     H118286   3.811   7.593   5.126
 5568WAT     H218287   3.877   7.463   5.166
 5569WAT      O18288   3.644   8.882   3.682
 5569WAT     H118289   3.581   8.928   3.736
 5569WAT     H218290   3.656   8.797   3.725
 5570WAT      O18291   4.499   7.485   5.260
 5570WAT     H118292   4.488   7.517   5.350
 5570WAT     H218293   4.581   7.525   5.231
 5571WAT      O18294   4.390   8.287   2.297
 5571WAT     H118295   4.382   8.195   2.270
 5571WAT     H218296   4.348   8.336   2.226
 5572WAT      O18297   4.203   8.464   2.485
 5572WAT     H118298   4.125   8.416   2.514
 5572WAT     H218299   4.268   8.396   2.467
 5573WAT      O18300   3.604   8.496   2.572
 5573WAT     H118301   3.521   8.470   2.612
 5573WAT     H218302   3.665   8.503   2.646
 5574WAT      O18303   4.605   8.905   2.363
 5574WAT     H118304   4.559   8.828   2.396
 5574WAT     H218305   4.686   8.908   2.413
 5575WAT      O18306   3.602   8.899   2.592
 5575WAT     H118307   3.633   8.810   2.574
 5575WAT     H218308   3.677   8.955   2.569
 5576WAT      O18309   3.445   7.992   1.951
 5576WAT     H118310   3.357   8.026   1.941
 5576WAT     H218311   3.474   7.972   1.862
 5577WAT      O18312   3.242   8.252   2.539
 5577WAT     H118313   3.299   8.175   2.539
 5577WAT     H218314   3.242   8.282   2.448
 5578WAT      O18315   4.147   8.732   2.485
 5578WAT     H118316   4.140   8.638   2.469
 5578WAT     H218317   4.223   8.741   2.543
 5579WAT      O18318   3.366   7.792   2.718
 5579WAT     H118319   3.348   7.703   2.746
 5579WAT     H218320   3.326   7.847   2.785
 5580WAT      O18321   4.250   8.013   2.508
 5580WAT     H118322   4.288   7.925   2.497
 5580WAT     H218323   4.240   8.046   2.419
 5581WAT      O18324   3.663   7.850   2.054
 5581WAT     H118325   3.674   7.940   2.085
 5581WAT     H218326   3.572   7.845   2.025
 5582WAT      O18327   4.628   7.762   2.201
 5582WAT     H118328   4.710   7.713   2.206
 5582WAT     H218329   4.632   7.821   2.277
 5583WAT      O18330   3.428   8.042   2.579
 5583WAT     H118331   3.496   8.068   2.641
 5583WAT     H218332   3.396   7.958   2.612
 5584WAT      O18333   3.847   8.147   2.488
 5584WAT     H118334   3.898   8.197   2.552
 5584WAT     H218335   3.900   8.069   2.470
 5585WAT      O18336   5.057   7.964   2.858
 5585WAT     H118337   4.987   8.003   2.806
 5585WAT     H218338   5.084   8.033   2.918
 5586WAT      O18339   3.675   7.611   2.914
 5586WAT     H118340   3.676   7.662   2.834
 5586WAT     H218341   3.592   7.563   2.912
 5587WAT      O18342   4.314   8.622   2.064
 5587WAT     H118343   4.252   8.668   2.008
 5587WAT     H218344   4.365   8.691   2.106
 5588WAT      O18345   3.800   8.575   2.732
 5588WAT     H118346   3.767   8.637   2.796
 5588WAT     H218347   3.818   8.627   2.654
 5589WAT      O18348   4.652   7.956   2.479
 5589WAT     H118349   4.581   7.985   2.537
 5589WAT     H218350   4.688   8.037   2.443
 5590WAT      O18351   3.644   7.782   2.715
 5590WAT     H118352   3.678   7.866   2.685
 5590WAT     H218353   3.550   7.797   2.727
 5591WAT      O18354   3.722   8.772   2.913
 5591WAT     H118355   3.783   8.839   2.885
 5591WAT     H218356   3.636   8.812   2.904
 5592WAT      O18357   3.251   8.691   1.801
 5592WAT     H118358   3.213   8.739   1.728
 5592WAT     H218359   3.277   8.758   1.865
 5593WAT      O18360   4.813   8.918   2.705
 5593WAT     H118361   4.745   8.985   2.704
 5593WAT     H218362   4.867   8.938   2.628
 5594WAT      O18363   4.959   7.901   2.518
 5594WAT     H118364   4.864   7.904   2.531
 5594WAT     H218365   4.991   7.982   2.556
 5595WAT      O18366   4.012   7.531   2.347
 5595WAT     H118367   4.043   7.475   2.276
 5595WAT     H218368   3.919   7.544   2.329
 5596WAT      O18369   4.696   8.775   2.085
 5596WAT     H118370   4.685   8.680   2.098
 5596WAT     H218371   4.696   8.811   2.174
 5597WAT      O18372   4.507   8.593   2.709
 5597WAT     H118373   4.549   8.571   2.626
 5597WAT     H218374   4.579   8.618   2.766
 5598WAT      O18375   4.251   8.337   2.021
 5598WAT     H118376   4.158   8.331   2.044
 5598WAT     H218377   4.266   8.431   2.009
 5599WAT      O18378   4.249   7.964   1.721
 5599WAT     H118379   4.155   7.980   1.729
 5599WAT     H218380   4.281   8.036   1.666
 5600WAT      O18381   4.902   8.433   2.718
 5600WAT     H118382   4.819   8.439   2.671
 5600WAT     H218383   4.961   8.491   2.672
 5601WAT      O18384   4.654   8.493   2.071
 5601WAT     H118385   4.592   8.460   2.007
 5601WAT     H218386   4.652   8.429   2.142
 5602WAT      O18387   4.598   8.111   2.813
 5602WAT     H118388   4.557   8.194   2.838
 5602WAT     H218389   4.525   8.053   2.794
 5603WAT      O18390   3.811   8.390   2.299
 5603WAT     H118391   3.771   8.319   2.250
 5603WAT     H218392   3.820   8.355   2.388
 5604WAT      O18393   3.858   8.758   2.515
 5604WAT     H118394   3.828   8.698   2.448
 5604WAT     H218395   3.953   8.762   2.504
 5605WAT      O18396   3.683   8.067   2.677
 5605WAT     H118397   3.738   8.078   2.600
 5605WAT     H218398   3.734   8.105   2.749
 5606WAT      O18399   3.767   8.732   3.181
 5606WAT     H118400   3.678   8.755   3.205
 5606WAT     H218401   3.770   8.745   3.086
 5607WAT      O18402   4.471   8.417   1.772
 5607WAT     H118403   4.515   8.333   1.757
 5607WAT     H218404   4.543   8.481   1.781
 5608WAT      O18405   3.650   8.419   3.038
 5608WAT     H118406   3.636   8.507   3.075
 5608WAT     H218407   3.562   8.385   3.024
 5609WAT      O18408   4.282   8.911   2.169
 5609WAT     H118409   4.326   8.985   2.127
 5609WAT     H218410   4.276   8.935   2.261
 5610WAT      O18411   3.830   9.014   3.259
 5610WAT     H118412   3.827   9.054   3.172
 5610WAT     H218413   3.813   8.921   3.243
 5611WAT      O18414   4.829   7.543   1.603
 5611WAT     H118415   4.798   7.552   1.693
 5611WAT     H218416   4.906   7.600   1.598
 5612WAT      O18417   3.481   8.279   2.049
 5612WAT     H118418   3.469   8.352   1.988
 5612WAT     H218419   3.450   8.202   2.001
 5613WAT      O18420   3.245   8.596   2.630
 5613WAT     H118421   3.253   8.610   2.535
 5613WAT     H218422   3.307   8.526   2.649
 5614WAT      O18423   3.370   8.766   2.271
 5614WAT     H118424   3.329   8.781   2.185
 5614WAT     H218425   3.459   8.738   2.251
 5615WAT      O18426   4.965   8.811   3.105
 5615WAT     H118427   4.978   8.787   3.013
 5615WAT     H218428   4.969   8.728   3.152
 5616WAT      O18429   4.519   8.961   1.760
 5616WAT     H118430   4.450   8.961   1.694
 5616WAT     H218431   4.593   8.918   1.717
 5617WAT      O18432   4.950   8.016   3.201
 5617WAT     H118433   4.889   8.067   3.148
 5617WAT     H218434   4.918   7.926   3.195
 5618WAT      O18435   3.251   8.701   2.884
 5618WAT     H118436   3.267   8.654   2.802
 5618WAT     H218437   3.297   8.650   2.950
 5619WAT      O18438   3.728   7.614   2.387
 5619WAT     H118439   3.684   7.692   2.354
 5619WAT     H218440   3.784   7.646   2.458
 5620WAT      O18441   4.157   7.900   2.948
 5620WAT     H118442   4.110   7.921   3.029
 5620WAT     H218443   4.116   7.819   2.917
 5621WAT      O18444   4.657   8.022   3.061
 5621WAT     H118445   4.572   7.992   3.093
 5621WAT     H218446   4.641   8.047   2.970
 5622WAT      O18447   4.366   8.172   3.271
 5622WAT     H118448   4.399   8.089   3.237
 5622WAT     H218449   4.445   8.225   3.285
 5623WAT      O18450   4.040   7.576   1.875
 5623WAT     H118451   3.977   7.575   1.948
 5623WAT     H218452   4.031   7.489   1.836
 5624WAT      O18453   3.932   7.668   2.573
 5624WAT     H118454   3.961   7.759   2.565
 5624WAT     H218455   3.987   7.619   2.512
 5625WAT      O18456   3.707   8.126   2.160
 5625WAT     H118457   3.684   8.104   2.251
 5625WAT     H218458   3.629   8.169   2.126
 5626WAT      O18459   4.430   8.127   2.020
 5626WAT     H118460   4.370   8.199   2.002
 5626WAT     H218461   4.485   8.120   1.942
 5627WAT      O18462   3.951   8.216   3.227
 5627WAT     H118463   3.942   8.122   3.212
 5627WAT     H218464   4.035   8.238   3.187
 5628WAT      O18465   4.291   7.990   2.223
 5628WAT     H118466   4.330   8.022   2.142
 5628WAT     H218467   4.327   7.902   2.235
 5629WAT      O18468   3.464   7.857   3.042
 5629WAT     H118469   3.425   7.942   3.063
 5629WAT     H218470   3.395   7.793   3.061
 5630WAT      O18471   4.122   7.865   3.349
 5630WAT     H118472   4.053   7.846   3.413
 5630WAT     H218473   4.196   7.894   3.402
 5631WAT      O18474   3.194   7.649   2.445
 5631WAT     H118475   3.165   7.706   2.517
 5631WAT     H218476   3.269   7.601   2.482
 5632WAT      O18477   3.213   8.043   1.566
 5632WAT     H118478   3.205   8.138   1.581
 5632WAT     H218479   3.178   8.029   1.479
 5633WAT      O18480   4.349   8.249   2.633
 5633WAT     H118481   4.276   8.300   2.668
 5633WAT     H218482   4.310   8.168   2.603
 5634WAT      O18483   3.993   7.917   2.473
 5634WAT     H118484   3.993   7.873   2.388
 5634WAT     H218485   4.083   7.949   2.484
 5635WAT      O18486   3.578   7.905   2.369
 5635WAT     H118487   3.544   7.953   2.445
 5635WAT     H218488   3.502   7.860   2.333
 5636WAT      O18489   3.999   8.017   1.772
 5636WAT     H118490   4.011   8.013   1.867
 5636WAT     H218491   3.961   8.103   1.757
 5637WAT      O18492   4.396   7.795   2.574
 5637WAT     H118493   4.397   7.840   2.658
 5637WAT     H218494   4.371   7.705   2.595
 5638WAT      O18495   3.900   8.248   1.712
 5638WAT     H118496   3.844   8.203   1.649
 5638WAT     H218497   3.971   8.284   1.659
 5639WAT      O18498   4.738   7.536   3.158
 5639WAT     H118499   4.771   7.463   3.210
 5639WAT     H218500   4.742   7.504   3.068
 5640WAT      O18501   3.408   8.638   3.100
 5640WAT     H118502   3.370   8.574   3.160
 5640WAT     H218503   3.439   8.708   3.157
 5641WAT      O18504   4.023   8.323   2.648
 5641WAT     H118505   4.060   8.275   2.722
 5641WAT     H218506   4.004   8.410   2.682
 5642WAT      O18507   3.310   7.797   2.261
 5642WAT     H118508   3.281   7.761   2.345
 5642WAT     H218509   3.303   7.724   2.199
 5643WAT      O18510   3.802   8.227   2.880
 5643WAT     H118511   3.772   8.315   2.902
 5643WAT     H218512   3.898   8.233   2.883
 5644WAT      O18513   3.655   8.648   1.939
 5644WAT     H118514   3.578   8.594   1.923
 5644WAT     H218515   3.728   8.596   1.906
 5645WAT      O18516   4.731   8.547   2.519
 5645WAT     H118517   4.803   8.597   2.480
 5645WAT     H218518   4.711   8.479   2.454
 5646WAT      O18519   4.277   7.687   1.933
 5646WAT     H118520   4.196   7.637   1.925
 5646WAT     H218521   4.258   7.771   1.891
 5647WAT      O18522   4.269   8.554   3.107
 5647WAT     H118523   4.262   8.462   3.082
 5647WAT     H218524   4.206   8.564   3.179
 5648WAT      O18525   4.548   8.124   1.763
 5648WAT     H118526   4.637   8.155   1.745
 5648WAT     H218527   4.545   8.036   1.723
 5649WAT      O18528   3.659   8.614   2.303
 5649WAT     H118529   3.711   8.534   2.298
 5649WAT     H218530   3.614   8.608   2.387
 5650WAT      O18531   4.148   8.741   1.830
 5650WAT     H118532   4.182   8.815   1.781
 5650WAT     H218533   4.065   8.772   1.867
 5651WAT      O18534   3.408   8.311   2.994
 5651WAT     H118535   3.372   8.377   3.053
 5651WAT     H218536   3.378   8.228   3.032
 5652WAT      O18537   3.728   8.357   3.283
 5652WAT     H118538   3.698   8.371   3.193
 5652WAT     H218539   3.805   8.301   3.274
 5653WAT      O18540   4.262   8.836   3.082
 5653WAT     H118541   4.264   8.743   3.061
 5653WAT     H218542   4.191   8.845   3.146
 5654WAT      O18543   4.776   8.255   1.709
 5654WAT     H118544   4.767   8.298   1.624
 5654WAT     H218545   4.847   8.301   1.753
 5655WAT      O18546   4.883   8.501   3.017
 5655WAT     H118547   4.811   8.560   2.997
 5655WAT     H218548   4.936   8.500   2.937
 5656WAT      O18549   4.878   8.940   1.982
 5656WAT     H118550   4.814   8.875   2.010
 5656WAT     H218551   4.840   8.981   1.905
 5657WAT      O18552   4.436   8.673   2.367
 5657WAT     H118553   4.472   8.613   2.301
 5657WAT     H218554   4.348   8.641   2.384
 5658WAT      O18555   4.045   8.749   2.108
 5658WAT     H118556   4.114   8.804   2.146
 5658WAT     H218557   3.966   8.804   2.111
 5659WAT      O18558   3.259   8.311   1.657
 5659WAT     H118559   3.346   8.339   1.685
 5659WAT     H218560   3.210   8.392   1.645
 5660WAT      O18561   3.975   8.450   2.069
 5660WAT     H118562   4.021   8.531   2.091
 5660WAT     H218563   3.940   8.418   2.152
 5661WAT      O18564   4.205   9.001   2.792
 5661WAT     H118565   4.270   9.021   2.859
 5661WAT     H218566   4.242   8.925   2.746
 5662WAT      O18567   3.565   7.484   2.116
 5662WAT     H118568   3.552   7.483   2.211
 5662WAT     H218569   3.483   7.518   2.081
 5663WAT      O18570   4.333   8.801   2.664
 5663WAT     H118571   4.397   8.731   2.675
 5663WAT     H218572   4.385   8.879   2.645
 5664WAT      O18573   4.717   8.829   1.636
 5664WAT     H118574   4.695   8.758   1.695
 5664WAT     H218575   4.678   8.805   1.552
 5665WAT      O18576   4.510   8.881   2.984
 5665WAT     H118577   4.544   8.940   3.052
 5665WAT     H218578   4.418   8.868   3.007
 5666WAT      O18579   3.265   7.660   3.062
 5666WAT     H118580   3.194   7.680   3.123
 5666WAT     H218581   3.307   7.582   3.099
 5667WAT      O18582   4.676   8.621   1.802
 5667WAT     H118583   4.647   8.667   1.881
 5667WAT     H218584   4.755   8.575   1.829
 5668WAT      O18585   3.294   9.059   3.161
 5668WAT     H118586   3.305   8.965   3.147
 5668WAT     H218587   3.229   9.085   3.096
 5669WAT      O18588   4.093   8.886   3.301
 5669WAT     H118589   4.061   8.814   3.355
 5669WAT     H218590   4.026   8.953   3.308
 5670WAT      O18591   3.897   8.970   1.795
 5670WAT     H118592   3.896   9.044   1.734
 5670WAT     H218593   3.805   8.946   1.804
 5671WAT      O18594   3.457   8.493   1.870
 5671WAT     H118595   3.397   8.567   1.871
 5671WAT     H218596   3.505   8.502   1.787
 5672WAT      O18597   4.415   7.909   2.837
 5672WAT     H118598   4.451   7.827   2.870
 5672WAT     H218599   4.329   7.915   2.879
 5673WAT      O18600   4.751   7.805   1.918
 5673WAT     H118601   4.688   7.815   1.847
 5673WAT     H218602   4.702   7.827   1.997
 5674WAT      O18603   4.196   8.977   1.661
 5674WAT     H118604   4.206   8.956   1.568
 5674WAT     H218605   4.106   8.951   1.682
 5675WAT      O18606   3.948   8.033   2.060
 5675WAT     H118607   3.877   8.079   2.104
 5675WAT     H218608   3.977   7.967   2.123
 5676WAT      O18609   4.111   8.175   2.860
 5676WAT     H118610   4.160   8.222   2.926
 5676WAT     H218611   4.125   8.082   2.880
 5677WAT      O18612   4.351   7.705   2.204
 5677WAT     H118613   4.339   7.707   2.109
 5677WAT     H218614   4.446   7.710   2.216
 5678WAT      O18615   3.768   7.863   1.797
 5678WAT     H118616   3.853   7.907   1.790
 5678WAT     H218617   3.732   7.895   1.880
 5679WAT      O18618   4.831   7.796   2.944
 5679WAT     H118619   4.781   7.870   2.978
 5679WAT     H218620   4.913   7.835   2.912
 5680WAT      O18621   4.661   8.321   2.288
 5680WAT     H118622   4.566   8.322   2.306
 5680WAT     H218623   4.692   8.242   2.333
 5681WAT      O18624   3.658   8.489   1.644
 5681WAT     H118625   3.735   8.478   1.701
 5681WAT     H218626   3.666   8.419   1.579
 5682WAT      O18627   3.528   8.232   1.713
 5682WAT     H118628   3.536   8.137   1.724
 5682WAT     H218629   3.617   8.265   1.723
 5683WAT      O18630   3.296   8.854   2.011
 5683WAT     H118631   3.204   8.878   2.010
 5683WAT     H218632   3.343   8.936   1.998
 5684WAT      O18633   4.392   8.776   3.337
 5684WAT     H118634   4.332   8.778   3.263
 5684WAT     H218635   4.362   8.703   3.390
 5685WAT      O18636   3.281   8.414   3.236
 5685WAT     H118637   3.331   8.356   3.294
 5685WAT     H218638   3.207   8.443   3.290
 5686WAT      O18639   3.971   8.686   1.592
 5686WAT     H118640   3.960   8.625   1.664
 5686WAT     H218641   3.954   8.634   1.513
 5687WAT      O18642   3.986   8.555   3.190
 5687WAT     H118643   3.909   8.612   3.181
 5687WAT     H218644   4.004   8.526   3.100
 5688WAT      O18645   4.295   8.592   1.652
 5688WAT     H118646   4.240   8.637   1.717
 5688WAT     H218647   4.357   8.542   1.705
 5689WAT      O18648   4.700   8.728   3.245
 5689WAT     H118649   4.774   8.762   3.195
 5689WAT     H218650   4.624   8.745   3.190
 5690WAT      O18651   3.484   8.228   3.326
 5690WAT     H118652   3.488   8.199   3.417
 5690WAT     H218653   3.569   8.268   3.310
 5691WAT      O18654   3.862   8.488   1.842
 5691WAT     H118655   3.904   8.472   1.926
 5691WAT     H218656   3.874   8.407   1.792
 5692WAT      O18657   3.678   8.086   3.123
 5692WAT     H118658   3.625   8.037   3.060
 5692WAT     H218659   3.745   8.129   3.069
 5693WAT      O18660   4.113   8.391   1.567
 5693WAT     H118661   4.165   8.319   1.530
 5693WAT     H218662   4.177   8.455   1.597
 5694WAT      O18663   4.568   8.533   3.099
 5694WAT     H118664   4.609   8.548   3.184
 5694WAT     H218665   4.474   8.546   3.115
 5695WAT      O18666   4.615   8.267   3.299
 5695WAT     H118667   4.673   8.192   3.291
 5695WAT     H218668   4.632   8.320   3.222
 5696WAT      O18669   3.727   7.783   3.131
 5696WAT     H118670   3.717   7.721   3.058
 5696WAT     H218671   3.669   7.856   3.108
 5697WAT      O18672   4.003   7.639   2.834
 5697WAT     H118673   3.958   7.641   2.749
 5697WAT     H218674   3.940   7.599   2.894
 5698WAT      O18675   4.044   8.528   2.896
 5698WAT     H118676   4.086   8.613   2.879
 5698WAT     H218677   3.952   8.542   2.873
 5699WAT      O18678   4.277   8.301   3.034
 5699WAT     H118679   4.289   8.242   3.108
 5699WAT     H218680   4.363   8.305   2.992
 5700WAT      O18681   4.511   8.357   2.892
 5700WAT     H118682   4.459   8.409   2.832
 5700WAT     H218683   4.546   8.420   2.955
 5701WAT      O18684   3.751   8.096   1.536
 5701WAT     H118685   3.731   8.009   1.573
 5701WAT     H218686   3.734   8.087   1.443
 5702WAT      O18687   3.954   7.956   3.160
 5702WAT     H118688   4.013   7.925   3.229
 5702WAT     H218689   3.872   7.908   3.176
 5703WAT      O18690   4.436   7.917   3.183
 5703WAT     H118691   4.367   7.851   3.177
 5703WAT     H218692   4.508   7.873   3.228
 5704WAT      O18693   4.499   7.577   1.789
 5704WAT     H118694   4.527   7.492   1.825
 5704WAT     H218695   4.422   7.600   1.841
 5705WAT      O18696   3.631   7.806   1.535
 5705WAT     H118697   3.661   7.806   1.444
 5705WAT     H218698   3.705   7.771   1.585
 5706WAT      O18699   3.953   7.700   1.634
 5706WAT     H118700   3.918   7.632   1.576
 5706WAT     H218701   3.973   7.654   1.715
 5707WAT      O18702   3.533   8.736   1.619
 5707WAT     H118703   3.577   8.790   1.684
 5707WAT     H218704   3.582   8.654   1.619
 5708WAT      O18705   3.255   9.015   2.364
 5708WAT     H118706   3.288   8.928   2.341
 5708WAT     H218707   3.298   9.036   2.447
 5709WAT      O18708   3.714   8.848   2.130
 5709WAT     H118709   3.684   8.836   2.220
 5709WAT     H218710   3.704   8.762   2.089
 5710WAT      O18711   4.867   9.052   3.066
 5710WAT     H118712   4.807   9.058   2.992
 5710WAT     H218713   4.880   8.958   3.079
 5711WAT      O18714   4.991   8.826   1.600
 5711WAT     H118715   4.908   8.833   1.647
 5711WAT     H218716   5.009   8.915   1.570
 5712WAT      O18717   4.937   8.501   1.850
 5712WAT     H118718   5.013   8.558   1.861
 5712WAT     H218719   4.938   8.444   1.927
 5713WAT      O18720   3.287   8.353   2.273
 5713WAT     H118721   3.221   8.326   2.209
 5713WAT     H218722   3.371   8.342   2.228
 5714WAT      O18723   5.037   8.586   2.335
 5714WAT     H118724   5.075   8.508   2.294
 5714WAT     H218725   5.101   8.655   2.317
 5715WAT      O18726   4.736   8.724   2.876
 5715WAT     H118727   4.654   8.767   2.902
 5715WAT     H218728   4.776   8.786   2.815
 5716WAT      O18729   4.942   8.530   1.566
 5716WAT     H118730   4.969   8.621   1.553
 5716WAT     H218731   4.923   8.524   1.660
 5717WAT      O18732   4.582   7.832   1.696
 5717WAT     H118733   4.624   7.814   1.612
 5717WAT     H218734   4.551   7.747   1.727
 5718WAT      O18735   4.932   8.324   2.065
 5718WAT     H118736   4.894   8.247   2.022
 5718WAT     H218737   4.859   8.362   2.114
 5719WAT      O18738   3.391   8.391   2.727
 5719WAT     H118739   3.427   8.383   2.815
 5719WAT     H218740   3.334   8.315   2.718
 5720WAT      O18741   4.871   8.238   3.029
 5720WAT     H118742   4.848   8.215   2.939
 5720WAT     H218743   4.897   8.330   3.024
 5721WAT      O18744   3.346   8.083   3.118
 5721WAT     H118745   3.256   8.079   3.152
 5721WAT     H218746   3.400   8.102   3.195
 5722WAT      O18747   4.715   7.761   3.307
 5722WAT     H118748   4.802   7.762   3.345
 5722WAT     H218749   4.716   7.687   3.246
 5723WAT      O18750   3.208   8.074   1.868
 5723WAT     H118751   3.118   8.100   1.850
 5723WAT     H218752   3.257   8.101   1.790
 5724WAT      O18753   4.859   8.146   2.395
 5724WAT     H118754   4.912   8.097   2.332
 5724WAT     H218755   4.918   8.160   2.470
 5725WAT      O18756   4.877   8.155   2.748
 5725WAT     H118757   4.782   8.151   2.759
 5725WAT     H218758   4.895   8.246   2.724
 5726WAT      O18759   3.463   7.980   1.659
 5726WAT     H118760   3.533   7.937   1.610
 5726WAT     H218761   3.391   7.986   1.595
 5727WAT      O18762   3.427   7.585   1.563
 5727WAT     H118763   3.500   7.639   1.594
 5727WAT     H218764   3.454   7.558   1.475
 5728WAT      O18765   4.808   8.072   1.989
 5728WAT     H118766   4.858   8.049   2.068
 5728WAT     H218767   4.788   7.988   1.948
 5729WAT      O18768   3.396   7.510   2.553
 5729WAT     H118769   3.461   7.455   2.509
 5729WAT     H218770   3.438   7.535   2.635
 5730WAT      O18771   4.951   7.935   2.243
 5730WAT     H118772   4.940   7.920   2.337
 5730WAT     H218773   5.027   7.883   2.219
 5731WAT      O18774   4.786   7.529   2.889
 5731WAT     H118775   4.849   7.591   2.925
 5731WAT     H218776   4.800   7.533   2.794
 5732WAT      O18777   5.040   7.719   1.567
 5732WAT     H118778   5.132   7.705   1.546
 5732WAT     H218779   5.038   7.727   1.662
 5733WAT      O18780   5.047   7.796   1.829
 5733WAT     H118781   4.968   7.789   1.882
 5733WAT     H218782   5.068   7.889   1.828
 5734WAT      O18783   3.532   8.843   3.244
 5734WAT     H118784   3.528   8.806   3.332
 5734WAT     H218785   3.545   8.937   3.258
 5735WAT      O18786   3.902   8.998   2.804
 5735WAT     H118787   3.878   9.025   2.715
 5735WAT     H218788   3.996   9.015   2.809
 5736WAT      O18789   4.123   7.645   3.179
 5736WAT     H118790   4.117   7.704   3.254
 5736WAT     H218791   4.217   7.634   3.165
 5737WAT      O18792   4.386   7.610   3.143
 5737WAT     H118793   4.448   7.642   3.077
 5737WAT     H218794   4.441   7.562   3.205
 5738WAT      O18795   3.439   7.478   3.155
 5738WAT     H118796   3.494   7.460   3.078
 5738WAT     H218797   3.445   7.399   3.208
 5739WAT      O18798   4.461   7.467   2.776
 5739WAT     H118799   4.373   7.500   2.756
 5739WAT     H218800   4.450   7.419   2.858
 5740WAT      O18801   4.551   7.687   2.914
 5740WAT     H118802   4.518   7.606   2.876
 5740WAT     H218803   4.646   7.683   2.902
 5741WAT      O18804   3.479   8.874   2.851
 5741WAT     H118805   3.406   8.812   2.844
 5741WAT     H218806   3.485   8.913   2.764
 5742WAT      O18807   4.235   7.558   2.670
 5742WAT     H118808   4.157   7.606   2.698
 5742WAT     H218809   4.206   7.468   2.659
 5743WAT      O18810   4.691   7.629   2.474
 5743WAT     H118811   4.735   7.623   2.390
 5743WAT     H218812   4.664   7.720   2.481
 5744WAT      O18813   4.877   7.592   2.275
 5744WAT     H118814   4.871   7.497   2.261
 5744WAT     H218815   4.955   7.603   2.330
 5745WAT      O18816   3.370   7.589   1.922
 5745WAT     H118817   3.446   7.600   1.865
 5745WAT     H218818   3.323   7.673   1.917
 5746WAT      O18819   4.024   7.800   2.221
 5746WAT     H118820   3.943   7.763   2.187
 5746WAT     H218821   4.074   7.725   2.251
 5747WAT      O18822   4.474   7.467   2.345
 5747WAT     H118823   4.534   7.524   2.392
 5747WAT     H218824   4.400   7.523   2.323
 5748WAT      O18825   4.788   7.507   1.872
 5748WAT     H118826   4.808   7.597   1.899
 5748WAT     H218827   4.710   7.484   1.922
 5749WAT      O18828   3.607   7.642   1.776
 5749WAT     H118829   3.660   7.563   1.763
 5749WAT     H218830   3.670   7.709   1.799
 5750WAT      O18831   3.826   7.615   2.081
 5750WAT     H118832   3.763   7.545   2.098
 5750WAT     H218833   3.772   7.691   2.060
 5751WAT      O18834   3.839   7.543   3.325
 5751WAT     H118835   3.811   7.593   3.249
 5751WAT     H218836   3.877   7.463   3.288
 5752WAT      O18837   3.644   8.882   1.804
 5752WAT     H118838   3.581   8.928   1.859
 5752WAT     H218839   3.656   8.797   1.848
 5753WAT      O18840   4.499   7.485   3.383
 5753WAT     H118841   4.488   7.517   3.472
 5753WAT     H218842   4.581   7.525   3.353
 5754WAT      O18843   4.390   8.287   0.419
 5754WAT     H118844   4.382   8.195   0.392
 5754WAT     H218845   4.348   8.336   0.349
 5755WAT      O18846   4.203   8.464   0.607
 5755WAT     H118847   4.125   8.416   0.636
 5755WAT     H218848   4.268   8.396   0.590
 5756WAT      O18849   3.604   8.496   0.695
 5756WAT     H118850   3.521   8.470   0.735
 5756WAT     H218851   3.665   8.503   0.769
 5757WAT      O18852   4.605   8.905   0.485
 5757WAT     H118853   4.559   8.828   0.518
 5757WAT     H218854   4.686   8.908   0.536
 5758WAT      O18855   3.602   8.899   0.715
 5758WAT     H118856   3.633   8.810   0.697
 5758WAT     H218857   3.677   8.955   0.692
 5759WAT      O18858   3.242   8.252   0.662
 5759WAT     H118859   3.299   8.175   0.662
 5759WAT     H218860   3.242   8.282   0.571
 5760WAT      O18861   4.147   8.732   0.608
 5760WAT     H118862   4.140   8.638   0.592
 5760WAT     H218863   4.223   8.741   0.665
 5761WAT      O18864   3.366   7.792   0.841
 5761WAT     H118865   3.348   7.703   0.869
 5761WAT     H218866   3.326   7.847   0.908
 5762WAT      O18867   4.250   8.013   0.631
 5762WAT     H118868   4.288   7.925   0.619
 5762WAT     H218869   4.240   8.046   0.542
 5763WAT      O18870   3.663   7.850   0.177
 5763WAT     H118871   3.674   7.940   0.208
 5763WAT     H218872   3.572   7.845   0.148
 5764WAT      O18873   4.628   7.762   0.324
 5764WAT     H118874   4.710   7.713   0.328
 5764WAT     H218875   4.632   7.821   0.399
 5765WAT      O18876   3.428   8.042   0.701
 5765WAT     H118877   3.496   8.068   0.763
 5765WAT     H218878   3.396   7.958   0.735
 5766WAT      O18879   3.847   8.147   0.610
 5766WAT     H118880   3.898   8.197   0.674
 5766WAT     H218881   3.900   8.069   0.592
 5767WAT      O18882   5.057   7.964   0.980
 5767WAT     H118883   4.987   8.003   0.929
 5767WAT     H218884   5.084   8.033   1.041
 5768WAT      O18885   3.675   7.611   1.037
 5768WAT     H118886   3.676   7.662   0.956
 5768WAT     H218887   3.592   7.563   1.034
 5769WAT      O18888   3.800   8.575   0.854
 5769WAT     H118889   3.767   8.637   0.919
 5769WAT     H218890   3.818   8.627   0.776
 5770WAT      O18891   4.652   7.956   0.601
 5770WAT     H118892   4.581   7.985   0.659
 5770WAT     H218893   4.688   8.037   0.565
 5771WAT      O18894   3.644   7.782   0.837
 5771WAT     H118895   3.678   7.866   0.808
 5771WAT     H218896   3.550   7.797   0.849
 5772WAT      O18897   3.722   8.772   1.036
 5772WAT     H118898   3.783   8.839   1.008
 5772WAT     H218899   3.636   8.812   1.027
 5773WAT      O18900   4.813   8.918   0.827
 5773WAT     H118901   4.745   8.985   0.827
 5773WAT     H218902   4.867   8.938   0.751
 5774WAT      O18903   4.959   7.901   0.640
 5774WAT     H118904   4.864   7.904   0.653
 5774WAT     H218905   4.991   7.982   0.679
 5775WAT      O18906   4.012   7.531   0.470
 5775WAT     H118907   4.043   7.475   0.398
 5775WAT     H218908   3.919   7.544   0.452
 5776WAT      O18909   4.696   8.775   0.208
 5776WAT     H118910   4.685   8.680   0.220
 5776WAT     H218911   4.696   8.811   0.296
 5777WAT      O18912   4.507   8.593   0.832
 5777WAT     H118913   4.549   8.571   0.748
 5777WAT     H218914   4.579   8.618   0.889
 5778WAT      O18915   4.902   8.433   0.841
 5778WAT     H118916   4.819   8.439   0.793
 5778WAT     H218917   4.961   8.491   0.794
 5779WAT      O18918   4.598   8.111   0.935
 5779WAT     H118919   4.557   8.194   0.961
 5779WAT     H218920   4.525   8.053   0.916
 5780WAT      O18921   3.811   8.390   0.422
 5780WAT     H118922   3.771   8.319   0.372
 5780WAT     H218923   3.820   8.355   0.511
 5781WAT      O18924   3.858   8.758   0.638
 5781WAT     H118925   3.828   8.698   0.570
 5781WAT     H218926   3.953   8.762   0.627
 5782WAT      O18927   3.683   8.067   0.800
 5782WAT     H118928   3.738   8.078   0.722
 5782WAT     H218929   3.734   8.105   0.871
 5783WAT      O18930   3.767   8.732   1.303
 5783WAT     H118931   3.678   8.755   1.328
 5783WAT     H218932   3.770   8.745   1.208
 5784WAT      O18933   3.650   8.419   1.161
 5784WAT     H118934   3.636   8.507   1.198
 5784WAT     H218935   3.562   8.385   1.146
 5785WAT      O18936   4.282   8.911   0.291
 5785WAT     H118937   4.326   8.985   0.250
 5785WAT     H218938   4.276   8.935   0.384
 5786WAT      O18939   3.830   9.014   1.382
 5786WAT     H118940   3.827   9.054   1.295
 5786WAT     H218941   3.813   8.921   1.365
 5787WAT      O18942   3.245   8.596   0.752
 5787WAT     H118943   3.253   8.610   0.658
 5787WAT     H218944   3.307   8.526   0.772
 5788WAT      O18945   3.370   8.766   0.393
 5788WAT     H118946   3.329   8.781   0.308
 5788WAT     H218947   3.459   8.738   0.373
 5789WAT      O18948   4.965   8.811   1.227
 5789WAT     H118949   4.978   8.787   1.135
 5789WAT     H218950   4.969   8.728   1.274
 5790WAT      O18951   4.950   8.016   1.324
 5790WAT     H118952   4.889   8.067   1.271
 5790WAT     H218953   4.918   7.926   1.318
 5791WAT      O18954   3.251   8.701   1.006
 5791WAT     H118955   3.267   8.654   0.925
 5791WAT     H218956   3.297   8.650   1.073
 5792WAT      O18957   3.728   7.614   0.510
 5792WAT     H118958   3.684   7.692   0.477
 5792WAT     H218959   3.784   7.646   0.581
 5793WAT      O18960   4.157   7.900   1.070
 5793WAT     H118961   4.110   7.921   1.152
 5793WAT     H218962   4.116   7.819   1.040
 5794WAT      O18963   4.657   8.022   1.183
 5794WAT     H118964   4.572   7.992   1.215
 5794WAT     H218965   4.641   8.047   1.092
 5795WAT      O18966   4.366   8.172   1.393
 5795WAT     H118967   4.399   8.089   1.359
 5795WAT     H218968   4.445   8.225   1.408
 5796WAT      O18969   3.932   7.668   0.696
 5796WAT     H118970   3.961   7.759   0.688
 5796WAT     H218971   3.987   7.619   0.634
 5797WAT      O18972   3.707   8.126   0.283
 5797WAT     H118973   3.684   8.104   0.373
 5797WAT     H218974   3.629   8.169   0.248
 5798WAT      O18975   3.951   8.216   1.349
 5798WAT     H118976   3.942   8.122   1.334
 5798WAT     H218977   4.035   8.238   1.310
 5799WAT      O18978   4.291   7.990   0.346
 5799WAT     H118979   4.330   8.022   0.264
 5799WAT     H218980   4.327   7.902   0.357
 5800WAT      O18981   3.464   7.857   1.165
 5800WAT     H118982   3.425   7.942   1.185
 5800WAT     H218983   3.395   7.793   1.184
 5801WAT      O18984   4.122   7.865   1.472
 5801WAT     H118985   4.053   7.846   1.535
 5801WAT     H218986   4.196   7.894   1.525
 5802WAT      O18987   3.194   7.649   0.568
 5802WAT     H118988   3.165   7.706   0.639
 5802WAT     H218989   3.269   7.601   0.604
 5803WAT      O18990   4.349   8.249   0.755
 5803WAT     H118991   4.276   8.300   0.790
 5803WAT     H218992   4.310   8.168   0.725
 5804WAT      O18993   3.993   7.917   0.596
 5804WAT     H118994   3.993   7.873   0.511
 5804WAT     H218995   4.083   7.949   0.606
 5805WAT      O18996   3.578   7.905   0.492
 5805WAT     H118997   3.544   7.953   0.567
 5805WAT     H218998   3.502   7.860   0.456
 5806WAT      O18999   4.396   7.795   0.696
 5806WAT     H119000   4.397   7.840   0.781
 5806WAT     H219001   4.371   7.705   0.718
 5807WAT      O19002   4.738   7.536   1.280
 5807WAT     H119003   4.771   7.463   1.333
 5807WAT     H219004   4.742   7.504   1.190
 5808WAT      O19005   3.408   8.638   1.222
 5808WAT     H119006   3.370   8.574   1.282
 5808WAT     H219007   3.439   8.708   1.279
 5809WAT      O19008   4.023   8.323   0.770
 5809WAT     H119009   4.060   8.275   0.845
 5809WAT     H219010   4.004   8.410   0.804
 5810WAT      O19011   3.310   7.797   0.383
 5810WAT     H119012   3.281   7.761   0.467
 5810WAT     H219013   3.303   7.724   0.322
 5811WAT      O19014   3.802   8.227   1.002
 5811WAT     H119015   3.772   8.315   1.025
 5811WAT     H219016   3.898   8.233   1.006
 5812WAT      O19017   4.731   8.547   0.641
 5812WAT     H119018   4.803   8.597   0.602
 5812WAT     H219019   4.711   8.479   0.577
 5813WAT      O19020   4.269   8.554   1.230
 5813WAT     H119021   4.262   8.462   1.204
 5813WAT     H219022   4.206   8.564   1.301
 5814WAT      O19023   3.659   8.614   0.426
 5814WAT     H119024   3.711   8.534   0.420
 5814WAT     H219025   3.614   8.608   0.510
 5815WAT      O19026   3.408   8.311   1.117
 5815WAT     H119027   3.372   8.377   1.176
 5815WAT     H219028   3.378   8.228   1.154
 5816WAT      O19029   3.728   8.357   1.405
 5816WAT     H119030   3.698   8.371   1.316
 5816WAT     H219031   3.805   8.301   1.396
 5817WAT      O19032   4.262   8.836   1.205
 5817WAT     H119033   4.264   8.743   1.183
 5817WAT     H219034   4.191   8.845   1.269
 5818WAT      O19035   4.883   8.501   1.140
 5818WAT     H119036   4.811   8.560   1.120
 5818WAT     H219037   4.936   8.500   1.060
 5819WAT      O19038   4.436   8.673   0.489
 5819WAT     H119039   4.472   8.613   0.423
 5819WAT     H219040   4.348   8.641   0.507
 5820WAT      O19041   4.045   8.749   0.230
 5820WAT     H119042   4.114   8.804   0.268
 5820WAT     H219043   3.966   8.804   0.234
 5821WAT      O19044   3.975   8.450   0.191
 5821WAT     H119045   4.021   8.531   0.214
 5821WAT     H219046   3.940   8.418   0.275
 5822WAT      O19047   4.205   9.001   0.914
 5822WAT     H119048   4.270   9.021   0.982
 5822WAT     H219049   4.242   8.925   0.869
 5823WAT      O19050   3.565   7.484   0.239
 5823WAT     H119051   3.552   7.483   0.333
 5823WAT     H219052   3.483   7.518   0.204
 5824WAT      O19053   4.333   8.801   0.786
 5824WAT     H119054   4.397   8.731   0.797
 5824WAT     H219055   4.385   8.879   0.768
 5825WAT      O19056   4.510   8.881   1.106
 5825WAT     H119057   4.544   8.940   1.174
 5825WAT     H219058   4.418   8.868   1.129
 5826WAT      O19059   3.265   7.660   1.185
 5826WAT     H119060   3.194   7.680   1.245
 5826WAT     H219061   3.307   7.582   1.222
 5827WAT      O19062   3.294   9.059   1.283
 5827WAT     H119063   3.305   8.965   1.269
 5827WAT     H219064   3.229   9.085   1.218
 5828WAT      O19065   4.093   8.886   1.423
 5828WAT     H119066   4.061   8.814   1.478
 5828WAT     H219067   4.026   8.953   1.431
 5829WAT      O19068   4.415   7.909   0.960
 5829WAT     H119069   4.451   7.827   0.992
 5829WAT     H219070   4.329   7.915   1.001
 5830WAT      O19071   3.948   8.033   0.182
 5830WAT     H119072   3.877   8.079   0.226
 5830WAT     H219073   3.977   7.967   0.246
 5831WAT      O19074   4.111   8.175   0.982
 5831WAT     H119075   4.160   8.222   1.049
 5831WAT     H219076   4.125   8.082   1.003
 5832WAT      O19077   4.351   7.705   0.326
 5832WAT     H119078   4.339   7.707   0.231
 5832WAT     H219079   4.446   7.710   0.338
 5833WAT      O19080   4.831   7.796   1.066
 5833WAT     H119081   4.781   7.870   1.100
 5833WAT     H219082   4.913   7.835   1.035
 5834WAT      O19083   4.661   8.321   0.411
 5834WAT     H119084   4.566   8.322   0.428
 5834WAT     H219085   4.692   8.242   0.456
 5835WAT      O19086   4.392   8.776   1.459
 5835WAT     H119087   4.332   8.778   1.385
 5835WAT     H219088   4.362   8.703   1.513
 5836WAT      O19089   3.281   8.414   1.359
 5836WAT     H119090   3.331   8.356   1.416
 5836WAT     H219091   3.207   8.443   1.413
 5837WAT      O19092   3.986   8.555   1.312
 5837WAT     H119093   3.909   8.612   1.304
 5837WAT     H219094   4.004   8.526   1.223
 5838WAT      O19095   4.700   8.728   1.368
 5838WAT     H119096   4.774   8.762   1.318
 5838WAT     H219097   4.624   8.745   1.313
 5839WAT      O19098   3.484   8.228   1.448
 5839WAT     H119099   3.488   8.199   1.539
 5839WAT     H219100   3.569   8.268   1.432
 5840WAT      O19101   3.678   8.086   1.245
 5840WAT     H119102   3.625   8.037   1.182
 5840WAT     H219103   3.745   8.129   1.192
 5841WAT      O19104   4.568   8.533   1.222
 5841WAT     H119105   4.609   8.548   1.306
 5841WAT     H219106   4.474   8.546   1.238
 5842WAT      O19107   4.615   8.267   1.422
 5842WAT     H119108   4.673   8.192   1.413
 5842WAT     H219109   4.632   8.320   1.344
 5843WAT      O19110   3.727   7.783   1.253
 5843WAT     H119111   3.717   7.721   1.181
 5843WAT     H219112   3.669   7.856   1.230
 5844WAT      O19113   4.003   7.639   0.956
 5844WAT     H119114   3.958   7.641   0.872
 5844WAT     H219115   3.940   7.599   1.016
 5845WAT      O19116   4.044   8.528   1.019
 5845WAT     H119117   4.086   8.613   1.001
 5845WAT     H219118   3.952   8.542   0.996
 5846WAT      O19119   4.277   8.301   1.157
 5846WAT     H119120   4.289   8.242   1.231
 5846WAT     H219121   4.363   8.305   1.115
 5847WAT      O19122   4.511   8.357   1.015
 5847WAT     H119123   4.459   8.409   0.954
 5847WAT     H219124   4.546   8.420   1.078
 5848WAT      O19125   3.954   7.956   1.283
 5848WAT     H119126   4.013   7.925   1.351
 5848WAT     H219127   3.872   7.908   1.298
 5849WAT      O19128   4.436   7.917   1.306
 5849WAT     H119129   4.367   7.851   1.299
 5849WAT     H219130   4.508   7.873   1.350
 5850WAT      O19131   3.255   9.015   0.486
 5850WAT     H119132   3.288   8.928   0.463
 5850WAT     H219133   3.298   9.036   0.569
 5851WAT      O19134   3.714   8.848   0.252
 5851WAT     H119135   3.684   8.836   0.342
 5851WAT     H219136   3.704   8.762   0.211
 5852WAT      O19137   4.867   9.052   1.189
 5852WAT     H119138   4.807   9.058   1.115
 5852WAT     H219139   4.880   8.958   1.202
 5853WAT      O19140   3.287   8.353   0.396
 5853WAT     H119141   3.221   8.326   0.332
 5853WAT     H219142   3.371   8.342   0.351
 5854WAT      O19143   5.037   8.586   0.457
 5854WAT     H119144   5.075   8.508   0.417
 5854WAT     H219145   5.101   8.655   0.440
 5855WAT      O19146   4.736   8.724   0.999
 5855WAT     H119147   4.654   8.767   1.025
 5855WAT     H219148   4.776   8.786   0.937
 5856WAT      O19149   4.932   8.324   0.188
 5856WAT     H119150   4.894   8.247   0.145
 5856WAT     H219151   4.859   8.362   0.237
 5857WAT      O19152   3.391   8.391   0.850
 5857WAT     H119153   3.427   8.383   0.938
 5857WAT     H219154   3.334   8.315   0.840
 5858WAT      O19155   4.871   8.238   1.151
 5858WAT     H119156   4.848   8.215   1.061
 5858WAT     H219157   4.897   8.330   1.147
 5859WAT      O19158   3.346   8.083   1.241
 5859WAT     H119159   3.256   8.079   1.275
 5859WAT     H219160   3.400   8.102   1.317
 5860WAT      O19161   4.715   7.761   1.429
 5860WAT     H119162   4.802   7.762   1.467
 5860WAT     H219163   4.716   7.687   1.368
 5861WAT      O19164   4.859   8.146   0.518
 5861WAT     H119165   4.912   8.097   0.455
 5861WAT     H219166   4.918   8.160   0.592
 5862WAT      O19167   4.877   8.155   0.870
 5862WAT     H119168   4.782   8.151   0.882
 5862WAT     H219169   4.895   8.246   0.847
 5863WAT      O19170   3.396   7.510   0.675
 5863WAT     H119171   3.461   7.455   0.631
 5863WAT     H219172   3.438   7.535   0.758
 5864WAT      O19173   4.951   7.935   0.365
 5864WAT     H119174   4.940   7.920   0.459
 5864WAT     H219175   5.027   7.883   0.341
 5865WAT      O19176   4.786   7.529   1.011
 5865WAT     H119177   4.849   7.591   1.048
 5865WAT     H219178   4.800   7.533   0.917
 5866WAT      O19179   3.371   7.526   0.950
 5866WAT     H119180   3.337   7.571   1.026
 5866WAT     H219181   3.338   7.436   0.958
 5867WAT      O19182   3.532   8.843   1.366
 5867WAT     H119183   3.528   8.806   1.454
 5867WAT     H219184   3.545   8.937   1.380
 5868WAT      O19185   3.902   8.998   0.926
 5868WAT     H119186   3.878   9.025   0.838
 5868WAT     H219187   3.996   9.015   0.932
 5869WAT      O19188   4.123   7.645   1.302
 5869WAT     H119189   4.117   7.704   1.377
 5869WAT     H219190   4.217   7.634   1.287
 5870WAT      O19191   4.386   7.610   1.266
 5870WAT     H119192   4.448   7.642   1.200
 5870WAT     H219193   4.441   7.562   1.328
 5871WAT      O19194   3.439   7.478   1.277
 5871WAT     H119195   3.494   7.460   1.201
 5871WAT     H219196   3.445   7.399   1.331
 5872WAT      O19197   4.461   7.467   0.899
 5872WAT     H119198   4.373   7.500   0.878
 5872WAT     H219199   4.450   7.419   0.981
 5873WAT      O19200   4.551   7.687   1.037
 5873WAT     H119201   4.518   7.606   0.999
 5873WAT     H219202   4.646   7.683   1.025
 5874WAT      O19203   3.479   8.874   0.973
 5874WAT     H119204   3.406   8.812   0.967
 5874WAT     H219205   3.485   8.913   0.886
 5875WAT      O19206   4.235   7.558   0.792
 5875WAT     H119207   4.157   7.606   0.820
 5875WAT     H219208   4.206   7.468   0.782
 5876WAT      O19209   4.691   7.629   0.597
 5876WAT     H119210   4.735   7.623   0.512
 5876WAT     H219211   4.664   7.720   0.604
 5877WAT      O19212   4.877   7.592   0.398
 5877WAT     H119213   4.871   7.497   0.383
 5877WAT     H219214   4.955   7.603   0.453
 5878WAT      O19215   4.024   7.800   0.344
 5878WAT     H119216   3.943   7.763   0.310
 5878WAT     H219217   4.074   7.725   0.374
 5879WAT      O19218   4.474   7.467   0.467
 5879WAT     H119219   4.534   7.524   0.515
 5879WAT     H219220   4.400   7.523   0.445
 5880WAT      O19221   3.826   7.615   0.204
 5880WAT     H119222   3.763   7.545   0.221
 5880WAT     H219223   3.772   7.691   0.182
 5881WAT      O19224   3.839   7.543   1.448
 5881WAT     H119225   3.811   7.593   1.371
 5881WAT     H219226   3.877   7.463   1.411
 5882WAT      O19227   4.499   7.485   1.505
 5882WAT     H119228   4.488   7.517   1.595
 5882WAT     H219229   4.581   7.525   1.476
 5883WAT      O19230   4.390   6.409   6.051
 5883WAT     H119231   4.382   6.318   6.024
 5883WAT     H219232   4.348   6.459   5.981
 5884WAT      O19233   4.203   6.587   6.240
 5884WAT     H119234   4.125   6.539   6.269
 5884WAT     H219235   4.268   6.519   6.222
 5885WAT      O19236   3.604   6.618   6.327
 5885WAT     H119237   3.521   6.593   6.367
 5885WAT     H219238   3.665   6.625   6.401
 5886WAT      O19239   4.605   7.028   6.118
 5886WAT     H119240   4.559   6.950   6.150
 5886WAT     H219241   4.686   7.030   6.168
 5887WAT      O19242   3.602   7.022   6.347
 5887WAT     H119243   3.633   6.933   6.329
 5887WAT     H219244   3.677   7.077   6.324
 5888WAT      O19245   3.445   6.114   5.706
 5888WAT     H119246   3.357   6.148   5.696
 5888WAT     H219247   3.474   6.094   5.617
 5889WAT      O19248   3.242   6.374   6.294
 5889WAT     H119249   3.299   6.297   6.294
 5889WAT     H219250   3.242   6.404   6.203
 5890WAT      O19251   4.228   7.256   6.080
 5890WAT     H119252   4.166   7.302   6.023
 5890WAT     H219253   4.313   7.272   6.039
 5891WAT      O19254   4.147   6.855   6.240
 5891WAT     H119255   4.140   6.760   6.224
 5891WAT     H219256   4.223   6.864   6.297
 5892WAT      O19257   3.366   5.915   6.473
 5892WAT     H119258   3.348   5.825   6.501
 5892WAT     H219259   3.326   5.970   6.540
 5893WAT      O19260   4.250   6.135   6.263
 5893WAT     H119261   4.288   6.048   6.252
 5893WAT     H219262   4.240   6.169   6.174
 5894WAT      O19263   3.663   5.972   5.809
 5894WAT     H119264   3.674   6.063   5.840
 5894WAT     H219265   3.572   5.968   5.780
 5895WAT      O19266   4.628   5.885   5.956
 5895WAT     H119267   4.710   5.836   5.960
 5895WAT     H219268   4.632   5.944   6.032
 5896WAT      O19269   3.428   6.165   6.334
 5896WAT     H119270   3.496   6.191   6.396
 5896WAT     H219271   3.396   6.081   6.367
 5897WAT      O19272   3.847   6.269   6.242
 5897WAT     H119273   3.898   6.319   6.306
 5897WAT     H219274   3.900   6.192   6.225
 5898WAT      O19275   4.314   6.745   5.819
 5898WAT     H119276   4.252   6.791   5.763
 5898WAT     H219277   4.365   6.814   5.861
 5899WAT      O19278   3.800   6.697   6.487
 5899WAT     H119279   3.767   6.760   6.551
 5899WAT     H219280   3.818   6.750   6.409
 5900WAT      O19281   4.652   6.079   6.234
 5900WAT     H119282   4.581   6.108   6.292
 5900WAT     H219283   4.688   6.160   6.198
 5901WAT      O19284   3.644   5.904   6.470
 5901WAT     H119285   3.678   5.989   6.440
 5901WAT     H219286   3.550   5.919   6.481
 5902WAT      O19287   3.251   6.813   5.556
 5902WAT     H119288   3.213   6.862   5.483
 5902WAT     H219289   3.277   6.880   5.619
 5903WAT      O19290   4.813   7.040   6.460
 5903WAT     H119291   4.745   7.107   6.459
 5903WAT     H219292   4.867   7.060   6.383
 5904WAT      O19293   4.959   6.023   6.273
 5904WAT     H119294   4.864   6.027   6.286
 5904WAT     H219295   4.991   6.105   6.311
 5905WAT      O19296   4.012   5.653   6.102
 5905WAT     H119297   4.043   5.598   6.031
 5905WAT     H219298   3.919   5.667   6.084
 5906WAT      O19299   4.567   7.225   6.331
 5906WAT     H119300   4.568   7.185   6.244
 5906WAT     H219301   4.512   7.302   6.321
 5907WAT      O19302   4.696   6.897   5.840
 5907WAT     H119303   4.685   6.803   5.853
 5907WAT     H219304   4.696   6.933   5.929
 5908WAT      O19305   4.507   6.715   6.464
 5908WAT     H119306   4.549   6.694   6.381
 5908WAT     H219307   4.579   6.741   6.521
 5909WAT      O19308   4.251   6.460   5.776
 5909WAT     H119309   4.158   6.453   5.799
 5909WAT     H219310   4.266   6.554   5.764
 5910WAT      O19311   4.249   6.087   5.475
 5910WAT     H119312   4.155   6.103   5.484
 5910WAT     H219313   4.281   6.159   5.421
 5911WAT      O19314   4.902   6.555   6.473
 5911WAT     H119315   4.819   6.562   6.426
 5911WAT     H219316   4.961   6.614   6.426
 5912WAT      O19317   4.654   6.616   5.826
 5912WAT     H119318   4.592   6.582   5.761
 5912WAT     H219319   4.652   6.552   5.897
 5913WAT      O19320   4.598   6.234   6.568
 5913WAT     H119321   4.557   6.316   6.593
 5913WAT     H219322   4.525   6.175   6.549
 5914WAT      O19323   3.811   6.512   6.054
 5914WAT     H119324   3.771   6.441   6.004
 5914WAT     H219325   3.820   6.478   6.143
 5915WAT      O19326   3.858   6.881   6.270
 5915WAT     H119327   3.828   6.821   6.202
 5915WAT     H219328   3.953   6.885   6.259
 5916WAT      O19329   3.683   6.190   6.432
 5916WAT     H119330   3.738   6.201   6.354
 5916WAT     H219331   3.734   6.227   6.504
 5917WAT      O19332   4.667   7.238   6.637
 5917WAT     H119333   4.619   7.319   6.617
 5917WAT     H219334   4.599   7.173   6.652
 5918WAT      O19335   4.471   6.540   5.527
 5918WAT     H119336   4.515   6.456   5.512
 5918WAT     H219337   4.543   6.603   5.535
 5919WAT      O19338   4.282   7.034   5.924
 5919WAT     H119339   4.326   7.108   5.882
 5919WAT     H219340   4.276   7.058   6.016
 5920WAT      O19341   4.829   5.665   5.358
 5920WAT     H119342   4.798   5.675   5.448
 5920WAT     H219343   4.906   5.723   5.353
 5921WAT      O19344   3.481   6.402   5.804
 5921WAT     H119345   3.469   6.474   5.743
 5921WAT     H219346   3.450   6.325   5.756
 5922WAT      O19347   3.245   6.719   6.385
 5922WAT     H119348   3.253   6.732   6.290
 5922WAT     H219349   3.307   6.648   6.404
 5923WAT      O19350   3.370   6.889   6.026
 5923WAT     H119351   3.329   6.903   5.940
 5923WAT     H219352   3.459   6.861   6.005
 5924WAT      O19353   4.549   7.332   5.659
 5924WAT     H119354   4.533   7.303   5.749
 5924WAT     H219355   4.532   7.255   5.606
 5925WAT      O19356   3.797   7.310   5.837
 5925WAT     H119357   3.779   7.219   5.816
 5925WAT     H219358   3.711   7.346   5.861
 5926WAT      O19359   4.519   7.083   5.515
 5926WAT     H119360   4.450   7.083   5.449
 5926WAT     H219361   4.593   7.041   5.472
 5927WAT      O19362   4.476   7.246   5.923
 5927WAT     H119363   4.521   7.168   5.954
 5927WAT     H219364   4.510   7.317   5.977
 5928WAT      O19365   3.728   5.736   6.142
 5928WAT     H119366   3.684   5.814   6.109
 5928WAT     H219367   3.784   5.768   6.213
 5929WAT      O19368   4.040   5.698   5.630
 5929WAT     H119369   3.977   5.698   5.703
 5929WAT     H219370   4.031   5.612   5.591
 5930WAT      O19371   3.932   5.791   6.328
 5930WAT     H119372   3.961   5.881   6.320
 5930WAT     H219373   3.987   5.742   6.267
 5931WAT      O19374   3.707   6.249   5.915
 5931WAT     H119375   3.684   6.227   6.006
 5931WAT     H219376   3.629   6.292   5.881
 5932WAT      O19377   4.430   6.249   5.775
 5932WAT     H119378   4.370   6.322   5.757
 5932WAT     H219379   4.485   6.243   5.697
 5933WAT      O19380   4.291   6.113   5.978
 5933WAT     H119381   4.330   6.145   5.897
 5933WAT     H219382   4.327   6.025   5.989
 5934WAT      O19383   3.194   5.772   6.200
 5934WAT     H119384   3.165   5.829   6.272
 5934WAT     H219385   3.269   5.724   6.237
 5935WAT      O19386   3.213   6.166   5.321
 5935WAT     H119387   3.205   6.260   5.336
 5935WAT     H219388   3.178   6.152   5.233
 5936WAT      O19389   4.349   6.372   6.388
 5936WAT     H119390   4.276   6.423   6.422
 5936WAT     H219391   4.310   6.290   6.357
 5937WAT      O19392   3.993   6.039   6.228
 5937WAT     H119393   3.993   5.995   6.143
 5937WAT     H219394   4.083   6.072   6.239
 5938WAT      O19395   3.578   6.028   6.124
 5938WAT     H119396   3.544   6.075   6.200
 5938WAT     H219397   3.502   5.982   6.088
 5939WAT      O19398   3.999   6.140   5.527
 5939WAT     H119399   4.011   6.135   5.622
 5939WAT     H219400   3.961   6.226   5.512
 5940WAT      O19401   4.396   5.917   6.329
 5940WAT     H119402   4.397   5.962   6.413
 5940WAT     H219403   4.371   5.827   6.350
 5941WAT      O19404   3.900   6.371   5.467
 5941WAT     H119405   3.844   6.326   5.404
 5941WAT     H219406   3.971   6.406   5.414
 5942WAT      O19407   4.023   6.445   6.403
 5942WAT     H119408   4.060   6.398   6.477
 5942WAT     H219409   4.004   6.533   6.437
 5943WAT      O19410   3.310   5.920   6.016
 5943WAT     H119411   3.281   5.883   6.099
 5943WAT     H219412   3.303   5.847   5.954
 5944WAT      O19413   3.655   6.770   5.694
 5944WAT     H119414   3.578   6.716   5.678
 5944WAT     H219415   3.728   6.718   5.660
 5945WAT      O19416   4.731   6.670   6.273
 5945WAT     H119417   4.803   6.719   6.234
 5945WAT     H219418   4.711   6.602   6.209
 5946WAT      O19419   4.277   5.809   5.688
 5946WAT     H119420   4.196   5.759   5.680
 5946WAT     H219421   4.258   5.893   5.646
 5947WAT      O19422   4.548   6.246   5.517
 5947WAT     H119423   4.637   6.278   5.500
 5947WAT     H219424   4.545   6.159   5.478
 5948WAT      O19425   3.659   6.737   6.058
 5948WAT     H119426   3.711   6.657   6.053
 5948WAT     H219427   3.614   6.731   6.142
 5949WAT      O19428   4.148   6.864   5.585
 5949WAT     H119429   4.182   6.938   5.536
 5949WAT     H219430   4.065   6.895   5.622
 5950WAT      O19431   4.776   6.377   5.464
 5950WAT     H119432   4.767   6.421   5.379
 5950WAT     H219433   4.847   6.423   5.507
 5951WAT      O19434   4.878   7.063   5.737
 5951WAT     H119435   4.814   6.997   5.764
 5951WAT     H219436   4.840   7.103   5.659
 5952WAT      O19437   4.436   6.796   6.122
 5952WAT     H119438   4.472   6.736   6.056
 5952WAT     H219439   4.348   6.763   6.139
 5953WAT      O19440   4.045   6.872   5.862
 5953WAT     H119441   4.114   6.926   5.901
 5953WAT     H219442   3.966   6.926   5.866
 5954WAT      O19443   3.259   6.433   5.412
 5954WAT     H119444   3.346   6.462   5.440
 5954WAT     H219445   3.210   6.515   5.400
 5955WAT      O19446   3.975   6.572   5.824
 5955WAT     H119447   4.021   6.653   5.846
 5955WAT     H219448   3.940   6.540   5.907
 5956WAT      O19449   4.205   7.123   6.547
 5956WAT     H119450   4.270   7.144   6.614
 5956WAT     H219451   4.242   7.047   6.501
 5957WAT      O19452   3.565   5.607   5.871
 5957WAT     H119453   3.552   5.606   5.966
 5957WAT     H219454   3.483   5.640   5.836
 5958WAT      O19455   4.333   6.924   6.418
 5958WAT     H119456   4.397   6.853   6.430
 5958WAT     H219457   4.385   7.002   6.400
 5959WAT      O19458   4.717   6.952   5.391
 5959WAT     H119459   4.695   6.880   5.450
 5959WAT     H219460   4.678   6.927   5.307
 5960WAT      O19461   3.296   7.355   5.468
 5960WAT     H119462   3.332   7.415   5.403
 5960WAT     H219463   3.281   7.409   5.546
 5961WAT      O19464   4.676   6.744   5.557
 5961WAT     H119465   4.647   6.790   5.636
 5961WAT     H219466   4.755   6.698   5.584
 5962WAT      O19467   3.897   7.093   5.550
 5962WAT     H119468   3.896   7.166   5.488
 5962WAT     H219469   3.805   7.068   5.559
 5963WAT      O19470   3.457   6.615   5.624
 5963WAT     H119471   3.397   6.689   5.625
 5963WAT     H219472   3.505   6.624   5.542
 5964WAT      O19473   4.415   6.032   6.592
 5964WAT     H119474   4.451   5.950   6.625
 5964WAT     H219475   4.329   6.038   6.634
 5965WAT      O19476   4.751   5.927   5.673
 5965WAT     H119477   4.688   5.938   5.601
 5965WAT     H219478   4.702   5.949   5.752
 5966WAT      O19479   4.196   7.099   5.416
 5966WAT     H119480   4.206   7.079   5.323
 5966WAT     H219481   4.106   7.074   5.437
 5967WAT      O19482   3.948   6.155   5.814
 5967WAT     H119483   3.877   6.202   5.859
 5967WAT     H219484   3.977   6.089   5.878
 5968WAT      O19485   4.351   5.828   5.958
 5968WAT     H119486   4.339   5.829   5.864
 5968WAT     H219487   4.446   5.832   5.970
 5969WAT      O19488   4.060   7.351   5.886
 5969WAT     H119489   4.085   7.347   5.793
 5969WAT     H219490   3.965   7.338   5.885
 5970WAT      O19491   3.768   5.986   5.552
 5970WAT     H119492   3.853   6.030   5.545
 5970WAT     H219493   3.732   6.017   5.635
 5971WAT      O19494   4.661   6.443   6.043
 5971WAT     H119495   4.566   6.445   6.061
 5971WAT     H219496   4.692   6.364   6.088
 5972WAT      O19497   3.658   6.611   5.399
 5972WAT     H119498   3.735   6.600   5.456
 5972WAT     H219499   3.666   6.542   5.334
 5973WAT      O19500   3.528   6.355   5.468
 5973WAT     H119501   3.536   6.260   5.479
 5973WAT     H219502   3.617   6.388   5.478
 5974WAT      O19503   4.861   7.160   6.211
 5974WAT     H119504   4.873   7.242   6.258
 5974WAT     H219505   4.947   7.139   6.176
 5975WAT      O19506   3.608   7.369   6.178
 5975WAT     H119507   3.682   7.315   6.205
 5975WAT     H219508   3.646   7.456   6.164
 5976WAT      O19509   3.296   6.976   5.765
 5976WAT     H119510   3.204   7.000   5.764
 5976WAT     H219511   3.343   7.059   5.753
 5977WAT      O19512   3.919   7.287   5.360
 5977WAT     H119513   3.998   7.316   5.315
 5977WAT     H219514   3.867   7.244   5.292
 5978WAT      O19515   4.824   7.209   5.503
 5978WAT     H119516   4.796   7.168   5.421
 5978WAT     H219517   4.804   7.302   5.491
 5979WAT      O19518   3.971   6.809   5.347
 5979WAT     H119519   3.960   6.747   5.419
 5979WAT     H219520   3.954   6.756   5.268
 5980WAT      O19521   4.295   6.715   5.407
 5980WAT     H119522   4.240   6.760   5.472
 5980WAT     H219523   4.357   6.665   5.459
 5981WAT      O19524   3.862   6.611   5.597
 5981WAT     H119525   3.904   6.594   5.681
 5981WAT     H219526   3.874   6.530   5.547
 5982WAT      O19527   4.113   6.513   5.322
 5982WAT     H119528   4.165   6.442   5.285
 5982WAT     H219529   4.177   6.577   5.352
 5983WAT      O19530   4.003   5.761   6.589
 5983WAT     H119531   3.958   5.763   6.504
 5983WAT     H219532   3.940   5.721   6.648
 5984WAT      O19533   4.044   6.651   6.651
 5984WAT     H119534   4.086   6.735   6.634
 5984WAT     H219535   3.952   6.665   6.628
 5985WAT      O19536   3.751   6.218   5.291
 5985WAT     H119537   3.731   6.132   5.327
 5985WAT     H219538   3.734   6.210   5.198
 5986WAT      O19539   4.499   5.699   5.544
 5986WAT     H119540   4.527   5.615   5.580
 5986WAT     H219541   4.422   5.723   5.596
 5987WAT      O19542   3.631   5.928   5.290
 5987WAT     H119543   3.661   5.929   5.199
 5987WAT     H219544   3.705   5.893   5.340
 5988WAT      O19545   3.953   5.823   5.389
 5988WAT     H119546   3.918   5.755   5.331
 5988WAT     H219547   3.973   5.777   5.470
 5989WAT      O19548   4.169   7.321   5.551
 5989WAT     H119549   4.259   7.355   5.553
 5989WAT     H219550   4.172   7.249   5.488
 5990WAT      O19551   3.533   6.859   5.373
 5990WAT     H119552   3.577   6.913   5.439
 5990WAT     H219553   3.582   6.776   5.374
 5991WAT      O19554   3.255   7.138   6.119
 5991WAT     H119555   3.288   7.051   6.095
 5991WAT     H219556   3.298   7.158   6.202
 5992WAT      O19557   3.714   6.971   5.885
 5992WAT     H119558   3.684   6.958   5.975
 5992WAT     H219559   3.704   6.885   5.844
 5993WAT      O19560   3.304   7.224   6.392
 5993WAT     H119561   3.260   7.242   6.476
 5993WAT     H219562   3.360   7.300   6.378
 5994WAT      O19563   4.991   6.949   5.355
 5994WAT     H119564   4.908   6.955   5.402
 5994WAT     H219565   5.009   7.038   5.325
 5995WAT      O19566   4.937   6.623   5.605
 5995WAT     H119567   5.013   6.680   5.616
 5995WAT     H219568   4.938   6.566   5.682
 5996WAT      O19569   3.287   6.475   6.028
 5996WAT     H119570   3.221   6.449   5.964
 5996WAT     H219571   3.371   6.465   5.983
 5997WAT      O19572   5.037   6.709   6.090
 5997WAT     H119573   5.075   6.630   6.049
 5997WAT     H219574   5.101   6.778   6.072
 5998WAT      O19575   4.942   6.652   5.321
 5998WAT     H119576   4.969   6.743   5.308
 5998WAT     H219577   4.923   6.646   5.415
 5999WAT      O19578   4.582   5.955   5.450
 5999WAT     H119579   4.624   5.936   5.366
 5999WAT     H219580   4.551   5.870   5.482
 6000WAT      O19581   4.932   6.446   5.820
 6000WAT     H119582   4.894   6.369   5.777
 6000WAT     H219583   4.859   6.484   5.869
 6001WAT      O19584   3.391   6.514   6.482
 6001WAT     H119585   3.427   6.505   6.570
 6001WAT     H219586   3.334   6.438   6.472
 6002WAT      O19587   3.208   6.196   5.623
 6002WAT     H119588   3.118   6.223   5.605
 6002WAT     H219589   3.257   6.224   5.545
 6003WAT      O19590   4.859   6.269   6.150
 6003WAT     H119591   4.912   6.219   6.087
 6003WAT     H219592   4.918   6.282   6.225
 6004WAT      O19593   4.877   6.277   6.503
 6004WAT     H119594   4.782   6.274   6.514
 6004WAT     H219595   4.895   6.368   6.479
 6005WAT      O19596   3.463   6.102   5.414
 6005WAT     H119597   3.533   6.060   5.365
 6005WAT     H219598   3.391   6.109   5.350
 6006WAT      O19599   3.427   5.708   5.318
 6006WAT     H119600   3.500   5.762   5.349
 6006WAT     H219601   3.454   5.680   5.230
 6007WAT      O19602   4.808   6.194   5.744
 6007WAT     H119603   4.858   6.171   5.823
 6007WAT     H219604   4.788   6.111   5.703
 6008WAT      O19605   3.396   5.633   6.308
 6008WAT     H119606   3.461   5.578   6.264
 6008WAT     H219607   3.438   5.658   6.390
 6009WAT      O19608   4.951   6.058   5.998
 6009WAT     H119609   4.940   6.043   6.091
 6009WAT     H219610   5.027   6.005   5.973
 6010WAT      O19611   5.040   5.841   5.322
 6010WAT     H119612   5.132   5.828   5.301
 6010WAT     H219613   5.038   5.849   5.417
 6011WAT      O19614   5.047   5.918   5.584
 6011WAT     H119615   4.968   5.912   5.637
 6011WAT     H219616   5.068   6.012   5.583
 6012WAT      O19617   4.742   7.322   5.984
 6012WAT     H119618   4.801   7.290   5.916
 6012WAT     H219619   4.767   7.275   6.063
 6013WAT      O19620   3.902   7.121   6.559
 6013WAT     H119621   3.878   7.148   6.470
 6013WAT     H219622   3.996   7.138   6.564
 6014WAT      O19623   4.461   5.589   6.531
 6014WAT     H119624   4.373   5.623   6.511
 6014WAT     H219625   4.450   5.542   6.613
 6015WAT      O19626   4.797   7.387   6.367
 6015WAT     H119627   4.751   7.462   6.329
 6015WAT     H219628   4.734   7.315   6.361
 6016WAT      O19629   3.479   6.997   6.606
 6016WAT     H119630   3.406   6.935   6.599
 6016WAT     H219631   3.485   7.036   6.519
 6017WAT      O19632   3.840   7.218   6.284
 6017WAT     H119633   3.891   7.157   6.232
 6017WAT     H219634   3.905   7.268   6.333
 6018WAT      O19635   4.114   7.307   6.367
 6018WAT     H119636   4.142   7.282   6.279
 6018WAT     H219637   4.165   7.252   6.426
 6019WAT      O19638   4.235   5.681   6.425
 6019WAT     H119639   4.157   5.728   6.453
 6019WAT     H219640   4.206   5.591   6.414
 6020WAT      O19641   4.691   5.751   6.229
 6020WAT     H119642   4.735   5.746   6.144
 6020WAT     H219643   4.664   5.843   6.236
 6021WAT      O19644   4.877   5.714   6.030
 6021WAT     H119645   4.871   5.620   6.016
 6021WAT     H219646   4.955   5.725   6.085
 6022WAT      O19647   3.307   7.328   5.927
 6022WAT     H119648   3.291   7.265   5.996
 6022WAT     H219649   3.221   7.349   5.892
 6023WAT      O19650   3.370   5.711   5.677
 6023WAT     H119651   3.446   5.723   5.620
 6023WAT     H219652   3.323   5.795   5.672
 6024WAT      O19653   4.024   5.923   5.976
 6024WAT     H119654   3.943   5.885   5.942
 6024WAT     H219655   4.074   5.847   6.006
 6025WAT      O19656   4.474   5.589   6.100
 6025WAT     H119657   4.534   5.646   6.147
 6025WAT     H219658   4.400   5.646   6.077
 6026WAT      O19659   4.788   5.629   5.627
 6026WAT     H119660   4.808   5.719   5.654
 6026WAT     H219661   4.710   5.606   5.676
 6027WAT      O19662   3.468   7.198   5.671
 6027WAT     H119663   3.416   7.236   5.601
 6027WAT     H219664   3.461   7.260   5.743
 6028WAT      O19665   3.607   5.764   5.531
 6028WAT     H119666   3.660   5.685   5.518
 6028WAT     H219667   3.670   5.832   5.554
 6029WAT      O19668   3.826   5.738   5.836
 6029WAT     H119669   3.763   5.668   5.853
 6029WAT     H219670   3.772   5.814   5.815
 6030WAT      O19671   4.944   7.354   5.803
 6030WAT     H119672   4.961   7.285   5.739
 6030WAT     H219673   4.874   7.406   5.764
 6031WAT      O19674   3.728   7.392   5.559
 6031WAT     H119675   3.801   7.364   5.504
 6031WAT     H219676   3.754   7.369   5.648
 6032WAT      O19677   3.644   7.004   5.559
 6032WAT     H119678   3.581   7.051   5.614
 6032WAT     H219679   3.656   6.920   5.602
 6033WAT      O19680   4.390   6.409   4.174
 6033WAT     H119681   4.382   6.318   4.147
 6033WAT     H219682   4.348   6.459   4.103
 6034WAT      O19683   4.203   6.587   4.362
 6034WAT     H119684   4.125   6.539   4.391
 6034WAT     H219685   4.268   6.519   4.345
 6035WAT      O19686   3.604   6.618   4.450
 6035WAT     H119687   3.521   6.593   4.490
 6035WAT     H219688   3.665   6.625   4.523
 6036WAT      O19689   4.605   7.028   4.240
 6036WAT     H119690   4.559   6.950   4.273
 6036WAT     H219691   4.686   7.030   4.291
 6037WAT      O19692   3.602   7.022   4.469
 6037WAT     H119693   3.633   6.933   4.452
 6037WAT     H219694   3.677   7.077   4.447
 6038WAT      O19695   3.242   6.374   4.417
 6038WAT     H119696   3.299   6.297   4.417
 6038WAT     H219697   3.242   6.404   4.326
 6039WAT      O19698   4.228   7.256   4.202
 6039WAT     H119699   4.166   7.302   4.145
 6039WAT     H219700   4.313   7.272   4.162
 6040WAT      O19701   4.147   6.855   4.363
 6040WAT     H119702   4.140   6.760   4.347
 6040WAT     H219703   4.223   6.864   4.420
 6041WAT      O19704   3.366   5.915   4.595
 6041WAT     H119705   3.348   5.825   4.623
 6041WAT     H219706   3.326   5.970   4.663
 6042WAT      O19707   4.250   6.135   4.386
 6042WAT     H119708   4.288   6.048   4.374
 6042WAT     H219709   4.240   6.169   4.296
 6043WAT      O19710   4.628   5.885   4.079
 6043WAT     H119711   4.710   5.836   4.083
 6043WAT     H219712   4.632   5.944   4.154
 6044WAT      O19713   3.428   6.165   4.456
 6044WAT     H119714   3.496   6.191   4.518
 6044WAT     H219715   3.396   6.081   4.490
 6045WAT      O19716   3.847   6.269   4.365
 6045WAT     H119717   3.898   6.319   4.429
 6045WAT     H219718   3.900   6.192   4.347
 6046WAT      O19719   5.057   6.086   4.735
 6046WAT     H119720   4.987   6.125   4.683
 6046WAT     H219721   5.084   6.156   4.795
 6047WAT      O19722   4.314   6.745   3.941
 6047WAT     H119723   4.252   6.791   3.885
 6047WAT     H219724   4.365   6.814   3.983
 6048WAT      O19725   3.800   6.697   4.609
 6048WAT     H119726   3.767   6.760   4.674
 6048WAT     H219727   3.818   6.750   4.531
 6049WAT      O19728   4.652   6.079   4.356
 6049WAT     H119729   4.581   6.108   4.414
 6049WAT     H219730   4.688   6.160   4.320
 6050WAT      O19731   3.722   6.894   4.791
 6050WAT     H119732   3.783   6.962   4.763
 6050WAT     H219733   3.636   6.935   4.782
 6051WAT      O19734   3.251   6.813   3.679
 6051WAT     H119735   3.213   6.862   3.606
 6051WAT     H219736   3.277   6.880   3.742
 6052WAT      O19737   4.813   7.040   4.582
 6052WAT     H119738   4.745   7.107   4.582
 6052WAT     H219739   4.867   7.060   4.506
 6053WAT      O19740   4.959   6.023   4.395
 6053WAT     H119741   4.864   6.027   4.408
 6053WAT     H219742   4.991   6.105   4.434
 6054WAT      O19743   4.567   7.225   4.454
 6054WAT     H119744   4.568   7.185   4.367
 6054WAT     H219745   4.512   7.302   4.443
 6055WAT      O19746   4.696   6.897   3.963
 6055WAT     H119747   4.685   6.803   3.975
 6055WAT     H219748   4.696   6.933   4.051
 6056WAT      O19749   4.507   6.715   4.587
 6056WAT     H119750   4.549   6.694   4.503
 6056WAT     H219751   4.579   6.741   4.644
 6057WAT      O19752   4.251   6.460   3.898
 6057WAT     H119753   4.158   6.453   3.921
 6057WAT     H219754   4.266   6.554   3.887
 6058WAT      O19755   4.249   6.087   3.598
 6058WAT     H119756   4.155   6.103   3.607
 6058WAT     H219757   4.281   6.159   3.543
 6059WAT      O19758   4.902   6.555   4.596
 6059WAT     H119759   4.819   6.562   4.548
 6059WAT     H219760   4.961   6.614   4.549
 6060WAT      O19761   4.654   6.616   3.949
 6060WAT     H119762   4.592   6.582   3.884
 6060WAT     H219763   4.652   6.552   4.019
 6061WAT      O19764   4.598   6.234   4.690
 6061WAT     H119765   4.557   6.316   4.716
 6061WAT     H219766   4.525   6.175   4.671
 6062WAT      O19767   3.811   6.512   4.177
 6062WAT     H119768   3.771   6.441   4.127
 6062WAT     H219769   3.820   6.478   4.265
 6063WAT      O19770   3.858   6.881   4.393
 6063WAT     H119771   3.828   6.821   4.325
 6063WAT     H219772   3.953   6.885   4.382
 6064WAT      O19773   3.683   6.190   4.555
 6064WAT     H119774   3.738   6.201   4.477
 6064WAT     H219775   3.734   6.227   4.626
 6065WAT      O19776   4.667   7.238   4.759
 6065WAT     H119777   4.619   7.319   4.740
 6065WAT     H219778   4.599   7.173   4.774
 6066WAT      O19779   3.767   6.855   5.058
 6066WAT     H119780   3.678   6.877   5.083
 6066WAT     H219781   3.770   6.867   4.963
 6067WAT      O19782   4.471   6.540   3.649
 6067WAT     H119783   4.515   6.456   3.635
 6067WAT     H219784   4.543   6.603   3.658
 6068WAT      O19785   3.650   6.542   4.916
 6068WAT     H119786   3.636   6.629   4.952
 6068WAT     H219787   3.562   6.508   4.901
 6069WAT      O19788   4.282   7.034   4.046
 6069WAT     H119789   4.326   7.108   4.005
 6069WAT     H219790   4.276   7.058   4.139
 6070WAT      O19791   3.830   7.136   5.136
 6070WAT     H119792   3.827   7.177   5.050
 6070WAT     H219793   3.813   7.043   5.120
 6071WAT      O19794   4.829   5.665   3.481
 6071WAT     H119795   4.798   5.675   3.571
 6071WAT     H219796   4.906   5.723   3.476
 6072WAT      O19797   3.481   6.402   3.927
 6072WAT     H119798   3.469   6.474   3.865
 6072WAT     H219799   3.450   6.325   3.879
 6073WAT      O19800   5.025   7.214   5.266
 6073WAT     H119801   5.073   7.262   5.334
 6073WAT     H219802   5.087   7.208   5.194
 6074WAT      O19803   3.245   6.719   4.507
 6074WAT     H119804   3.253   6.732   4.413
 6074WAT     H219805   3.307   6.648   4.527
 6075WAT      O19806   3.370   6.889   4.148
 6075WAT     H119807   3.329   6.903   4.063
 6075WAT     H219808   3.459   6.861   4.128
 6076WAT      O19809   4.965   6.934   4.982
 6076WAT     H119810   4.978   6.910   4.890
 6076WAT     H219811   4.969   6.850   5.029
 6077WAT      O19812   4.351   7.304   4.839
 6077WAT     H119813   4.403   7.295   4.919
 6077WAT     H219814   4.267   7.339   4.868
 6078WAT      O19815   4.549   7.332   3.782
 6078WAT     H119816   4.533   7.303   3.872
 6078WAT     H219817   4.532   7.255   3.728
 6079WAT      O19818   3.797   7.310   3.960
 6079WAT     H119819   3.779   7.219   3.938
 6079WAT     H219820   3.711   7.346   3.984
 6080WAT      O19821   4.519   7.083   3.638
 6080WAT     H119822   4.450   7.083   3.572
 6080WAT     H219823   4.593   7.041   3.595
 6081WAT      O19824   4.476   7.246   4.045
 6081WAT     H119825   4.521   7.168   4.077
 6081WAT     H219826   4.510   7.317   4.100
 6082WAT      O19827   4.950   6.139   5.079
 6082WAT     H119828   4.889   6.190   5.026
 6082WAT     H219829   4.918   6.049   5.073
 6083WAT      O19830   3.251   6.823   4.761
 6083WAT     H119831   3.267   6.776   4.679
 6083WAT     H219832   3.297   6.772   4.828
 6084WAT      O19833   4.157   6.023   4.825
 6084WAT     H119834   4.110   6.044   4.906
 6084WAT     H219835   4.116   5.941   4.795
 6085WAT      O19836   4.657   6.145   4.938
 6085WAT     H119837   4.572   6.115   4.970
 6085WAT     H219838   4.641   6.169   4.847
 6086WAT      O19839   4.366   6.295   5.148
 6086WAT     H119840   4.399   6.212   5.114
 6086WAT     H219841   4.445   6.347   5.163
 6087WAT      O19842   4.040   5.698   3.753
 6087WAT     H119843   3.977   5.698   3.825
 6087WAT     H219844   4.031   5.612   3.713
 6088WAT      O19845   3.707   6.249   4.038
 6088WAT     H119846   3.684   6.227   4.128
 6088WAT     H219847   3.629   6.292   4.003
 6089WAT      O19848   4.430   6.249   3.898
 6089WAT     H119849   4.370   6.322   3.879
 6089WAT     H219850   4.485   6.243   3.819
 6090WAT      O19851   3.951   6.338   5.104
 6090WAT     H119852   3.942   6.244   5.089
 6090WAT     H219853   4.035   6.361   5.065
 6091WAT      O19854   4.291   6.113   4.101
 6091WAT     H119855   4.330   6.145   4.019
 6091WAT     H219856   4.327   6.025   4.112
 6092WAT      O19857   3.464   5.980   4.920
 6092WAT     H119858   3.425   6.064   4.940
 6092WAT     H219859   3.395   5.916   4.939
 6093WAT      O19860   4.122   5.988   5.227
 6093WAT     H119861   4.053   5.969   5.290
 6093WAT     H219862   4.196   6.016   5.280
 6094WAT      O19863   3.194   5.772   4.323
 6094WAT     H119864   3.165   5.829   4.394
 6094WAT     H219865   3.269   5.724   4.359
 6095WAT      O19866   4.349   6.372   4.510
 6095WAT     H119867   4.276   6.423   4.545
 6095WAT     H219868   4.310   6.290   4.480
 6096WAT      O19869   3.993   6.039   4.351
 6096WAT     H119870   3.993   5.995   4.266
 6096WAT     H219871   4.083   6.072   4.361
 6097WAT      O19872   3.578   6.028   4.247
 6097WAT     H119873   3.544   6.075   4.322
 6097WAT     H219874   3.502   5.982   4.211
 6098WAT      O19875   3.999   6.140   3.650
 6098WAT     H119876   4.011   6.135   3.745
 6098WAT     H219877   3.961   6.226   3.634
 6099WAT      O19878   4.396   5.917   4.451
 6099WAT     H119879   4.397   5.962   4.536
 6099WAT     H219880   4.371   5.827   4.473
 6100WAT      O19881   3.900   6.371   3.590
 6100WAT     H119882   3.844   6.326   3.527
 6100WAT     H219883   3.971   6.406   3.536
 6101WAT      O19884   4.738   5.659   5.035
 6101WAT     H119885   4.771   5.585   5.088
 6101WAT     H219886   4.742   5.627   4.945
 6102WAT      O19887   3.408   6.761   4.977
 6102WAT     H119888   3.370   6.697   5.037
 6102WAT     H219889   3.439   6.831   5.034
 6103WAT      O19890   4.023   6.445   4.525
 6103WAT     H119891   4.060   6.398   4.600
 6103WAT     H219892   4.004   6.533   4.559
 6104WAT      O19893   3.802   6.349   4.757
 6104WAT     H119894   3.772   6.437   4.780
 6104WAT     H219895   3.898   6.355   4.761
 6105WAT      O19896   3.655   6.770   3.817
 6105WAT     H119897   3.578   6.716   3.801
 6105WAT     H219898   3.728   6.718   3.783
 6106WAT      O19899   4.731   6.670   4.396
 6106WAT     H119900   4.803   6.719   4.357
 6106WAT     H219901   4.711   6.602   4.332
 6107WAT      O19902   4.277   5.809   3.810
 6107WAT     H119903   4.196   5.759   3.803
 6107WAT     H219904   4.258   5.893   3.769
 6108WAT      O19905   4.269   6.677   4.985
 6108WAT     H119906   4.262   6.585   4.959
 6108WAT     H219907   4.206   6.687   5.056
 6109WAT      O19908   4.548   6.246   3.640
 6109WAT     H119909   4.637   6.278   3.622
 6109WAT     H219910   4.545   6.159   3.601
 6110WAT      O19911   3.659   6.737   4.181
 6110WAT     H119912   3.711   6.657   4.175
 6110WAT     H219913   3.614   6.731   4.265
 6111WAT      O19914   4.148   6.864   3.708
 6111WAT     H119915   4.182   6.938   3.658
 6111WAT     H219916   4.065   6.895   3.744
 6112WAT      O19917   3.408   6.434   4.872
 6112WAT     H119918   3.372   6.500   4.931
 6112WAT     H219919   3.378   6.350   4.909
 6113WAT      O19920   3.728   6.479   5.160
 6113WAT     H119921   3.698   6.494   5.071
 6113WAT     H219922   3.805   6.423   5.151
 6114WAT      O19923   4.262   6.959   4.960
 6114WAT     H119924   4.264   6.866   4.938
 6114WAT     H219925   4.191   6.968   5.024
 6115WAT      O19926   4.776   6.377   3.587
 6115WAT     H119927   4.767   6.421   3.502
 6115WAT     H219928   4.847   6.423   3.630
 6116WAT      O19929   4.883   6.623   4.894
 6116WAT     H119930   4.811   6.682   4.875
 6116WAT     H219931   4.936   6.622   4.815
 6117WAT      O19932   4.878   7.063   3.860
 6117WAT     H119933   4.814   6.997   3.887
 6117WAT     H219934   4.840   7.103   3.782
 6118WAT      O19935   4.436   6.796   4.244
 6118WAT     H119936   4.472   6.736   4.178
 6118WAT     H219937   4.348   6.763   4.261
 6119WAT      O19938   4.045   6.872   3.985
 6119WAT     H119939   4.114   6.926   4.023
 6119WAT     H219940   3.966   6.926   3.989
 6120WAT      O19941   3.975   6.572   3.946
 6120WAT     H119942   4.021   6.653   3.969
 6120WAT     H219943   3.940   6.540   4.029
 6121WAT      O19944   4.205   7.123   4.669
 6121WAT     H119945   4.270   7.144   4.737
 6121WAT     H219946   4.242   7.047   4.624
 6122WAT      O19947   4.333   6.924   4.541
 6122WAT     H119948   4.397   6.853   4.552
 6122WAT     H219949   4.385   7.002   4.523
 6123WAT      O19950   4.717   6.952   3.513
 6123WAT     H119951   4.695   6.880   3.573
 6123WAT     H219952   4.678   6.927   3.430
 6124WAT      O19953   4.510   7.003   4.861
 6124WAT     H119954   4.544   7.062   4.929
 6124WAT     H219955   4.418   6.990   4.884
 6125WAT      O19956   3.296   7.355   3.591
 6125WAT     H119957   3.332   7.415   3.525
 6125WAT     H219958   3.281   7.409   3.668
 6126WAT      O19959   3.265   5.782   4.940
 6126WAT     H119960   3.194   5.802   5.000
 6126WAT     H219961   3.307   5.705   4.977
 6127WAT      O19962   4.676   6.744   3.679
 6127WAT     H119963   4.647   6.790   3.758
 6127WAT     H219964   4.755   6.698   3.706
 6128WAT      O19965   3.294   7.181   5.038
 6128WAT     H119966   3.305   7.087   5.024
 6128WAT     H219967   3.229   7.208   4.973
 6129WAT      O19968   4.093   7.008   5.178
 6129WAT     H119969   4.061   6.937   5.233
 6129WAT     H219970   4.026   7.076   5.186
 6130WAT      O19971   3.897   7.093   3.673
 6130WAT     H119972   3.896   7.166   3.611
 6130WAT     H219973   3.805   7.068   3.682
 6131WAT      O19974   3.457   6.615   3.747
 6131WAT     H119975   3.397   6.689   3.748
 6131WAT     H219976   3.505   6.624   3.664
 6132WAT      O19977   4.415   6.032   4.715
 6132WAT     H119978   4.451   5.950   4.747
 6132WAT     H219979   4.329   6.038   4.756
 6133WAT      O19980   4.751   5.927   3.795
 6133WAT     H119981   4.688   5.938   3.724
 6133WAT     H219982   4.702   5.949   3.874
 6134WAT      O19983   4.196   7.099   3.539
 6134WAT     H119984   4.206   7.079   3.446
 6134WAT     H219985   4.106   7.074   3.559
 6135WAT      O19986   3.948   6.155   3.937
 6135WAT     H119987   3.877   6.202   3.981
 6135WAT     H219988   3.977   6.089   4.000
 6136WAT      O19989   4.111   6.297   4.737
 6136WAT     H119990   4.160   6.345   4.803
 6136WAT     H219991   4.125   6.205   4.758
 6137WAT      O19992   4.351   5.828   4.081
 6137WAT     H119993   4.339   5.829   3.986
 6137WAT     H219994   4.446   5.832   4.093
 6138WAT      O19995   4.060   7.351   4.008
 6138WAT     H119996   4.085   7.347   3.916
 6138WAT     H219997   3.965   7.338   4.008
 6139WAT      O19998   3.768   5.986   3.675
 6139WAT     H119999   3.853   6.030   3.668
 6139WAT     H220000   3.732   6.017   3.757
 6140WAT      O20001   4.831   5.919   4.821
 6140WAT     H120002   4.781   5.993   4.855
 6140WAT     H220003   4.913   5.958   4.790
 6141WAT      O20004   4.661   6.443   4.166
 6141WAT     H120005   4.566   6.445   4.183
 6141WAT     H220006   4.692   6.364   4.210
 6142WAT      O20007   4.861   7.160   4.333
 6142WAT     H120008   4.873   7.242   4.381
 6142WAT     H220009   4.947   7.139   4.299
 6143WAT      O20010   3.608   7.369   4.301
 6143WAT     H120011   3.682   7.315   4.328
 6143WAT     H220012   3.646   7.456   4.287
 6144WAT      O20013   3.296   6.976   3.888
 6144WAT     H120014   3.204   7.000   3.887
 6144WAT     H220015   3.343   7.059   3.876
 6145WAT      O20016   3.509   7.288   5.219
 6145WAT     H120017   3.589   7.320   5.261
 6145WAT     H220018   3.457   7.252   5.292
 6146WAT      O20019   3.919   7.287   3.483
 6146WAT     H120020   3.998   7.316   3.438
 6146WAT     H220021   3.867   7.244   3.415
 6147WAT      O20022   4.392   6.899   5.214
 6147WAT     H120023   4.332   6.901   5.140
 6147WAT     H220024   4.362   6.826   5.268
 6148WAT      O20025   4.535   7.272   5.075
 6148WAT     H120026   4.630   7.263   5.070
 6148WAT     H220027   4.520   7.338   5.143
 6149WAT      O20028   4.824   7.209   3.625
 6149WAT     H120029   4.796   7.168   3.544
 6149WAT     H220030   4.804   7.302   3.613
 6150WAT      O20031   3.281   6.537   5.114
 6150WAT     H120032   3.331   6.479   5.171
 6150WAT     H220033   3.207   6.565   5.168
 6151WAT      O20034   3.971   6.809   3.469
 6151WAT     H120035   3.960   6.747   3.542
 6151WAT     H220036   3.954   6.756   3.391
 6152WAT      O20037   3.986   6.677   5.067
 6152WAT     H120038   3.909   6.734   5.059
 6152WAT     H220039   4.004   6.648   4.978
 6153WAT      O20040   4.295   6.715   3.530
 6153WAT     H120041   4.240   6.760   3.594
 6153WAT     H220042   4.357   6.665   3.582
 6154WAT      O20043   4.700   6.850   5.123
 6154WAT     H120044   4.774   6.884   5.073
 6154WAT     H220045   4.624   6.867   5.068
 6155WAT      O20046   3.484   6.351   5.203
 6155WAT     H120047   3.488   6.321   5.294
 6155WAT     H220048   3.569   6.391   5.187
 6156WAT      O20049   3.862   6.611   3.719
 6156WAT     H120050   3.904   6.594   3.804
 6156WAT     H220051   3.874   6.530   3.670
 6157WAT      O20052   3.678   6.209   5.000
 6157WAT     H120053   3.625   6.160   4.937
 6157WAT     H220054   3.745   6.252   4.947
 6158WAT      O20055   4.113   6.513   3.444
 6158WAT     H120056   4.165   6.442   3.407
 6158WAT     H220057   4.177   6.577   3.474
 6159WAT      O20058   4.568   6.656   4.976
 6159WAT     H120059   4.609   6.671   5.061
 6159WAT     H220060   4.474   6.668   4.993
 6160WAT      O20061   4.615   6.390   5.177
 6160WAT     H120062   4.673   6.314   5.168
 6160WAT     H220063   4.632   6.443   5.099
 6161WAT      O20064   3.727   5.906   5.008
 6161WAT     H120065   3.717   5.844   4.936
 6161WAT     H220066   3.669   5.978   4.985
 6162WAT      O20067   4.003   5.761   4.711
 6162WAT     H120068   3.958   5.763   4.627
 6162WAT     H220069   3.940   5.721   4.771
 6163WAT      O20070   4.044   6.651   4.773
 6163WAT     H120071   4.086   6.735   4.756
 6163WAT     H220072   3.952   6.665   4.750
 6164WAT      O20073   4.277   6.424   4.912
 6164WAT     H120074   4.289   6.364   4.986
 6164WAT     H220075   4.363   6.428   4.870
 6165WAT      O20076   4.511   6.479   4.769
 6165WAT     H120077   4.459   6.532   4.709
 6165WAT     H220078   4.546   6.543   4.832
 6166WAT      O20079   3.829   7.281   4.885
 6166WAT     H120080   3.775   7.354   4.853
 6166WAT     H220081   3.854   7.234   4.806
 6167WAT      O20082   3.954   6.078   5.038
 6167WAT     H120083   4.013   6.047   5.106
 6167WAT     H220084   3.872   6.031   5.053
 6168WAT      O20085   4.436   6.040   5.061
 6168WAT     H120086   4.367   5.974   5.054
 6168WAT     H220087   4.508   5.995   5.105
 6169WAT      O20088   4.499   5.699   3.667
 6169WAT     H120089   4.527   5.615   3.702
 6169WAT     H220090   4.422   5.723   3.718
 6170WAT      O20091   4.114   7.405   4.911
 6170WAT     H120092   4.107   7.495   4.942
 6170WAT     H220093   4.024   7.373   4.908
 6171WAT      O20094   3.953   5.823   3.511
 6171WAT     H120095   3.918   5.755   3.453
 6171WAT     H220096   3.973   5.777   3.593
 6172WAT      O20097   4.169   7.321   3.673
 6172WAT     H120098   4.259   7.355   3.675
 6172WAT     H220099   4.172   7.249   3.610
 6173WAT      O20100   3.533   6.859   3.496
 6173WAT     H120101   3.577   6.913   3.562
 6173WAT     H220102   3.582   6.776   3.497
 6174WAT      O20103   3.255   7.138   4.241
 6174WAT     H120104   3.288   7.051   4.218
 6174WAT     H220105   3.298   7.158   4.324
 6175WAT      O20106   3.714   6.971   4.007
 6175WAT     H120107   3.684   6.958   4.097
 6175WAT     H220108   3.704   6.885   3.966
 6176WAT      O20109   3.304   7.224   4.515
 6176WAT     H120110   3.260   7.242   4.598
 6176WAT     H220111   3.360   7.300   4.501
 6177WAT      O20112   4.867   7.174   4.944
 6177WAT     H120113   4.807   7.180   4.869
 6177WAT     H220114   4.880   7.081   4.957
 6178WAT      O20115   4.991   6.949   3.477
 6178WAT     H120116   4.908   6.955   3.525
 6178WAT     H220117   5.009   7.038   3.447
 6179WAT      O20118   4.937   6.623   3.728
 6179WAT     H120119   5.013   6.680   3.738
 6179WAT     H220120   4.938   6.566   3.805
 6180WAT      O20121   3.287   6.475   4.151
 6180WAT     H120122   3.221   6.449   4.086
 6180WAT     H220123   3.371   6.465   4.106
 6181WAT      O20124   5.037   6.709   4.212
 6181WAT     H120125   5.075   6.630   4.172
 6181WAT     H220126   5.101   6.778   4.194
 6182WAT      O20127   4.736   6.847   4.754
 6182WAT     H120128   4.654   6.890   4.780
 6182WAT     H220129   4.776   6.908   4.692
 6183WAT      O20130   4.942   6.652   3.444
 6183WAT     H120131   4.969   6.743   3.431
 6183WAT     H220132   4.923   6.646   3.537
 6184WAT      O20133   4.582   5.955   3.573
 6184WAT     H120134   4.624   5.936   3.489
 6184WAT     H220135   4.551   5.870   3.604
 6185WAT      O20136   4.932   6.446   3.943
 6185WAT     H120137   4.894   6.369   3.900
 6185WAT     H220138   4.859   6.484   3.992
 6186WAT      O20139   3.391   6.514   4.605
 6186WAT     H120140   3.427   6.505   4.693
 6186WAT     H220141   3.334   6.438   4.595
 6187WAT      O20142   4.871   6.361   4.906
 6187WAT     H120143   4.848   6.338   4.816
 6187WAT     H220144   4.897   6.453   4.902
 6188WAT      O20145   3.346   6.205   4.995
 6188WAT     H120146   3.256   6.202   5.029
 6188WAT     H220147   3.400   6.225   5.072
 6189WAT      O20148   4.715   5.883   5.184
 6189WAT     H120149   4.802   5.884   5.222
 6189WAT     H220150   4.716   5.810   5.123
 6190WAT      O20151   4.859   6.269   4.273
 6190WAT     H120152   4.912   6.219   4.210
 6190WAT     H220153   4.918   6.282   4.347
 6191WAT      O20154   4.877   6.277   4.625
 6191WAT     H120155   4.782   6.274   4.637
 6191WAT     H220156   4.895   6.368   4.602
 6192WAT      O20157   4.808   6.194   3.867
 6192WAT     H120158   4.858   6.171   3.945
 6192WAT     H220159   4.788   6.111   3.825
 6193WAT      O20160   4.951   6.058   4.120
 6193WAT     H120161   4.940   6.043   4.214
 6193WAT     H220162   5.027   6.005   4.096
 6194WAT      O20163   4.786   5.652   4.766
 6194WAT     H120164   4.849   5.713   4.803
 6194WAT     H220165   4.800   5.656   4.672
 6195WAT      O20166   5.040   5.841   3.444
 6195WAT     H120167   5.132   5.828   3.423
 6195WAT     H220168   5.038   5.849   3.540
 6196WAT      O20169   5.047   5.918   3.707
 6196WAT     H120170   4.968   5.912   3.760
 6196WAT     H220171   5.068   6.012   3.706
 6197WAT      O20172   4.742   7.322   4.106
 6197WAT     H120173   4.801   7.290   4.039
 6197WAT     H220174   4.767   7.275   4.185
 6198WAT      O20175   3.532   6.965   5.121
 6198WAT     H120176   3.528   6.928   5.209
 6198WAT     H220177   3.545   7.059   5.135
 6199WAT      O20178   3.902   7.121   4.681
 6199WAT     H120179   3.878   7.148   4.593
 6199WAT     H220180   3.996   7.138   4.687
 6200WAT      O20181   4.123   5.767   5.057
 6200WAT     H120182   4.117   5.826   5.132
 6200WAT     H220183   4.217   5.757   5.042
 6201WAT      O20184   4.386   5.733   5.021
 6201WAT     H120185   4.448   5.765   4.955
 6201WAT     H220186   4.441   5.684   5.083
 6202WAT      O20187   5.028   7.323   4.761
 6202WAT     H120188   4.979   7.363   4.690
 6202WAT     H220189   4.967   7.260   4.801
 6203WAT      O20190   3.439   5.601   5.032
 6203WAT     H120191   3.494   5.583   4.956
 6203WAT     H220192   3.445   5.522   5.086
 6204WAT      O20193   3.516   7.260   4.833
 6204WAT     H120194   3.457   7.247   4.907
 6204WAT     H220195   3.515   7.176   4.787
 6205WAT      O20196   4.461   5.589   4.653
 6205WAT     H120197   4.373   5.623   4.633
 6205WAT     H220198   4.450   5.542   4.736
 6206WAT      O20199   4.551   5.810   4.792
 6206WAT     H120200   4.518   5.729   4.754
 6206WAT     H220201   4.646   5.806   4.779
 6207WAT      O20202   4.797   7.387   4.489
 6207WAT     H120203   4.751   7.462   4.452
 6207WAT     H220204   4.734   7.315   4.483
 6208WAT      O20205   3.479   6.997   4.728
 6208WAT     H120206   3.406   6.935   4.721
 6208WAT     H220207   3.485   7.036   4.641
 6209WAT      O20208   3.840   7.218   4.407
 6209WAT     H120209   3.891   7.157   4.354
 6209WAT     H220210   3.905   7.268   4.456
 6210WAT      O20211   4.114   7.307   4.489
 6210WAT     H120212   4.142   7.282   4.402
 6210WAT     H220213   4.165   7.252   4.548
 6211WAT      O20214   4.235   5.681   4.547
 6211WAT     H120215   4.157   5.728   4.575
 6211WAT     H220216   4.206   5.591   4.536
 6212WAT      O20217   4.691   5.751   4.352
 6212WAT     H120218   4.735   5.746   4.267
 6212WAT     H220219   4.664   5.843   4.359
 6213WAT      O20220   4.877   5.714   4.153
 6213WAT     H120221   4.871   5.620   4.138
 6213WAT     H220222   4.955   5.725   4.207
 6214WAT      O20223   3.307   7.328   4.049
 6214WAT     H120224   3.291   7.265   4.119
 6214WAT     H220225   3.221   7.349   4.014
 6215WAT      O20226   4.024   5.923   4.098
 6215WAT     H120227   3.943   5.885   4.064
 6215WAT     H220228   4.074   5.847   4.129
 6216WAT      O20229   4.474   5.589   4.222
 6216WAT     H120230   4.534   5.646   4.270
 6216WAT     H220231   4.400   5.646   4.200
 6217WAT      O20232   4.788   5.629   3.750
 6217WAT     H120233   4.808   5.719   3.776
 6217WAT     H220234   4.710   5.606   3.799
 6218WAT      O20235   3.468   7.198   3.794
 6218WAT     H120236   3.416   7.236   3.723
 6218WAT     H220237   3.461   7.260   3.866
 6219WAT      O20238   3.826   5.738   3.959
 6219WAT     H120239   3.763   5.668   3.976
 6219WAT     H220240   3.772   5.814   3.937
 6220WAT      O20241   4.120   7.399   5.226
 6220WAT     H120242   4.213   7.376   5.230
 6220WAT     H220243   4.119   7.482   5.178
 6221WAT      O20244   4.944   7.354   3.926
 6221WAT     H120245   4.961   7.285   3.861
 6221WAT     H220246   4.874   7.406   3.887
 6222WAT      O20247   3.839   5.666   5.202
 6222WAT     H120248   3.811   5.716   5.126
 6222WAT     H220249   3.877   5.586   5.166
 6223WAT      O20250   3.728   7.392   3.681
 6223WAT     H120251   3.801   7.364   3.626
 6223WAT     H220252   3.754   7.369   3.770
 6224WAT      O20253   3.644   7.004   3.682
 6224WAT     H120254   3.581   7.051   3.736
 6224WAT     H220255   3.656   6.920   3.725
 6225WAT      O20256   4.499   5.607   5.260
 6225WAT     H120257   4.488   5.639   5.350
 6225WAT     H220258   4.581   5.647   5.231
 6226WAT      O20259   4.777   7.322   5.208
 6226WAT     H120260   4.856   7.272   5.188
 6226WAT     H220261   4.806   7.390   5.269
 6227WAT      O20262   3.602   7.022   2.592
 6227WAT     H120263   3.633   6.933   2.574
 6227WAT     H220264   3.677   7.077   2.569
 6228WAT      O20265   4.228   7.256   2.325
 6228WAT     H120266   4.166   7.302   2.268
 6228WAT     H220267   4.313   7.272   2.285
 6229WAT      O20268   3.722   6.894   2.913
 6229WAT     H120269   3.783   6.962   2.885
 6229WAT     H220270   3.636   6.935   2.904
 6230WAT      O20271   3.251   6.813   1.801
 6230WAT     H120272   3.213   6.862   1.728
 6230WAT     H220273   3.277   6.880   1.865
 6231WAT      O20274   4.813   7.040   2.705
 6231WAT     H120275   4.745   7.107   2.704
 6231WAT     H220276   4.867   7.060   2.628
 6232WAT      O20277   4.507   6.715   2.709
 6232WAT     H120278   4.549   6.694   2.626
 6232WAT     H220279   4.579   6.741   2.766
 6233WAT      O20280   4.249   6.087   1.721
 6233WAT     H120281   4.155   6.103   1.729
 6233WAT     H220282   4.281   6.159   1.666
 6234WAT      O20283   4.902   6.555   2.718
 6234WAT     H120284   4.819   6.562   2.671
 6234WAT     H220285   4.961   6.614   2.672
 6235WAT      O20286   4.667   7.238   2.882
 6235WAT     H120287   4.619   7.319   2.862
 6235WAT     H220288   4.599   7.173   2.897
 6236WAT      O20289   3.830   7.136   3.259
 6236WAT     H120290   3.827   7.177   3.172
 6236WAT     H220291   3.813   7.043   3.243
 6237WAT      O20292   4.829   5.665   1.603
 6237WAT     H120293   4.798   5.675   1.693
 6237WAT     H220294   4.906   5.723   1.598
 6238WAT      O20295   3.481   6.402   2.049
 6238WAT     H120296   3.469   6.474   1.988
 6238WAT     H220297   3.450   6.325   2.001
 6239WAT      O20298   5.025   7.214   3.389
 6239WAT     H120299   5.073   7.262   3.457
 6239WAT     H220300   5.087   7.208   3.316
 6240WAT      O20301   3.370   6.889   2.271
 6240WAT     H120302   3.329   6.903   2.185
 6240WAT     H220303   3.459   6.861   2.251
 6241WAT      O20304   4.965   6.934   3.105
 6241WAT     H120305   4.978   6.910   3.013
 6241WAT     H220306   4.969   6.850   3.152
 6242WAT      O20307   4.351   7.304   2.962
 6242WAT     H120308   4.403   7.295   3.042
 6242WAT     H220309   4.267   7.339   2.991
 6243WAT      O20310   4.549   7.332   1.904
 6243WAT     H120311   4.533   7.303   1.994
 6243WAT     H220312   4.532   7.255   1.851
 6244WAT      O20313   3.797   7.310   2.082
 6244WAT     H120314   3.779   7.219   2.061
 6244WAT     H220315   3.711   7.346   2.106
 6245WAT      O20316   4.519   7.083   1.760
 6245WAT     H120317   4.450   7.083   1.694
 6245WAT     H220318   4.593   7.041   1.717
 6246WAT      O20319   4.950   6.139   3.201
 6246WAT     H120320   4.889   6.190   3.148
 6246WAT     H220321   4.918   6.049   3.195
 6247WAT      O20322   3.251   6.823   2.884
 6247WAT     H120323   3.267   6.776   2.802
 6247WAT     H220324   3.297   6.772   2.950
 6248WAT      O20325   4.657   6.145   3.061
 6248WAT     H120326   4.572   6.115   3.093
 6248WAT     H220327   4.641   6.169   2.970
 6249WAT      O20328   4.366   6.295   3.271
 6249WAT     H120329   4.399   6.212   3.237
 6249WAT     H220330   4.445   6.347   3.285
 6250WAT      O20331   4.040   5.698   1.875
 6250WAT     H120332   3.977   5.698   1.948
 6250WAT     H220333   4.031   5.612   1.836
 6251WAT      O20334   4.122   5.988   3.349
 6251WAT     H120335   4.053   5.969   3.413
 6251WAT     H220336   4.196   6.016   3.402
 6252WAT      O20337   3.213   6.166   1.566
 6252WAT     H120338   3.205   6.260   1.581
 6252WAT     H220339   3.178   6.152   1.479
 6253WAT      O20340   4.738   5.659   3.158
 6253WAT     H120341   4.771   5.585   3.210
 6253WAT     H220342   4.742   5.627   3.068
 6254WAT      O20343   4.277   5.809   1.933
 6254WAT     H120344   4.196   5.759   1.925
 6254WAT     H220345   4.258   5.893   1.891
 6255WAT      O20346   4.548   6.246   1.763
 6255WAT     H120347   4.637   6.278   1.745
 6255WAT     H220348   4.545   6.159   1.723
 6256WAT      O20349   4.262   6.959   3.082
 6256WAT     H120350   4.264   6.866   3.061
 6256WAT     H220351   4.191   6.968   3.146
 6257WAT      O20352   4.776   6.377   1.709
 6257WAT     H120353   4.767   6.421   1.624
 6257WAT     H220354   4.847   6.423   1.753
 6258WAT      O20355   4.883   6.623   3.017
 6258WAT     H120356   4.811   6.682   2.997
 6258WAT     H220357   4.936   6.622   2.937
 6259WAT      O20358   4.878   7.063   1.982
 6259WAT     H120359   4.814   6.997   2.010
 6259WAT     H220360   4.840   7.103   1.905
 6260WAT      O20361   3.259   6.433   1.657
 6260WAT     H120362   3.346   6.462   1.685
 6260WAT     H220363   3.210   6.515   1.645
 6261WAT      O20364   4.205   7.123   2.792
 6261WAT     H120365   4.270   7.144   2.859
 6261WAT     H220366   4.242   7.047   2.746
 6262WAT      O20367   4.717   6.952   1.636
 6262WAT     H120368   4.695   6.880   1.695
 6262WAT     H220369   4.678   6.927   1.552
 6263WAT      O20370   4.510   7.003   2.984
 6263WAT     H120371   4.544   7.062   3.052
 6263WAT     H220372   4.418   6.990   3.007
 6264WAT      O20373   3.296   7.355   1.713
 6264WAT     H120374   3.332   7.415   1.648
 6264WAT     H220375   3.281   7.409   1.791
 6265WAT      O20376   4.676   6.744   1.802
 6265WAT     H120377   4.647   6.790   1.881
 6265WAT     H220378   4.755   6.698   1.829
 6266WAT      O20379   4.093   7.008   3.301
 6266WAT     H120380   4.061   6.937   3.355
 6266WAT     H220381   4.026   7.076   3.308
 6267WAT      O20382   3.897   7.093   1.795
 6267WAT     H120383   3.896   7.166   1.734
 6267WAT     H220384   3.805   7.068   1.804
 6268WAT      O20385   3.457   6.615   1.870
 6268WAT     H120386   3.397   6.689   1.871
 6268WAT     H220387   3.505   6.624   1.787
 6269WAT      O20388   4.415   6.032   2.837
 6269WAT     H120389   4.451   5.950   2.870
 6269WAT     H220390   4.329   6.038   2.879
 6270WAT      O20391   4.751   5.927   1.918
 6270WAT     H120392   4.688   5.938   1.847
 6270WAT     H220393   4.702   5.949   1.997
 6271WAT      O20394   4.196   7.099   1.661
 6271WAT     H120395   4.206   7.079   1.568
 6271WAT     H220396   4.106   7.074   1.682
 6272WAT      O20397   4.060   7.351   2.131
 6272WAT     H120398   4.085   7.347   2.039
 6272WAT     H220399   3.965   7.338   2.130
 6273WAT      O20400   3.658   6.611   1.644
 6273WAT     H120401   3.735   6.600   1.701
 6273WAT     H220402   3.666   6.542   1.579
 6274WAT      O20403   3.608   7.369   2.423
 6274WAT     H120404   3.682   7.315   2.450
 6274WAT     H220405   3.646   7.456   2.409
 6275WAT      O20406   3.296   6.976   2.011
 6275WAT     H120407   3.204   7.000   2.010
 6275WAT     H220408   3.343   7.059   1.998
 6276WAT      O20409   3.509   7.288   3.342
 6276WAT     H120410   3.589   7.320   3.383
 6276WAT     H220411   3.457   7.252   3.414
 6277WAT      O20412   3.919   7.287   1.605
 6277WAT     H120413   3.998   7.316   1.560
 6277WAT     H220414   3.867   7.244   1.538
 6278WAT      O20415   4.392   6.899   3.337
 6278WAT     H120416   4.332   6.901   3.263
 6278WAT     H220417   4.362   6.826   3.390
 6279WAT      O20418   4.535   7.272   3.198
 6279WAT     H120419   4.630   7.263   3.193
 6279WAT     H220420   4.520   7.338   3.265
 6280WAT      O20421   4.824   7.209   1.748
 6280WAT     H120422   4.796   7.168   1.666
 6280WAT     H220423   4.804   7.302   1.736
 6281WAT      O20424   3.971   6.809   1.592
 6281WAT     H120425   3.960   6.747   1.664
 6281WAT     H220426   3.954   6.756   1.513
 6282WAT      O20427   4.295   6.715   1.652
 6282WAT     H120428   4.240   6.760   1.717
 6282WAT     H220429   4.357   6.665   1.705
 6283WAT      O20430   4.700   6.850   3.245
 6283WAT     H120431   4.774   6.884   3.195
 6283WAT     H220432   4.624   6.867   3.190
 6284WAT      O20433   4.113   6.513   1.567
 6284WAT     H120434   4.165   6.442   1.530
 6284WAT     H220435   4.177   6.577   1.597
 6285WAT      O20436   4.568   6.656   3.099
 6285WAT     H120437   4.609   6.671   3.184
 6285WAT     H220438   4.474   6.668   3.115
 6286WAT      O20439   4.615   6.390   3.299
 6286WAT     H120440   4.673   6.314   3.291
 6286WAT     H220441   4.632   6.443   3.222
 6287WAT      O20442   4.511   6.479   2.892
 6287WAT     H120443   4.459   6.532   2.832
 6287WAT     H220444   4.546   6.543   2.955
 6288WAT      O20445   3.829   7.281   3.008
 6288WAT     H120446   3.775   7.354   2.976
 6288WAT     H220447   3.854   7.234   2.929
 6289WAT      O20448   4.436   6.040   3.183
 6289WAT     H120449   4.367   5.974   3.177
 6289WAT     H220450   4.508   5.995   3.228
 6290WAT      O20451   4.499   5.699   1.789
 6290WAT     H120452   4.527   5.615   1.825
 6290WAT     H220453   4.422   5.723   1.841
 6291WAT      O20454   3.631   5.928   1.535
 6291WAT     H120455   3.661   5.929   1.444
 6291WAT     H220456   3.705   5.893   1.585
 6292WAT      O20457   4.114   7.405   3.033
 6292WAT     H120458   4.107   7.495   3.064
 6292WAT     H220459   4.024   7.373   3.031
 6293WAT      O20460   3.953   5.823   1.634
 6293WAT     H120461   3.918   5.755   1.576
 6293WAT     H220462   3.973   5.777   1.715
 6294WAT      O20463   4.169   7.321   1.796
 6294WAT     H120464   4.259   7.355   1.798
 6294WAT     H220465   4.172   7.249   1.733
 6295WAT      O20466   3.533   6.859   1.619
 6295WAT     H120467   3.577   6.913   1.684
 6295WAT     H220468   3.582   6.776   1.619
 6296WAT      O20469   3.255   7.138   2.364
 6296WAT     H120470   3.288   7.051   2.341
 6296WAT     H220471   3.298   7.158   2.447
 6297WAT      O20472   3.304   7.224   2.638
 6297WAT     H120473   3.260   7.242   2.721
 6297WAT     H220474   3.360   7.300   2.623
 6298WAT      O20475   4.867   7.174   3.066
 6298WAT     H120476   4.807   7.180   2.992
 6298WAT     H220477   4.880   7.081   3.079
 6299WAT      O20478   4.991   6.949   1.600
 6299WAT     H120479   4.908   6.955   1.647
 6299WAT     H220480   5.009   7.038   1.570
 6300WAT      O20481   4.937   6.623   1.850
 6300WAT     H120482   5.013   6.680   1.861
 6300WAT     H220483   4.938   6.566   1.927
 6301WAT      O20484   5.037   6.709   2.335
 6301WAT     H120485   5.075   6.630   2.294
 6301WAT     H220486   5.101   6.778   2.317
 6302WAT      O20487   4.736   6.847   2.876
 6302WAT     H120488   4.654   6.890   2.902
 6302WAT     H220489   4.776   6.908   2.815
 6303WAT      O20490   4.942   6.652   1.566
 6303WAT     H120491   4.969   6.743   1.553
 6303WAT     H220492   4.923   6.646   1.660
 6304WAT      O20493   4.582   5.955   1.696
 6304WAT     H120494   4.624   5.936   1.612
 6304WAT     H220495   4.551   5.870   1.727
 6305WAT      O20496   4.871   6.361   3.029
 6305WAT     H120497   4.848   6.338   2.939
 6305WAT     H220498   4.897   6.453   3.024
 6306WAT      O20499   4.715   5.883   3.307
 6306WAT     H120500   4.802   5.884   3.345
 6306WAT     H220501   4.716   5.810   3.246
 6307WAT      O20502   3.427   5.708   1.563
 6307WAT     H120503   3.500   5.762   1.594
 6307WAT     H220504   3.454   5.680   1.475
 6308WAT      O20505   4.808   6.194   1.989
 6308WAT     H120506   4.858   6.171   2.068
 6308WAT     H220507   4.788   6.111   1.948
 6309WAT      O20508   5.040   5.841   1.567
 6309WAT     H120509   5.132   5.828   1.546
 6309WAT     H220510   5.038   5.849   1.662
 6310WAT      O20511   5.047   5.918   1.829
 6310WAT     H120512   4.968   5.912   1.882
 6310WAT     H220513   5.068   6.012   1.828
 6311WAT      O20514   3.532   6.965   3.244
 6311WAT     H120515   3.528   6.928   3.332
 6311WAT     H220516   3.545   7.059   3.258
 6312WAT      O20517   3.902   7.121   2.804
 6312WAT     H120518   3.878   7.148   2.715
 6312WAT     H220519   3.996   7.138   2.809
 6313WAT      O20520   4.123   5.767   3.179
 6313WAT     H120521   4.117   5.826   3.254
 6313WAT     H220522   4.217   5.757   3.165
 6314WAT      O20523   4.386   5.733   3.143
 6314WAT     H120524   4.448   5.765   3.077
 6314WAT     H220525   4.441   5.684   3.205
 6315WAT      O20526   5.028   7.323   2.884
 6315WAT     H120527   4.979   7.363   2.812
 6315WAT     H220528   4.967   7.260   2.923
 6316WAT      O20529   3.516   7.260   2.956
 6316WAT     H120530   3.457   7.247   3.030
 6316WAT     H220531   3.515   7.176   2.909
 6317WAT      O20532   4.461   5.589   2.776
 6317WAT     H120533   4.373   5.623   2.756
 6317WAT     H220534   4.450   5.542   2.858
 6318WAT      O20535   4.797   7.387   2.612
 6318WAT     H120536   4.751   7.462   2.574
 6318WAT     H220537   4.734   7.315   2.606
 6319WAT      O20538   3.479   6.997   2.851
 6319WAT     H120539   3.406   6.935   2.844
 6319WAT     H220540   3.485   7.036   2.764
 6320WAT      O20541   3.840   7.218   2.529
 6320WAT     H120542   3.891   7.157   2.477
 6320WAT     H220543   3.905   7.268   2.578
 6321WAT      O20544   4.114   7.307   2.612
 6321WAT     H120545   4.142   7.282   2.524
 6321WAT     H220546   4.165   7.252   2.671
 6322WAT      O20547   4.235   5.681   2.670
 6322WAT     H120548   4.157   5.728   2.698
 6322WAT     H220549   4.206   5.591   2.659
 6323WAT      O20550   3.307   7.328   2.172
 6323WAT     H120551   3.291   7.265   2.242
 6323WAT     H220552   3.221   7.349   2.137
 6324WAT      O20553   4.788   5.629   1.872
 6324WAT     H120554   4.808   5.719   1.899
 6324WAT     H220555   4.710   5.606   1.922
 6325WAT      O20556   3.468   7.198   1.916
 6325WAT     H120557   3.416   7.236   1.846
 6325WAT     H220558   3.461   7.260   1.988
 6326WAT      O20559   3.607   5.764   1.776
 6326WAT     H120560   3.660   5.685   1.763
 6326WAT     H220561   3.670   5.832   1.799
 6327WAT      O20562   4.120   7.399   3.349
 6327WAT     H120563   4.213   7.376   3.353
 6327WAT     H220564   4.119   7.482   3.300
 6328WAT      O20565   4.944   7.354   2.048
 6328WAT     H120566   4.961   7.285   1.984
 6328WAT     H220567   4.874   7.406   2.009
 6329WAT      O20568   3.839   5.666   3.325
 6329WAT     H120569   3.811   5.716   3.249
 6329WAT     H220570   3.877   5.586   3.288
 6330WAT      O20571   3.728   7.392   1.804
 6330WAT     H120572   3.801   7.364   1.749
 6330WAT     H220573   3.754   7.369   1.893
 6331WAT      O20574   3.644   7.004   1.804
 6331WAT     H120575   3.581   7.051   1.859
 6331WAT     H220576   3.656   6.920   1.848
 6332WAT      O20577   4.499   5.607   3.383
 6332WAT     H120578   4.488   5.639   3.472
 6332WAT     H220579   4.581   5.647   3.353
 6333WAT      O20580   4.777   7.322   3.331
 6333WAT     H120581   4.856   7.272   3.310
 6333WAT     H220582   4.806   7.390   3.392
 6334WAT      O20583   4.390   6.409   0.419
 6334WAT     H120584   4.382   6.318   0.392
 6334WAT     H220585   4.348   6.459   0.349
 6335WAT      O20586   4.203   6.587   0.607
 6335WAT     H120587   4.125   6.539   0.636
 6335WAT     H220588   4.268   6.519   0.590
 6336WAT      O20589   3.604   6.618   0.695
 6336WAT     H120590   3.521   6.593   0.735
 6336WAT     H220591   3.665   6.625   0.769
 6337WAT      O20592   4.605   7.028   0.485
 6337WAT     H120593   4.559   6.950   0.518
 6337WAT     H220594   4.686   7.030   0.536
 6338WAT      O20595   3.602   7.022   0.715
 6338WAT     H120596   3.633   6.933   0.697
 6338WAT     H220597   3.677   7.077   0.692
 6339WAT      O20598   3.242   6.374   0.662
 6339WAT     H120599   3.299   6.297   0.662
 6339WAT     H220600   3.242   6.404   0.571
 6340WAT      O20601   4.228   7.256   0.447
 6340WAT     H120602   4.166   7.302   0.390
 6340WAT     H220603   4.313   7.272   0.407
 6341WAT      O20604   4.147   6.855   0.608
 6341WAT     H120605   4.140   6.760   0.592
 6341WAT     H220606   4.223   6.864   0.665
 6342WAT      O20607   3.366   5.915   0.841
 6342WAT     H120608   3.348   5.825   0.869
 6342WAT     H220609   3.326   5.970   0.908
 6343WAT      O20610   4.250   6.135   0.631
 6343WAT     H120611   4.288   6.048   0.619
 6343WAT     H220612   4.240   6.169   0.542
 6344WAT      O20613   3.663   5.972   0.177
 6344WAT     H120614   3.674   6.063   0.208
 6344WAT     H220615   3.572   5.968   0.148
 6345WAT      O20616   4.628   5.885   0.324
 6345WAT     H120617   4.710   5.836   0.328
 6345WAT     H220618   4.632   5.944   0.399
 6346WAT      O20619   3.428   6.165   0.701
 6346WAT     H120620   3.496   6.191   0.763
 6346WAT     H220621   3.396   6.081   0.735
 6347WAT      O20622   3.847   6.269   0.610
 6347WAT     H120623   3.898   6.319   0.674
 6347WAT     H220624   3.900   6.192   0.592
 6348WAT      O20625   5.057   6.086   0.980
 6348WAT     H120626   4.987   6.125   0.929
 6348WAT     H220627   5.084   6.156   1.041
 6349WAT      O20628   3.675   5.733   1.037
 6349WAT     H120629   3.676   5.785   0.956
 6349WAT     H220630   3.592   5.686   1.034
 6350WAT      O20631   3.800   6.697   0.854
 6350WAT     H120632   3.767   6.760   0.919
 6350WAT     H220633   3.818   6.750   0.776
 6351WAT      O20634   4.652   6.079   0.601
 6351WAT     H120635   4.581   6.108   0.659
 6351WAT     H220636   4.688   6.160   0.565
 6352WAT      O20637   3.644   5.904   0.837
 6352WAT     H120638   3.678   5.989   0.808
 6352WAT     H220639   3.550   5.919   0.849
 6353WAT      O20640   3.722   6.894   1.036
 6353WAT     H120641   3.783   6.962   1.008
 6353WAT     H220642   3.636   6.935   1.027
 6354WAT      O20643   4.813   7.040   0.827
 6354WAT     H120644   4.745   7.107   0.827
 6354WAT     H220645   4.867   7.060   0.751
 6355WAT      O20646   4.959   6.023   0.640
 6355WAT     H120647   4.864   6.027   0.653
 6355WAT     H220648   4.991   6.105   0.679
 6356WAT      O20649   4.012   5.653   0.470
 6356WAT     H120650   4.043   5.598   0.398
 6356WAT     H220651   3.919   5.667   0.452
 6357WAT      O20652   4.567   7.225   0.699
 6357WAT     H120653   4.568   7.185   0.612
 6357WAT     H220654   4.512   7.302   0.689
 6358WAT      O20655   4.696   6.897   0.208
 6358WAT     H120656   4.685   6.803   0.220
 6358WAT     H220657   4.696   6.933   0.296
 6359WAT      O20658   4.507   6.715   0.832
 6359WAT     H120659   4.549   6.694   0.748
 6359WAT     H220660   4.579   6.741   0.889
 6360WAT      O20661   4.902   6.555   0.841
 6360WAT     H120662   4.819   6.562   0.793
 6360WAT     H220663   4.961   6.614   0.794
 6361WAT      O20664   4.598   6.234   0.935
 6361WAT     H120665   4.557   6.316   0.961
 6361WAT     H220666   4.525   6.175   0.916
 6362WAT      O20667   3.811   6.512   0.422
 6362WAT     H120668   3.771   6.441   0.372
 6362WAT     H220669   3.820   6.478   0.511
 6363WAT      O20670   3.858   6.881   0.638
 6363WAT     H120671   3.828   6.821   0.570
 6363WAT     H220672   3.953   6.885   0.627
 6364WAT      O20673   3.683   6.190   0.800
 6364WAT     H120674   3.738   6.201   0.722
 6364WAT     H220675   3.734   6.227   0.871
 6365WAT      O20676   4.667   7.238   1.004
 6365WAT     H120677   4.619   7.319   0.985
 6365WAT     H220678   4.599   7.173   1.020
 6366WAT      O20679   3.767   6.855   1.303
 6366WAT     H120680   3.678   6.877   1.328
 6366WAT     H220681   3.770   6.867   1.208
 6367WAT      O20682   3.650   6.542   1.161
 6367WAT     H120683   3.636   6.629   1.198
 6367WAT     H220684   3.562   6.508   1.146
 6368WAT      O20685   4.282   7.034   0.291
 6368WAT     H120686   4.326   7.108   0.250
 6368WAT     H220687   4.276   7.058   0.384
 6369WAT      O20688   3.830   7.136   1.382
 6369WAT     H120689   3.827   7.177   1.295
 6369WAT     H220690   3.813   7.043   1.365
 6370WAT      O20691   5.025   7.214   1.511
 6370WAT     H120692   5.073   7.262   1.579
 6370WAT     H220693   5.087   7.208   1.439
 6371WAT      O20694   3.245   6.719   0.752
 6371WAT     H120695   3.253   6.732   0.658
 6371WAT     H220696   3.307   6.648   0.772
 6372WAT      O20697   3.370   6.889   0.393
 6372WAT     H120698   3.329   6.903   0.308
 6372WAT     H220699   3.459   6.861   0.373
 6373WAT      O20700   4.965   6.934   1.227
 6373WAT     H120701   4.978   6.910   1.135
 6373WAT     H220702   4.969   6.850   1.274
 6374WAT      O20703   4.351   7.304   1.084
 6374WAT     H120704   4.403   7.295   1.164
 6374WAT     H220705   4.267   7.339   1.113
 6375WAT      O20706   3.797   7.310   0.205
 6375WAT     H120707   3.779   7.219   0.183
 6375WAT     H220708   3.711   7.346   0.229
 6376WAT      O20709   4.476   7.246   0.290
 6376WAT     H120710   4.521   7.168   0.322
 6376WAT     H220711   4.510   7.317   0.345
 6377WAT      O20712   4.950   6.139   1.324
 6377WAT     H120713   4.889   6.190   1.271
 6377WAT     H220714   4.918   6.049   1.318
 6378WAT      O20715   3.251   6.823   1.006
 6378WAT     H120716   3.267   6.776   0.925
 6378WAT     H220717   3.297   6.772   1.073
 6379WAT      O20718   3.728   5.736   0.510
 6379WAT     H120719   3.684   5.814   0.477
 6379WAT     H220720   3.784   5.768   0.581
 6380WAT      O20721   4.157   6.023   1.070
 6380WAT     H120722   4.110   6.044   1.152
 6380WAT     H220723   4.116   5.941   1.040
 6381WAT      O20724   4.657   6.145   1.183
 6381WAT     H120725   4.572   6.115   1.215
 6381WAT     H220726   4.641   6.169   1.092
 6382WAT      O20727   4.366   6.295   1.393
 6382WAT     H120728   4.399   6.212   1.359
 6382WAT     H220729   4.445   6.347   1.408
 6383WAT      O20730   3.932   5.791   0.696
 6383WAT     H120731   3.961   5.881   0.688
 6383WAT     H220732   3.987   5.742   0.634
 6384WAT      O20733   3.707   6.249   0.283
 6384WAT     H120734   3.684   6.227   0.373
 6384WAT     H220735   3.629   6.292   0.248
 6385WAT      O20736   3.951   6.338   1.349
 6385WAT     H120737   3.942   6.244   1.334
 6385WAT     H220738   4.035   6.361   1.310
 6386WAT      O20739   4.291   6.113   0.346
 6386WAT     H120740   4.330   6.145   0.264
 6386WAT     H220741   4.327   6.025   0.357
 6387WAT      O20742   3.464   5.980   1.165
 6387WAT     H120743   3.425   6.064   1.185
 6387WAT     H220744   3.395   5.916   1.184
 6388WAT      O20745   4.122   5.988   1.472
 6388WAT     H120746   4.053   5.969   1.535
 6388WAT     H220747   4.196   6.016   1.525
 6389WAT      O20748   3.194   5.772   0.568
 6389WAT     H120749   3.165   5.829   0.639
 6389WAT     H220750   3.269   5.724   0.604
 6390WAT      O20751   4.349   6.372   0.755
 6390WAT     H120752   4.276   6.423   0.790
 6390WAT     H220753   4.310   6.290   0.725
 6391WAT      O20754   3.993   6.039   0.596
 6391WAT     H120755   3.993   5.995   0.511
 6391WAT     H220756   4.083   6.072   0.606
 6392WAT      O20757   3.578   6.028   0.492
 6392WAT     H120758   3.544   6.075   0.567
 6392WAT     H220759   3.502   5.982   0.456
 6393WAT      O20760   4.396   5.917   0.696
 6393WAT     H120761   4.397   5.962   0.781
 6393WAT     H220762   4.371   5.827   0.718
 6394WAT      O20763   4.738   5.659   1.280
 6394WAT     H120764   4.771   5.585   1.333
 6394WAT     H220765   4.742   5.627   1.190
 6395WAT      O20766   3.408   6.761   1.222
 6395WAT     H120767   3.370   6.697   1.282
 6395WAT     H220768   3.439   6.831   1.279
 6396WAT      O20769   4.023   6.445   0.770
 6396WAT     H120770   4.060   6.398   0.845
 6396WAT     H220771   4.004   6.533   0.804
 6397WAT      O20772   3.310   5.920   0.383
 6397WAT     H120773   3.281   5.883   0.467
 6397WAT     H220774   3.303   5.847   0.322
 6398WAT      O20775   3.802   6.349   1.002
 6398WAT     H120776   3.772   6.437   1.025
 6398WAT     H220777   3.898   6.355   1.006
 6399WAT      O20778   4.731   6.670   0.641
 6399WAT     H120779   4.803   6.719   0.602
 6399WAT     H220780   4.711   6.602   0.577
 6400WAT      O20781   4.269   6.677   1.230
 6400WAT     H120782   4.262   6.585   1.204
 6400WAT     H220783   4.206   6.687   1.301
 6401WAT      O20784   3.659   6.737   0.426
 6401WAT     H120785   3.711   6.657   0.420
 6401WAT     H220786   3.614   6.731   0.510
 6402WAT      O20787   3.408   6.434   1.117
 6402WAT     H120788   3.372   6.500   1.176
 6402WAT     H220789   3.378   6.350   1.154
 6403WAT      O20790   3.728   6.479   1.405
 6403WAT     H120791   3.698   6.494   1.316
 6403WAT     H220792   3.805   6.423   1.396
 6404WAT      O20793   4.262   6.959   1.205
 6404WAT     H120794   4.264   6.866   1.183
 6404WAT     H220795   4.191   6.968   1.269
 6405WAT      O20796   4.883   6.623   1.140
 6405WAT     H120797   4.811   6.682   1.120
 6405WAT     H220798   4.936   6.622   1.060
 6406WAT      O20799   4.436   6.796   0.489
 6406WAT     H120800   4.472   6.736   0.423
 6406WAT     H220801   4.348   6.763   0.507
 6407WAT      O20802   4.045   6.872   0.230
 6407WAT     H120803   4.114   6.926   0.268
 6407WAT     H220804   3.966   6.926   0.234
 6408WAT      O20805   3.975   6.572   0.191
 6408WAT     H120806   4.021   6.653   0.214
 6408WAT     H220807   3.940   6.540   0.275
 6409WAT      O20808   4.205   7.123   0.914
 6409WAT     H120809   4.270   7.144   0.982
 6409WAT     H220810   4.242   7.047   0.869
 6410WAT      O20811   3.565   5.607   0.239
 6410WAT     H120812   3.552   5.606   0.333
 6410WAT     H220813   3.483   5.640   0.204
 6411WAT      O20814   4.333   6.924   0.786
 6411WAT     H120815   4.397   6.853   0.797
 6411WAT     H220816   4.385   7.002   0.768
 6412WAT      O20817   4.510   7.003   1.106
 6412WAT     H120818   4.544   7.062   1.174
 6412WAT     H220819   4.418   6.990   1.129
 6413WAT      O20820   3.265   5.782   1.185
 6413WAT     H120821   3.194   5.802   1.245
 6413WAT     H220822   3.307   5.705   1.222
 6414WAT      O20823   3.294   7.181   1.283
 6414WAT     H120824   3.305   7.087   1.269
 6414WAT     H220825   3.229   7.208   1.218
 6415WAT      O20826   4.093   7.008   1.423
 6415WAT     H120827   4.061   6.937   1.478
 6415WAT     H220828   4.026   7.076   1.431
 6416WAT      O20829   4.415   6.032   0.960
 6416WAT     H120830   4.451   5.950   0.992
 6416WAT     H220831   4.329   6.038   1.001
 6417WAT      O20832   3.948   6.155   0.182
 6417WAT     H120833   3.877   6.202   0.226
 6417WAT     H220834   3.977   6.089   0.246
 6418WAT      O20835   4.111   6.297   0.982
 6418WAT     H120836   4.160   6.345   1.049
 6418WAT     H220837   4.125   6.205   1.003
 6419WAT      O20838   4.351   5.828   0.326
 6419WAT     H120839   4.339   5.829   0.231
 6419WAT     H220840   4.446   5.832   0.338
 6420WAT      O20841   4.060   7.351   0.253
 6420WAT     H120842   4.085   7.347   0.161
 6420WAT     H220843   3.965   7.338   0.253
 6421WAT      O20844   4.831   5.919   1.066
 6421WAT     H120845   4.781   5.993   1.100
 6421WAT     H220846   4.913   5.958   1.035
 6422WAT      O20847   4.661   6.443   0.411
 6422WAT     H120848   4.566   6.445   0.428
 6422WAT     H220849   4.692   6.364   0.456
 6423WAT      O20850   4.861   7.160   0.579
 6423WAT     H120851   4.873   7.242   0.626
 6423WAT     H220852   4.947   7.139   0.544
 6424WAT      O20853   3.608   7.369   0.546
 6424WAT     H120854   3.682   7.315   0.573
 6424WAT     H220855   3.646   7.456   0.532
 6425WAT      O20856   3.509   7.288   1.465
 6425WAT     H120857   3.589   7.320   1.506
 6425WAT     H220858   3.457   7.252   1.537
 6426WAT      O20859   4.392   6.899   1.459
 6426WAT     H120860   4.332   6.901   1.385
 6426WAT     H220861   4.362   6.826   1.513
 6427WAT      O20862   4.535   7.272   1.320
 6427WAT     H120863   4.630   7.263   1.315
 6427WAT     H220864   4.520   7.338   1.388
 6428WAT      O20865   3.281   6.537   1.359
 6428WAT     H120866   3.331   6.479   1.416
 6428WAT     H220867   3.207   6.565   1.413
 6429WAT      O20868   3.986   6.677   1.312
 6429WAT     H120869   3.909   6.734   1.304
 6429WAT     H220870   4.004   6.648   1.223
 6430WAT      O20871   4.700   6.850   1.368
 6430WAT     H120872   4.774   6.884   1.318
 6430WAT     H220873   4.624   6.867   1.313
 6431WAT      O20874   3.484   6.351   1.448
 6431WAT     H120875   3.488   6.321   1.539
 6431WAT     H220876   3.569   6.391   1.432
 6432WAT      O20877   3.678   6.209   1.245
 6432WAT     H120878   3.625   6.160   1.182
 6432WAT     H220879   3.745   6.252   1.192
 6433WAT      O20880   4.568   6.656   1.222
 6433WAT     H120881   4.609   6.671   1.306
 6433WAT     H220882   4.474   6.668   1.238
 6434WAT      O20883   4.615   6.390   1.422
 6434WAT     H120884   4.673   6.314   1.413
 6434WAT     H220885   4.632   6.443   1.344
 6435WAT      O20886   3.727   5.906   1.253
 6435WAT     H120887   3.717   5.844   1.181
 6435WAT     H220888   3.669   5.978   1.230
 6436WAT      O20889   4.003   5.761   0.956
 6436WAT     H120890   3.958   5.763   0.872
 6436WAT     H220891   3.940   5.721   1.016
 6437WAT      O20892   4.044   6.651   1.019
 6437WAT     H120893   4.086   6.735   1.001
 6437WAT     H220894   3.952   6.665   0.996
 6438WAT      O20895   4.277   6.424   1.157
 6438WAT     H120896   4.289   6.364   1.231
 6438WAT     H220897   4.363   6.428   1.115
 6439WAT      O20898   4.511   6.479   1.015
 6439WAT     H120899   4.459   6.532   0.954
 6439WAT     H220900   4.546   6.543   1.078
 6440WAT      O20901   3.829   7.281   1.130
 6440WAT     H120902   3.775   7.354   1.098
 6440WAT     H220903   3.854   7.234   1.051
 6441WAT      O20904   3.954   6.078   1.283
 6441WAT     H120905   4.013   6.047   1.351
 6441WAT     H220906   3.872   6.031   1.298
 6442WAT      O20907   4.436   6.040   1.306
 6442WAT     H120908   4.367   5.974   1.299
 6442WAT     H220909   4.508   5.995   1.350
 6443WAT      O20910   4.114   7.405   1.156
 6443WAT     H120911   4.107   7.495   1.187
 6443WAT     H220912   4.024   7.373   1.153
 6444WAT      O20913   3.255   7.138   0.486
 6444WAT     H120914   3.288   7.051   0.463
 6444WAT     H220915   3.298   7.158   0.569
 6445WAT      O20916   3.714   6.971   0.252
 6445WAT     H120917   3.684   6.958   0.342
 6445WAT     H220918   3.704   6.885   0.211
 6446WAT      O20919   3.304   7.224   0.760
 6446WAT     H120920   3.260   7.242   0.843
 6446WAT     H220921   3.360   7.300   0.746
 6447WAT      O20922   4.867   7.174   1.189
 6447WAT     H120923   4.807   7.180   1.115
 6447WAT     H220924   4.880   7.081   1.202
 6448WAT      O20925   3.287   6.475   0.396
 6448WAT     H120926   3.221   6.449   0.332
 6448WAT     H220927   3.371   6.465   0.351
 6449WAT      O20928   5.037   6.709   0.457
 6449WAT     H120929   5.075   6.630   0.417
 6449WAT     H220930   5.101   6.778   0.440
 6450WAT      O20931   4.736   6.847   0.999
 6450WAT     H120932   4.654   6.890   1.025
 6450WAT     H220933   4.776   6.908   0.937
 6451WAT      O20934   4.932   6.446   0.188
 6451WAT     H120935   4.894   6.369   0.145
 6451WAT     H220936   4.859   6.484   0.237
 6452WAT      O20937   3.391   6.514   0.850
 6452WAT     H120938   3.427   6.505   0.938
 6452WAT     H220939   3.334   6.438   0.840
 6453WAT      O20940   4.871   6.361   1.151
 6453WAT     H120941   4.848   6.338   1.061
 6453WAT     H220942   4.897   6.453   1.147
 6454WAT      O20943   3.346   6.205   1.241
 6454WAT     H120944   3.256   6.202   1.275
 6454WAT     H220945   3.400   6.225   1.317
 6455WAT      O20946   4.715   5.883   1.429
 6455WAT     H120947   4.802   5.884   1.467
 6455WAT     H220948   4.716   5.810   1.368
 6456WAT      O20949   4.859   6.269   0.518
 6456WAT     H120950   4.912   6.219   0.455
 6456WAT     H220951   4.918   6.282   0.592
 6457WAT      O20952   4.877   6.277   0.870
 6457WAT     H120953   4.782   6.274   0.882
 6457WAT     H220954   4.895   6.368   0.847
 6458WAT      O20955   3.396   5.633   0.675
 6458WAT     H120956   3.461   5.578   0.631
 6458WAT     H220957   3.438   5.658   0.758
 6459WAT      O20958   4.951   6.058   0.365
 6459WAT     H120959   4.940   6.043   0.459
 6459WAT     H220960   5.027   6.005   0.341
 6460WAT      O20961   4.786   5.652   1.011
 6460WAT     H120962   4.849   5.713   1.048
 6460WAT     H220963   4.800   5.656   0.917
 6461WAT      O20964   4.742   7.322   0.351
 6461WAT     H120965   4.801   7.290   0.284
 6461WAT     H220966   4.767   7.275   0.430
 6462WAT      O20967   3.371   5.648   0.950
 6462WAT     H120968   3.337   5.694   1.026
 6462WAT     H220969   3.338   5.559   0.958
 6463WAT      O20970   3.532   6.965   1.366
 6463WAT     H120971   3.528   6.928   1.454
 6463WAT     H220972   3.545   7.059   1.380
 6464WAT      O20973   3.902   7.121   0.926
 6464WAT     H120974   3.878   7.148   0.838
 6464WAT     H220975   3.996   7.138   0.932
 6465WAT      O20976   4.123   5.767   1.302
 6465WAT     H120977   4.117   5.826   1.377
 6465WAT     H220978   4.217   5.757   1.287
 6466WAT      O20979   4.386   5.733   1.266
 6466WAT     H120980   4.448   5.765   1.200
 6466WAT     H220981   4.441   5.684   1.328
 6467WAT      O20982   5.028   7.323   1.006
 6467WAT     H120983   4.979   7.363   0.935
 6467WAT     H220984   4.967   7.260   1.046
 6468WAT      O20985   3.439   5.601   1.277
 6468WAT     H120986   3.494   5.583   1.201
 6468WAT     H220987   3.445   5.522   1.331
 6469WAT      O20988   3.516   7.260   1.078
 6469WAT     H120989   3.457   7.247   1.152
 6469WAT     H220990   3.515   7.176   1.032
 6470WAT      O20991   4.461   5.589   0.899
 6470WAT     H120992   4.373   5.623   0.878
 6470WAT     H220993   4.450   5.542   0.981
 6471WAT      O20994   4.551   5.810   1.037
 6471WAT     H120995   4.518   5.729   0.999
 6471WAT     H220996   4.646   5.806   1.025
 6472WAT      O20997   4.797   7.387   0.734
 6472WAT     H120998   4.751   7.462   0.697
 6472WAT     H220999   4.734   7.315   0.728
 6473WAT      O21000   3.479   6.997   0.973
 6473WAT     H121001   3.406   6.935   0.967
 6473WAT     H221002   3.485   7.036   0.886
 6474WAT      O21003   3.840   7.218   0.652
 6474WAT     H121004   3.891   7.157   0.599
 6474WAT     H221005   3.905   7.268   0.701
 6475WAT      O21006   4.114   7.307   0.734
 6475WAT     H121007   4.142   7.282   0.647
 6475WAT     H221008   4.165   7.252   0.794
 6476WAT      O21009   4.235   5.681   0.792
 6476WAT     H121010   4.157   5.728   0.820
 6476WAT     H221011   4.206   5.591   0.782
 6477WAT      O21012   4.691   5.751   0.597
 6477WAT     H121013   4.735   5.746   0.512
 6477WAT     H221014   4.664   5.843   0.604
 6478WAT      O21015   4.877   5.714   0.398
 6478WAT     H121016   4.871   5.620   0.383
 6478WAT     H221017   4.955   5.725   0.453
 6479WAT      O21018   3.307   7.328   0.294
 6479WAT     H121019   3.291   7.265   0.364
 6479WAT     H221020   3.221   7.349   0.259
 6480WAT      O21021   4.024   5.923   0.344
 6480WAT     H121022   3.943   5.885   0.310
 6480WAT     H221023   4.074   5.847   0.374
 6481WAT      O21024   4.474   5.589   0.467
 6481WAT     H121025   4.534   5.646   0.515
 6481WAT     H221026   4.400   5.646   0.445
 6482WAT      O21027   3.826   5.738   0.204
 6482WAT     H121028   3.763   5.668   0.221
 6482WAT     H221029   3.772   5.814   0.182
 6483WAT      O21030   4.120   7.399   1.471
 6483WAT     H121031   4.213   7.376   1.476
 6483WAT     H221032   4.119   7.482   1.423
 6484WAT      O21033   3.839   5.666   1.448
 6484WAT     H121034   3.811   5.716   1.371
 6484WAT     H221035   3.877   5.586   1.411
 6485WAT      O21036   4.499   5.607   1.505
 6485WAT     H121037   4.488   5.639   1.595
 6485WAT     H221038   4.581   5.647   1.476
 6486WAT      O21039   4.777   7.322   1.454
 6486WAT     H121040   4.856   7.272   1.433
 6486WAT     H221041   4.806   7.390   1.514
 6487WAT      O21042   4.390   4.532   6.051
 6487WAT     H121043   4.382   4.440   6.024
 6487WAT     H221044   4.348   4.581   5.981
 6488WAT      O21045   4.203   4.710   6.240
 6488WAT     H121046   4.125   4.662   6.269
 6488WAT     H221047   4.268   4.642   6.222
 6489WAT      O21048   3.604   4.741   6.327
 6489WAT     H121049   3.521   4.715   6.367
 6489WAT     H221050   3.665   4.748   6.401
 6490WAT      O21051   4.605   5.150   6.118
 6490WAT     H121052   4.559   5.073   6.150
 6490WAT     H221053   4.686   5.153   6.168
 6491WAT      O21054   3.602   5.144   6.347
 6491WAT     H121055   3.633   5.055   6.329
 6491WAT     H221056   3.677   5.200   6.324
 6492WAT      O21057   3.445   4.237   5.706
 6492WAT     H121058   3.357   4.271   5.696
 6492WAT     H221059   3.474   4.217   5.617
 6493WAT      O21060   3.242   4.497   6.294
 6493WAT     H121061   3.299   4.420   6.294
 6493WAT     H221062   3.242   4.527   6.203
 6494WAT      O21063   4.228   5.379   6.080
 6494WAT     H121064   4.166   5.424   6.023
 6494WAT     H221065   4.313   5.394   6.039
 6495WAT      O21066   4.147   4.977   6.240
 6495WAT     H121067   4.140   4.883   6.224
 6495WAT     H221068   4.223   4.986   6.297
 6496WAT      O21069   3.366   4.038   6.473
 6496WAT     H121070   3.348   3.948   6.501
 6496WAT     H221071   3.326   4.092   6.540
 6497WAT      O21072   4.250   4.258   6.263
 6497WAT     H121073   4.288   4.171   6.252
 6497WAT     H221074   4.240   4.291   6.174
 6498WAT      O21075   3.663   4.095   5.809
 6498WAT     H121076   3.674   4.185   5.840
 6498WAT     H221077   3.572   4.090   5.780
 6499WAT      O21078   4.628   4.007   5.956
 6499WAT     H121079   4.710   3.958   5.960
 6499WAT     H221080   4.632   4.066   6.032
 6500WAT      O21081   3.428   4.287   6.334
 6500WAT     H121082   3.496   4.314   6.396
 6500WAT     H221083   3.396   4.203   6.367
 6501WAT      O21084   3.847   4.392   6.242
 6501WAT     H121085   3.898   4.442   6.306
 6501WAT     H221086   3.900   4.314   6.225
 6502WAT      O21087   4.314   4.867   5.819
 6502WAT     H121088   4.252   4.914   5.763
 6502WAT     H221089   4.365   4.936   5.861
 6503WAT      O21090   3.800   4.820   6.487
 6503WAT     H121091   3.767   4.883   6.551
 6503WAT     H221092   3.818   4.872   6.409
 6504WAT      O21093   4.652   4.201   6.234
 6504WAT     H121094   4.581   4.230   6.292
 6504WAT     H221095   4.688   4.282   6.198
 6505WAT      O21096   3.644   4.027   6.470
 6505WAT     H121097   3.678   4.111   6.440
 6505WAT     H221098   3.550   4.042   6.481
 6506WAT      O21099   3.251   4.936   5.556
 6506WAT     H121100   3.213   4.985   5.483
 6506WAT     H221101   3.277   5.003   5.619
 6507WAT      O21102   4.813   5.163   6.460
 6507WAT     H121103   4.745   5.230   6.459
 6507WAT     H221104   4.867   5.183   6.383
 6508WAT      O21105   4.959   4.146   6.273
 6508WAT     H121106   4.864   4.149   6.286
 6508WAT     H221107   4.991   4.227   6.311
 6509WAT      O21108   4.012   3.776   6.102
 6509WAT     H121109   4.043   3.720   6.031
 6509WAT     H221110   3.919   3.789   6.084
 6510WAT      O21111   4.567   5.347   6.331
 6510WAT     H121112   4.568   5.307   6.244
 6510WAT     H221113   4.512   5.425   6.321
 6511WAT      O21114   4.696   5.020   5.840
 6511WAT     H121115   4.685   4.925   5.853
 6511WAT     H221116   4.696   5.056   5.929
 6512WAT      O21117   4.507   4.838   6.464
 6512WAT     H121118   4.549   4.816   6.381
 6512WAT     H221119   4.579   4.864   6.521
 6513WAT      O21120   4.251   4.582   5.776
 6513WAT     H121121   4.158   4.576   5.799
 6513WAT     H221122   4.266   4.676   5.764
 6514WAT      O21123   4.249   4.209   5.475
 6514WAT     H121124   4.155   4.226   5.484
 6514WAT     H221125   4.281   4.281   5.421
 6515WAT      O21126   4.902   4.678   6.473
 6515WAT     H121127   4.819   4.685   6.426
 6515WAT     H221128   4.961   4.736   6.426
 6516WAT      O21129   4.654   4.739   5.826
 6516WAT     H121130   4.592   4.705   5.761
 6516WAT     H221131   4.652   4.674   5.897
 6517WAT      O21132   4.598   4.356   6.568
 6517WAT     H121133   4.557   4.439   6.593
 6517WAT     H221134   4.525   4.298   6.549
 6518WAT      O21135   3.811   4.635   6.054
 6518WAT     H121136   3.771   4.564   6.004
 6518WAT     H221137   3.820   4.600   6.143
 6519WAT      O21138   3.858   5.004   6.270
 6519WAT     H121139   3.828   4.943   6.202
 6519WAT     H221140   3.953   5.007   6.259
 6520WAT      O21141   3.683   4.312   6.432
 6520WAT     H121142   3.738   4.323   6.354
 6520WAT     H221143   3.734   4.350   6.504
 6521WAT      O21144   4.667   5.361   6.637
 6521WAT     H121145   4.619   5.442   6.617
 6521WAT     H221146   4.599   5.296   6.652
 6522WAT      O21147   4.471   4.662   5.527
 6522WAT     H121148   4.515   4.579   5.512
 6522WAT     H221149   4.543   4.726   5.535
 6523WAT      O21150   4.282   5.156   5.924
 6523WAT     H121151   4.326   5.231   5.882
 6523WAT     H221152   4.276   5.181   6.016
 6524WAT      O21153   4.829   3.788   5.358
 6524WAT     H121154   4.798   3.797   5.448
 6524WAT     H221155   4.906   3.846   5.353
 6525WAT      O21156   3.481   4.524   5.804
 6525WAT     H121157   3.469   4.597   5.743
 6525WAT     H221158   3.450   4.447   5.756
 6526WAT      O21159   3.245   4.842   6.385
 6526WAT     H121160   3.253   4.855   6.290
 6526WAT     H221161   3.307   4.771   6.404
 6527WAT      O21162   3.370   5.012   6.026
 6527WAT     H121163   3.329   5.026   5.940
 6527WAT     H221164   3.459   4.983   6.005
 6528WAT      O21165   4.549   5.455   5.659
 6528WAT     H121166   4.533   5.426   5.749
 6528WAT     H221167   4.532   5.377   5.606
 6529WAT      O21168   3.797   5.433   5.837
 6529WAT     H121169   3.779   5.341   5.816
 6529WAT     H221170   3.711   5.469   5.861
 6530WAT      O21171   4.519   5.206   5.515
 6530WAT     H121172   4.450   5.206   5.449
 6530WAT     H221173   4.593   5.163   5.472
 6531WAT      O21174   4.476   5.369   5.923
 6531WAT     H121175   4.521   5.290   5.954
 6531WAT     H221176   4.510   5.440   5.977
 6532WAT      O21177   3.728   3.859   6.142
 6532WAT     H121178   3.684   3.937   6.109
 6532WAT     H221179   3.784   3.891   6.213
 6533WAT      O21180   4.040   3.821   5.630
 6533WAT     H121181   3.977   3.820   5.703
 6533WAT     H221182   4.031   3.734   5.591
 6534WAT      O21183   3.932   3.913   6.328
 6534WAT     H121184   3.961   4.004   6.320
 6534WAT     H221185   3.987   3.864   6.267
 6535WAT      O21186   3.707   4.371   5.915
 6535WAT     H121187   3.684   4.349   6.006
 6535WAT     H221188   3.629   4.414   5.881
 6536WAT      O21189   4.430   4.372   5.775
 6536WAT     H121190   4.370   4.444   5.757
 6536WAT     H221191   4.485   4.365   5.697
 6537WAT      O21192   4.291   4.235   5.978
 6537WAT     H121193   4.330   4.267   5.897
 6537WAT     H221194   4.327   4.147   5.989
 6538WAT      O21195   3.194   3.894   6.200
 6538WAT     H121196   3.165   3.951   6.272
 6538WAT     H221197   3.269   3.846   6.237
 6539WAT      O21198   3.213   4.289   5.321
 6539WAT     H121199   3.205   4.383   5.336
 6539WAT     H221200   3.178   4.274   5.233
 6540WAT      O21201   4.349   4.494   6.388
 6540WAT     H121202   4.276   4.545   6.422
 6540WAT     H221203   4.310   4.413   6.357
 6541WAT      O21204   3.993   4.162   6.228
 6541WAT     H121205   3.993   4.118   6.143
 6541WAT     H221206   4.083   4.194   6.239
 6542WAT      O21207   3.578   4.150   6.124
 6542WAT     H121208   3.544   4.198   6.200
 6542WAT     H221209   3.502   4.105   6.088
 6543WAT      O21210   3.999   4.262   5.527
 6543WAT     H121211   4.011   4.258   5.622
 6543WAT     H221212   3.961   4.348   5.512
 6544WAT      O21213   4.396   4.040   6.329
 6544WAT     H121214   4.397   4.085   6.413
 6544WAT     H221215   4.371   3.950   6.350
 6545WAT      O21216   3.900   4.493   5.467
 6545WAT     H121217   3.844   4.448   5.404
 6545WAT     H221218   3.971   4.529   5.414
 6546WAT      O21219   4.023   4.568   6.403
 6546WAT     H121220   4.060   4.521   6.477
 6546WAT     H221221   4.004   4.655   6.437
 6547WAT      O21222   3.310   4.042   6.016
 6547WAT     H121223   3.281   4.006   6.099
 6547WAT     H221224   3.303   3.969   5.954
 6548WAT      O21225   3.655   4.893   5.694
 6548WAT     H121226   3.578   4.839   5.678
 6548WAT     H221227   3.728   4.841   5.660
 6549WAT      O21228   4.731   4.792   6.273
 6549WAT     H121229   4.803   4.842   6.234
 6549WAT     H221230   4.711   4.724   6.209
 6550WAT      O21231   4.277   3.932   5.688
 6550WAT     H121232   4.196   3.882   5.680
 6550WAT     H221233   4.258   4.016   5.646
 6551WAT      O21234   4.548   4.369   5.517
 6551WAT     H121235   4.637   4.400   5.500
 6551WAT     H221236   4.545   4.282   5.478
 6552WAT      O21237   3.659   4.859   6.058
 6552WAT     H121238   3.711   4.779   6.053
 6552WAT     H221239   3.614   4.853   6.142
 6553WAT      O21240   4.148   4.986   5.585
 6553WAT     H121241   4.182   5.061   5.536
 6553WAT     H221242   4.065   5.017   5.622
 6554WAT      O21243   4.776   4.500   5.464
 6554WAT     H121244   4.767   4.543   5.379
 6554WAT     H221245   4.847   4.546   5.507
 6555WAT      O21246   4.878   5.185   5.737
 6555WAT     H121247   4.814   5.120   5.764
 6555WAT     H221248   4.840   5.226   5.659
 6556WAT      O21249   4.436   4.918   6.122
 6556WAT     H121250   4.472   4.859   6.056
 6556WAT     H221251   4.348   4.886   6.139
 6557WAT      O21252   4.045   4.994   5.862
 6557WAT     H121253   4.114   5.049   5.901
 6557WAT     H221254   3.966   5.049   5.866
 6558WAT      O21255   3.259   4.556   5.412
 6558WAT     H121256   3.346   4.584   5.440
 6558WAT     H221257   3.210   4.637   5.400
 6559WAT      O21258   3.975   4.695   5.824
 6559WAT     H121259   4.021   4.776   5.846
 6559WAT     H221260   3.940   4.663   5.907
 6560WAT      O21261   4.205   5.246   6.547
 6560WAT     H121262   4.270   5.266   6.614
 6560WAT     H221263   4.242   5.170   6.501
 6561WAT      O21264   3.565   3.729   5.871
 6561WAT     H121265   3.552   3.728   5.966
 6561WAT     H221266   3.483   3.763   5.836
 6562WAT      O21267   4.333   5.046   6.418
 6562WAT     H121268   4.397   4.976   6.430
 6562WAT     H221269   4.385   5.124   6.400
 6563WAT      O21270   4.717   5.075   5.391
 6563WAT     H121271   4.695   5.003   5.450
 6563WAT     H221272   4.678   5.050   5.307
 6564WAT      O21273   3.296   5.477   5.468
 6564WAT     H121274   3.332   5.537   5.403
 6564WAT     H221275   3.281   5.532   5.546
 6565WAT      O21276   4.676   4.866   5.557
 6565WAT     H121277   4.647   4.912   5.636
 6565WAT     H221278   4.755   4.820   5.584
 6566WAT      O21279   3.897   5.216   5.550
 6566WAT     H121280   3.896   5.289   5.488
 6566WAT     H221281   3.805   5.191   5.559
 6567WAT      O21282   3.457   4.738   5.624
 6567WAT     H121283   3.397   4.812   5.625
 6567WAT     H221284   3.505   4.747   5.542
 6568WAT      O21285   4.415   4.154   6.592
 6568WAT     H121286   4.451   4.072   6.625
 6568WAT     H221287   4.329   4.160   6.634
 6569WAT      O21288   4.751   4.050   5.673
 6569WAT     H121289   4.688   4.060   5.601
 6569WAT     H221290   4.702   4.072   5.752
 6570WAT      O21291   4.196   5.222   5.416
 6570WAT     H121292   4.206   5.202   5.323
 6570WAT     H221293   4.106   5.196   5.437
 6571WAT      O21294   3.948   4.278   5.814
 6571WAT     H121295   3.877   4.325   5.859
 6571WAT     H221296   3.977   4.212   5.878
 6572WAT      O21297   4.351   3.950   5.958
 6572WAT     H121298   4.339   3.952   5.864
 6572WAT     H221299   4.446   3.955   5.970
 6573WAT      O21300   4.060   5.474   5.886
 6573WAT     H121301   4.085   5.470   5.793
 6573WAT     H221302   3.965   5.461   5.885
 6574WAT      O21303   3.768   4.109   5.552
 6574WAT     H121304   3.853   4.152   5.545
 6574WAT     H221305   3.732   4.140   5.635
 6575WAT      O21306   4.661   4.566   6.043
 6575WAT     H121307   4.566   4.567   6.061
 6575WAT     H221308   4.692   4.487   6.088
 6576WAT      O21309   3.658   4.734   5.399
 6576WAT     H121310   3.735   4.723   5.456
 6576WAT     H221311   3.666   4.664   5.334
 6577WAT      O21312   3.528   4.477   5.468
 6577WAT     H121313   3.536   4.382   5.479
 6577WAT     H221314   3.617   4.510   5.478
 6578WAT      O21315   4.861   5.283   6.211
 6578WAT     H121316   4.873   5.365   6.258
 6578WAT     H221317   4.947   5.262   6.176
 6579WAT      O21318   3.608   5.492   6.178
 6579WAT     H121319   3.682   5.437   6.205
 6579WAT     H221320   3.646   5.579   6.164
 6580WAT      O21321   3.296   5.099   5.765
 6580WAT     H121322   3.204   5.123   5.764
 6580WAT     H221323   3.343   5.182   5.753
 6581WAT      O21324   3.919   5.409   5.360
 6581WAT     H121325   3.998   5.438   5.315
 6581WAT     H221326   3.867   5.366   5.292
 6582WAT      O21327   4.824   5.332   5.503
 6582WAT     H121328   4.796   5.291   5.421
 6582WAT     H221329   4.804   5.425   5.491
 6583WAT      O21330   3.971   4.931   5.347
 6583WAT     H121331   3.960   4.870   5.419
 6583WAT     H221332   3.954   4.879   5.268
 6584WAT      O21333   4.295   4.838   5.407
 6584WAT     H121334   4.240   4.882   5.472
 6584WAT     H221335   4.357   4.787   5.459
 6585WAT      O21336   3.862   4.733   5.597
 6585WAT     H121337   3.904   4.717   5.681
 6585WAT     H221338   3.874   4.652   5.547
 6586WAT      O21339   4.113   4.636   5.322
 6586WAT     H121340   4.165   4.564   5.285
 6586WAT     H221341   4.177   4.700   5.352
 6587WAT      O21342   4.003   3.884   6.589
 6587WAT     H121343   3.958   3.886   6.504
 6587WAT     H221344   3.940   3.844   6.648
 6588WAT      O21345   4.044   4.773   6.651
 6588WAT     H121346   4.086   4.858   6.634
 6588WAT     H221347   3.952   4.787   6.628
 6589WAT      O21348   3.751   4.341   5.291
 6589WAT     H121349   3.731   4.255   5.327
 6589WAT     H221350   3.734   4.332   5.198
 6590WAT      O21351   4.499   3.822   5.544
 6590WAT     H121352   4.527   3.738   5.580
 6590WAT     H221353   4.422   3.845   5.596
 6591WAT      O21354   3.631   4.051   5.290
 6591WAT     H121355   3.661   4.052   5.199
 6591WAT     H221356   3.705   4.016   5.340
 6592WAT      O21357   3.953   3.945   5.389
 6592WAT     H121358   3.918   3.877   5.331
 6592WAT     H221359   3.973   3.899   5.470
 6593WAT      O21360   4.169   5.444   5.551
 6593WAT     H121361   4.259   5.478   5.553
 6593WAT     H221362   4.172   5.372   5.488
 6594WAT      O21363   3.533   4.981   5.373
 6594WAT     H121364   3.577   5.036   5.439
 6594WAT     H221365   3.582   4.899   5.374
 6595WAT      O21366   3.255   5.260   6.119
 6595WAT     H121367   3.288   5.173   6.095
 6595WAT     H221368   3.298   5.281   6.202
 6596WAT      O21369   3.714   5.093   5.885
 6596WAT     H121370   3.684   5.081   5.975
 6596WAT     H221371   3.704   5.007   5.844
 6597WAT      O21372   3.304   5.347   6.392
 6597WAT     H121373   3.260   5.365   6.476
 6597WAT     H221374   3.360   5.423   6.378
 6598WAT      O21375   4.991   5.071   5.355
 6598WAT     H121376   4.908   5.078   5.402
 6598WAT     H221377   5.009   5.160   5.325
 6599WAT      O21378   4.937   4.746   5.605
 6599WAT     H121379   5.013   4.803   5.616
 6599WAT     H221380   4.938   4.689   5.682
 6600WAT      O21381   3.287   4.598   6.028
 6600WAT     H121382   3.221   4.571   5.964
 6600WAT     H221383   3.371   4.587   5.983
 6601WAT      O21384   5.037   4.831   6.090
 6601WAT     H121385   5.075   4.753   6.049
 6601WAT     H221386   5.101   4.900   6.072
 6602WAT      O21387   4.942   4.775   5.321
 6602WAT     H121388   4.969   4.866   5.308
 6602WAT     H221389   4.923   4.769   5.415
 6603WAT      O21390   4.582   4.077   5.450
 6603WAT     H121391   4.624   4.059   5.366
 6603WAT     H221392   4.551   3.992   5.482
 6604WAT      O21393   4.932   4.569   5.820
 6604WAT     H121394   4.894   4.492   5.777
 6604WAT     H221395   4.859   4.607   5.869
 6605WAT      O21396   3.391   4.637   6.482
 6605WAT     H121397   3.427   4.628   6.570
 6605WAT     H221398   3.334   4.560   6.472
 6606WAT      O21399   3.208   4.319   5.623
 6606WAT     H121400   3.118   4.345   5.605
 6606WAT     H221401   3.257   4.346   5.545
 6607WAT      O21402   4.859   4.391   6.150
 6607WAT     H121403   4.912   4.342   6.087
 6607WAT     H221404   4.918   4.405   6.225
 6608WAT      O21405   4.877   4.400   6.503
 6608WAT     H121406   4.782   4.396   6.514
 6608WAT     H221407   4.895   4.491   6.479
 6609WAT      O21408   3.463   4.225   5.414
 6609WAT     H121409   3.533   4.183   5.365
 6609WAT     H221410   3.391   4.231   5.350
 6610WAT      O21411   3.427   3.830   5.318
 6610WAT     H121412   3.500   3.884   5.349
 6610WAT     H221413   3.454   3.803   5.230
 6611WAT      O21414   4.808   4.317   5.744
 6611WAT     H121415   4.858   4.294   5.823
 6611WAT     H221416   4.788   4.233   5.703
 6612WAT      O21417   3.396   3.755   6.308
 6612WAT     H121418   3.461   3.700   6.264
 6612WAT     H221419   3.438   3.781   6.390
 6613WAT      O21420   4.951   4.181   5.998
 6613WAT     H121421   4.940   4.165   6.091
 6613WAT     H221422   5.027   4.128   5.973
 6614WAT      O21423   5.040   3.964   5.322
 6614WAT     H121424   5.132   3.951   5.301
 6614WAT     H221425   5.038   3.972   5.417
 6615WAT      O21426   5.047   4.041   5.584
 6615WAT     H121427   4.968   4.034   5.637
 6615WAT     H221428   5.068   4.134   5.583
 6616WAT      O21429   4.742   5.445   5.984
 6616WAT     H121430   4.801   5.413   5.916
 6616WAT     H221431   4.767   5.397   6.063
 6617WAT      O21432   3.902   5.244   6.559
 6617WAT     H121433   3.878   5.270   6.470
 6617WAT     H221434   3.996   5.261   6.564
 6618WAT      O21435   4.461   3.712   6.531
 6618WAT     H121436   4.373   3.745   6.511
 6618WAT     H221437   4.450   3.665   6.613
 6619WAT      O21438   4.797   5.510   6.367
 6619WAT     H121439   4.751   5.585   6.329
 6619WAT     H221440   4.734   5.438   6.361
 6620WAT      O21441   3.479   5.119   6.606
 6620WAT     H121442   3.406   5.057   6.599
 6620WAT     H221443   3.485   5.159   6.519
 6621WAT      O21444   3.840   5.341   6.284
 6621WAT     H121445   3.891   5.279   6.232
 6621WAT     H221446   3.905   5.391   6.333
 6622WAT      O21447   4.114   5.430   6.367
 6622WAT     H121448   4.142   5.404   6.279
 6622WAT     H221449   4.165   5.374   6.426
 6623WAT      O21450   4.235   3.804   6.425
 6623WAT     H121451   4.157   3.851   6.453
 6623WAT     H221452   4.206   3.713   6.414
 6624WAT      O21453   4.691   3.874   6.229
 6624WAT     H121454   4.735   3.868   6.144
 6624WAT     H221455   4.664   3.965   6.236
 6625WAT      O21456   4.877   3.837   6.030
 6625WAT     H121457   4.871   3.743   6.016
 6625WAT     H221458   4.955   3.848   6.085
 6626WAT      O21459   3.307   5.451   5.927
 6626WAT     H121460   3.291   5.388   5.996
 6626WAT     H221461   3.221   5.471   5.892
 6627WAT      O21462   3.370   3.834   5.677
 6627WAT     H121463   3.446   3.845   5.620
 6627WAT     H221464   3.323   3.918   5.672
 6628WAT      O21465   4.024   4.045   5.976
 6628WAT     H121466   3.943   4.008   5.942
 6628WAT     H221467   4.074   3.970   6.006
 6629WAT      O21468   4.474   3.712   6.100
 6629WAT     H121469   4.534   3.769   6.147
 6629WAT     H221470   4.400   3.768   6.077
 6630WAT      O21471   4.788   3.752   5.627
 6630WAT     H121472   4.808   3.842   5.654
 6630WAT     H221473   4.710   3.729   5.676
 6631WAT      O21474   3.468   5.320   5.671
 6631WAT     H121475   3.416   5.358   5.601
 6631WAT     H221476   3.461   5.383   5.743
 6632WAT      O21477   3.607   3.887   5.531
 6632WAT     H121478   3.660   3.808   5.518
 6632WAT     H221479   3.670   3.955   5.554
 6633WAT      O21480   3.826   3.860   5.836
 6633WAT     H121481   3.763   3.790   5.853
 6633WAT     H221482   3.772   3.936   5.815
 6634WAT      O21483   4.944   5.476   5.803
 6634WAT     H121484   4.961   5.407   5.739
 6634WAT     H221485   4.874   5.529   5.764
 6635WAT      O21486   3.728   5.515   5.559
 6635WAT     H121487   3.801   5.487   5.504
 6635WAT     H221488   3.754   5.491   5.648
 6636WAT      O21489   3.644   5.127   5.559
 6636WAT     H121490   3.581   5.174   5.614
 6636WAT     H221491   3.656   5.042   5.602
 6637WAT      O21492   4.390   4.532   4.174
 6637WAT     H121493   4.382   4.440   4.147
 6637WAT     H221494   4.348   4.581   4.103
 6638WAT      O21495   4.203   4.710   4.362
 6638WAT     H121496   4.125   4.662   4.391
 6638WAT     H221497   4.268   4.642   4.345
 6639WAT      O21498   4.605   5.150   4.240
 6639WAT     H121499   4.559   5.073   4.273
 6639WAT     H221500   4.686   5.153   4.291
 6640WAT      O21501   4.228   5.379   4.202
 6640WAT     H121502   4.166   5.424   4.145
 6640WAT     H221503   4.313   5.394   4.162
 6641WAT      O21504   4.147   4.977   4.363
 6641WAT     H121505   4.140   4.883   4.347
 6641WAT     H221506   4.223   4.986   4.420
 6642WAT      O21507   4.250   4.258   4.386
 6642WAT     H121508   4.288   4.171   4.374
 6642WAT     H221509   4.240   4.291   4.296
 6643WAT      O21510   4.628   4.007   4.079
 6643WAT     H121511   4.710   3.958   4.083
 6643WAT     H221512   4.632   4.066   4.154
 6644WAT      O21513   3.675   3.856   4.792
 6644WAT     H121514   3.676   3.908   4.711
 6644WAT     H221515   3.592   3.808   4.789
 6645WAT      O21516   4.314   4.867   3.941
 6645WAT     H121517   4.252   4.914   3.885
 6645WAT     H221518   4.365   4.936   3.983
 6646WAT      O21519   3.644   4.027   4.592
 6646WAT     H121520   3.678   4.111   4.563
 6646WAT     H221521   3.550   4.042   4.604
 6647WAT      O21522   3.722   5.017   4.791
 6647WAT     H121523   3.783   5.084   4.763
 6647WAT     H221524   3.636   5.058   4.782
 6648WAT      O21525   4.813   5.163   4.582
 6648WAT     H121526   4.745   5.230   4.582
 6648WAT     H221527   4.867   5.183   4.506
 6649WAT      O21528   4.012   3.776   4.225
 6649WAT     H121529   4.043   3.720   4.153
 6649WAT     H221530   3.919   3.789   4.206
 6650WAT      O21531   4.567   5.347   4.454
 6650WAT     H121532   4.568   5.307   4.367
 6650WAT     H221533   4.512   5.425   4.443
 6651WAT      O21534   4.507   4.838   4.587
 6651WAT     H121535   4.549   4.816   4.503
 6651WAT     H221536   4.579   4.864   4.644
 6652WAT      O21537   4.251   4.582   3.898
 6652WAT     H121538   4.158   4.576   3.921
 6652WAT     H221539   4.266   4.676   3.887
 6653WAT      O21540   4.654   4.739   3.949
 6653WAT     H121541   4.592   4.705   3.884
 6653WAT     H221542   4.652   4.674   4.019
 6654WAT      O21543   4.667   5.361   4.759
 6654WAT     H121544   4.619   5.442   4.740
 6654WAT     H221545   4.599   5.296   4.774
 6655WAT      O21546   3.767   4.977   5.058
 6655WAT     H121547   3.678   5.000   5.083
 6655WAT     H221548   3.770   4.990   4.963
 6656WAT      O21549   4.282   5.156   4.046
 6656WAT     H121550   4.326   5.231   4.005
 6656WAT     H221551   4.276   5.181   4.139
 6657WAT      O21552   3.830   5.259   5.136
 6657WAT     H121553   3.827   5.299   5.050
 6657WAT     H221554   3.813   5.166   5.120
 6658WAT      O21555   5.025   5.337   5.266
 6658WAT     H121556   5.073   5.385   5.334
 6658WAT     H221557   5.087   5.330   5.194
 6659WAT      O21558   4.965   5.056   4.982
 6659WAT     H121559   4.978   5.032   4.890
 6659WAT     H221560   4.969   4.973   5.029
 6660WAT      O21561   4.351   5.426   4.839
 6660WAT     H121562   4.403   5.418   4.919
 6660WAT     H221563   4.267   5.461   4.868
 6661WAT      O21564   4.549   5.455   3.782
 6661WAT     H121565   4.533   5.426   3.872
 6661WAT     H221566   4.532   5.377   3.728
 6662WAT      O21567   4.476   5.369   4.045
 6662WAT     H121568   4.521   5.290   4.077
 6662WAT     H221569   4.510   5.440   4.100
 6663WAT      O21570   4.157   4.145   4.825
 6663WAT     H121571   4.110   4.166   4.906
 6663WAT     H221572   4.116   4.064   4.795
 6664WAT      O21573   4.366   4.418   5.148
 6664WAT     H121574   4.399   4.334   5.114
 6664WAT     H221575   4.445   4.470   5.163
 6665WAT      O21576   3.932   3.913   4.451
 6665WAT     H121577   3.961   4.004   4.443
 6665WAT     H221578   3.987   3.864   4.389
 6666WAT      O21579   4.430   4.372   3.898
 6666WAT     H121580   4.370   4.444   3.879
 6666WAT     H221581   4.485   4.365   3.819
 6667WAT      O21582   3.951   4.461   5.104
 6667WAT     H121583   3.942   4.367   5.089
 6667WAT     H221584   4.035   4.483   5.065
 6668WAT      O21585   4.291   4.235   4.101
 6668WAT     H121586   4.330   4.267   4.019
 6668WAT     H221587   4.327   4.147   4.112
 6669WAT      O21588   4.122   4.110   5.227
 6669WAT     H121589   4.053   4.091   5.290
 6669WAT     H221590   4.196   4.139   5.280
 6670WAT      O21591   4.349   4.494   4.510
 6670WAT     H121592   4.276   4.545   4.545
 6670WAT     H221593   4.310   4.413   4.480
 6671WAT      O21594   3.993   4.162   4.351
 6671WAT     H121595   3.993   4.118   4.266
 6671WAT     H221596   4.083   4.194   4.361
 6672WAT      O21597   4.396   4.040   4.451
 6672WAT     H121598   4.397   4.085   4.536
 6672WAT     H221599   4.371   3.950   4.473
 6673WAT      O21600   4.738   3.781   5.035
 6673WAT     H121601   4.771   3.708   5.088
 6673WAT     H221602   4.742   3.749   4.945
 6674WAT      O21603   4.023   4.568   4.525
 6674WAT     H121604   4.060   4.521   4.600
 6674WAT     H221605   4.004   4.655   4.559
 6675WAT      O21606   4.731   4.792   4.396
 6675WAT     H121607   4.803   4.842   4.357
 6675WAT     H221608   4.711   4.724   4.332
 6676WAT      O21609   4.269   4.799   4.985
 6676WAT     H121610   4.262   4.707   4.959
 6676WAT     H221611   4.206   4.809   5.056
 6677WAT      O21612   4.148   4.986   3.708
 6677WAT     H121613   4.182   5.061   3.658
 6677WAT     H221614   4.065   5.017   3.744
 6678WAT      O21615   3.728   4.602   5.160
 6678WAT     H121616   3.698   4.616   5.071
 6678WAT     H221617   3.805   4.546   5.151
 6679WAT      O21618   4.262   5.082   4.960
 6679WAT     H121619   4.264   4.988   4.938
 6679WAT     H221620   4.191   5.090   5.024
 6680WAT      O21621   4.883   4.746   4.894
 6680WAT     H121622   4.811   4.805   4.875
 6680WAT     H221623   4.936   4.745   4.815
 6681WAT      O21624   4.436   4.918   4.244
 6681WAT     H121625   4.472   4.859   4.178
 6681WAT     H221626   4.348   4.886   4.261
 6682WAT      O21627   4.205   5.246   4.669
 6682WAT     H121628   4.270   5.266   4.737
 6682WAT     H221629   4.242   5.170   4.624
 6683WAT      O21630   4.333   5.046   4.541
 6683WAT     H121631   4.397   4.976   4.552
 6683WAT     H221632   4.385   5.124   4.523
 6684WAT      O21633   4.510   5.126   4.861
 6684WAT     H121634   4.544   5.185   4.929
 6684WAT     H221635   4.418   5.113   4.884
 6685WAT      O21636   3.294   5.304   5.038
 6685WAT     H121637   3.305   5.210   5.024
 6685WAT     H221638   3.229   5.330   4.973
 6686WAT      O21639   4.093   5.131   5.178
 6686WAT     H121640   4.061   5.059   5.233
 6686WAT     H221641   4.026   5.199   5.186
 6687WAT      O21642   4.196   5.222   3.539
 6687WAT     H121643   4.206   5.202   3.446
 6687WAT     H221644   4.106   5.196   3.559
 6688WAT      O21645   4.111   4.420   4.737
 6688WAT     H121646   4.160   4.467   4.803
 6688WAT     H221647   4.125   4.327   4.758
 6689WAT      O21648   4.351   3.950   4.081
 6689WAT     H121649   4.339   3.952   3.986
 6689WAT     H221650   4.446   3.955   4.093
 6690WAT      O21651   4.861   5.283   4.333
 6690WAT     H121652   4.873   5.365   4.381
 6690WAT     H221653   4.947   5.262   4.299
 6691WAT      O21654   3.509   5.411   5.219
 6691WAT     H121655   3.589   5.443   5.261
 6691WAT     H221656   3.457   5.374   5.292
 6692WAT      O21657   4.392   5.021   5.214
 6692WAT     H121658   4.332   5.024   5.140
 6692WAT     H221659   4.362   4.948   5.268
 6693WAT      O21660   4.535   5.394   5.075
 6693WAT     H121661   4.630   5.386   5.070
 6693WAT     H221662   4.520   5.461   5.143
 6694WAT      O21663   3.281   4.659   5.114
 6694WAT     H121664   3.331   4.601   5.171
 6694WAT     H221665   3.207   4.688   5.168
 6695WAT      O21666   3.986   4.800   5.067
 6695WAT     H121667   3.909   4.857   5.059
 6695WAT     H221668   4.004   4.771   4.978
 6696WAT      O21669   4.295   4.838   3.530
 6696WAT     H121670   4.240   4.882   3.594
 6696WAT     H221671   4.357   4.787   3.582
 6697WAT      O21672   4.700   4.973   5.123
 6697WAT     H121673   4.774   5.007   5.073
 6697WAT     H221674   4.624   4.990   5.068
 6698WAT      O21675   3.484   4.474   5.203
 6698WAT     H121676   3.488   4.444   5.294
 6698WAT     H221677   3.569   4.514   5.187
 6699WAT      O21678   4.568   4.778   4.976
 6699WAT     H121679   4.609   4.794   5.061
 6699WAT     H221680   4.474   4.791   4.993
 6700WAT      O21681   4.615   4.512   5.177
 6700WAT     H121682   4.673   4.437   5.168
 6700WAT     H221683   4.632   4.565   5.099
 6701WAT      O21684   3.727   4.028   5.008
 6701WAT     H121685   3.717   3.966   4.936
 6701WAT     H221686   3.669   4.101   4.985
 6702WAT      O21687   4.003   3.884   4.711
 6702WAT     H121688   3.958   3.886   4.627
 6702WAT     H221689   3.940   3.844   4.771
 6703WAT      O21690   4.044   4.773   4.773
 6703WAT     H121691   4.086   4.858   4.756
 6703WAT     H221692   3.952   4.787   4.750
 6704WAT      O21693   4.277   4.547   4.912
 6704WAT     H121694   4.289   4.487   4.986
 6704WAT     H221695   4.363   4.550   4.870
 6705WAT      O21696   4.511   4.602   4.769
 6705WAT     H121697   4.459   4.654   4.709
 6705WAT     H221698   4.546   4.665   4.832
 6706WAT      O21699   3.829   5.404   4.885
 6706WAT     H121700   3.775   5.476   4.853
 6706WAT     H221701   3.854   5.356   4.806
 6707WAT      O21702   3.954   4.201   5.038
 6707WAT     H121703   4.013   4.170   5.106
 6707WAT     H221704   3.872   4.154   5.053
 6708WAT      O21705   4.436   4.162   5.061
 6708WAT     H121706   4.367   4.096   5.054
 6708WAT     H221707   4.508   4.118   5.105
 6709WAT      O21708   4.499   3.822   3.667
 6709WAT     H121709   4.527   3.738   3.702
 6709WAT     H221710   4.422   3.845   3.718
 6710WAT      O21711   4.114   5.527   4.911
 6710WAT     H121712   4.107   5.618   4.942
 6710WAT     H221713   4.024   5.496   4.908
 6711WAT      O21714   4.169   5.444   3.673
 6711WAT     H121715   4.259   5.478   3.675
 6711WAT     H221716   4.172   5.372   3.610
 6712WAT      O21717   4.867   5.297   4.944
 6712WAT     H121718   4.807   5.303   4.869
 6712WAT     H221719   4.880   5.203   4.957
 6713WAT      O21720   4.736   4.970   4.754
 6713WAT     H121721   4.654   5.013   4.780
 6713WAT     H221722   4.776   5.031   4.692
 6714WAT      O21723   4.715   4.006   5.184
 6714WAT     H121724   4.802   4.007   5.222
 6714WAT     H221725   4.716   3.932   5.123
 6715WAT      O21726   4.742   5.445   4.106
 6715WAT     H121727   4.801   5.413   4.039
 6715WAT     H221728   4.767   5.397   4.185
 6716WAT      O21729   3.371   3.771   4.705
 6716WAT     H121730   3.337   3.816   4.781
 6716WAT     H221731   3.338   3.681   4.713
 6717WAT      O21732   3.532   5.088   5.121
 6717WAT     H121733   3.528   5.051   5.209
 6717WAT     H221734   3.545   5.182   5.135
 6718WAT      O21735   3.902   5.244   4.681
 6718WAT     H121736   3.878   5.270   4.593
 6718WAT     H221737   3.996   5.261   4.687
 6719WAT      O21738   4.123   3.890   5.057
 6719WAT     H121739   4.117   3.949   5.132
 6719WAT     H221740   4.217   3.879   5.042
 6720WAT      O21741   4.386   3.856   5.021
 6720WAT     H121742   4.448   3.887   4.955
 6720WAT     H221743   4.441   3.807   5.083
 6721WAT      O21744   5.028   5.445   4.761
 6721WAT     H121745   4.979   5.485   4.690
 6721WAT     H221746   4.967   5.383   4.801
 6722WAT      O21747   3.439   3.723   5.032
 6722WAT     H121748   3.494   3.705   4.956
 6722WAT     H221749   3.445   3.644   5.086
 6723WAT      O21750   3.516   5.383   4.833
 6723WAT     H121751   3.457   5.369   4.907
 6723WAT     H221752   3.515   5.299   4.787
 6724WAT      O21753   4.461   3.712   4.653
 6724WAT     H121754   4.373   3.745   4.633
 6724WAT     H221755   4.450   3.665   4.736
 6725WAT      O21756   4.797   5.510   4.489
 6725WAT     H121757   4.751   5.585   4.452
 6725WAT     H221758   4.734   5.438   4.483
 6726WAT      O21759   4.235   3.804   4.547
 6726WAT     H121760   4.157   3.851   4.575
 6726WAT     H221761   4.206   3.713   4.536
 6727WAT      O21762   4.474   3.712   4.222
 6727WAT     H121763   4.534   3.769   4.270
 6727WAT     H221764   4.400   3.768   4.200
 6728WAT      O21765   4.788   3.752   3.750
 6728WAT     H121766   4.808   3.842   3.776
 6728WAT     H221767   4.710   3.729   3.799
 6729WAT      O21768   4.120   5.522   5.226
 6729WAT     H121769   4.213   5.498   5.230
 6729WAT     H221770   4.119   5.605   5.178
 6730WAT      O21771   4.944   5.476   3.926
 6730WAT     H121772   4.961   5.407   3.861
 6730WAT     H221773   4.874   5.529   3.887
 6731WAT      O21774   3.839   3.788   5.202
 6731WAT     H121775   3.811   3.839   5.126
 6731WAT     H221776   3.877   3.708   5.166
 6732WAT      O21777   4.499   3.730   5.260
 6732WAT     H121778   4.488   3.762   5.350
 6732WAT     H221779   4.581   3.770   5.231
 6733WAT      O21780   4.777   5.445   5.208
 6733WAT     H121781   4.856   5.395   5.188
 6733WAT     H221782   4.806   5.512   5.269
 6734WAT      O21783   4.390   4.532   2.297
 6734WAT     H121784   4.382   4.440   2.270
 6734WAT     H221785   4.348   4.581   2.226
 6735WAT      O21786   4.203   4.710   2.485
 6735WAT     H121787   4.125   4.662   2.514
 6735WAT     H221788   4.268   4.642   2.467
 6736WAT      O21789   3.604   4.741   2.572
 6736WAT     H121790   3.521   4.715   2.612
 6736WAT     H221791   3.665   4.748   2.646
 6737WAT      O21792   4.605   5.150   2.363
 6737WAT     H121793   4.559   5.073   2.396
 6737WAT     H221794   4.686   5.153   2.413
 6738WAT      O21795   3.445   4.237   1.951
 6738WAT     H121796   3.357   4.271   1.941
 6738WAT     H221797   3.474   4.217   1.862
 6739WAT      O21798   3.242   4.497   2.539
 6739WAT     H121799   3.299   4.420   2.539
 6739WAT     H221800   3.242   4.527   2.448
 6740WAT      O21801   4.228   5.379   2.325
 6740WAT     H121802   4.166   5.424   2.268
 6740WAT     H221803   4.313   5.394   2.285
 6741WAT      O21804   4.147   4.977   2.485
 6741WAT     H121805   4.140   4.883   2.469
 6741WAT     H221806   4.223   4.986   2.543
 6742WAT      O21807   3.366   4.038   2.718
 6742WAT     H121808   3.348   3.948   2.746
 6742WAT     H221809   3.326   4.092   2.785
 6743WAT      O21810   4.250   4.258   2.508
 6743WAT     H121811   4.288   4.171   2.497
 6743WAT     H221812   4.240   4.291   2.419
 6744WAT      O21813   3.663   4.095   2.054
 6744WAT     H121814   3.674   4.185   2.085
 6744WAT     H221815   3.572   4.090   2.025
 6745WAT      O21816   4.628   4.007   2.201
 6745WAT     H121817   4.710   3.958   2.206
 6745WAT     H221818   4.632   4.066   2.277
 6746WAT      O21819   3.428   4.287   2.579
 6746WAT     H121820   3.496   4.314   2.641
 6746WAT     H221821   3.396   4.203   2.612
 6747WAT      O21822   3.847   4.392   2.488
 6747WAT     H121823   3.898   4.442   2.552
 6747WAT     H221824   3.900   4.314   2.470
 6748WAT      O21825   5.057   4.209   2.858
 6748WAT     H121826   4.987   4.248   2.806
 6748WAT     H221827   5.084   4.278   2.918
 6749WAT      O21828   3.675   3.856   2.914
 6749WAT     H121829   3.676   3.908   2.834
 6749WAT     H221830   3.592   3.808   2.912
 6750WAT      O21831   4.314   4.867   2.064
 6750WAT     H121832   4.252   4.914   2.008
 6750WAT     H221833   4.365   4.936   2.106
 6751WAT      O21834   3.800   4.820   2.732
 6751WAT     H121835   3.767   4.883   2.796
 6751WAT     H221836   3.818   4.872   2.654
 6752WAT      O21837   4.652   4.201   2.479
 6752WAT     H121838   4.581   4.230   2.537
 6752WAT     H221839   4.688   4.282   2.443
 6753WAT      O21840   3.644   4.027   2.715
 6753WAT     H121841   3.678   4.111   2.685
 6753WAT     H221842   3.550   4.042   2.727
 6754WAT      O21843   3.251   4.936   1.801
 6754WAT     H121844   3.213   4.985   1.728
 6754WAT     H221845   3.277   5.003   1.865
 6755WAT      O21846   4.813   5.163   2.705
 6755WAT     H121847   4.745   5.230   2.704
 6755WAT     H221848   4.867   5.183   2.628
 6756WAT      O21849   4.959   4.146   2.518
 6756WAT     H121850   4.864   4.149   2.531
 6756WAT     H221851   4.991   4.227   2.556
 6757WAT      O21852   4.012   3.776   2.347
 6757WAT     H121853   4.043   3.720   2.276
 6757WAT     H221854   3.919   3.789   2.329
 6758WAT      O21855   4.567   5.347   2.576
 6758WAT     H121856   4.568   5.307   2.490
 6758WAT     H221857   4.512   5.425   2.566
 6759WAT      O21858   4.696   5.020   2.085
 6759WAT     H121859   4.685   4.925   2.098
 6759WAT     H221860   4.696   5.056   2.174
 6760WAT      O21861   4.507   4.838   2.709
 6760WAT     H121862   4.549   4.816   2.626
 6760WAT     H221863   4.579   4.864   2.766
 6761WAT      O21864   4.251   4.582   2.021
 6761WAT     H121865   4.158   4.576   2.044
 6761WAT     H221866   4.266   4.676   2.009
 6762WAT      O21867   4.249   4.209   1.721
 6762WAT     H121868   4.155   4.226   1.729
 6762WAT     H221869   4.281   4.281   1.666
 6763WAT      O21870   4.902   4.678   2.718
 6763WAT     H121871   4.819   4.685   2.671
 6763WAT     H221872   4.961   4.736   2.672
 6764WAT      O21873   4.654   4.739   2.071
 6764WAT     H121874   4.592   4.705   2.007
 6764WAT     H221875   4.652   4.674   2.142
 6765WAT      O21876   4.598   4.356   2.813
 6765WAT     H121877   4.557   4.439   2.838
 6765WAT     H221878   4.525   4.298   2.794
 6766WAT      O21879   3.811   4.635   2.299
 6766WAT     H121880   3.771   4.564   2.250
 6766WAT     H221881   3.820   4.600   2.388
 6767WAT      O21882   3.858   5.004   2.515
 6767WAT     H121883   3.828   4.943   2.448
 6767WAT     H221884   3.953   5.007   2.504
 6768WAT      O21885   3.683   4.312   2.677
 6768WAT     H121886   3.738   4.323   2.600
 6768WAT     H221887   3.734   4.350   2.749
 6769WAT      O21888   4.667   5.361   2.882
 6769WAT     H121889   4.619   5.442   2.862
 6769WAT     H221890   4.599   5.296   2.897
 6770WAT      O21891   4.471   4.662   1.772
 6770WAT     H121892   4.515   4.579   1.757
 6770WAT     H221893   4.543   4.726   1.781
 6771WAT      O21894   4.282   5.156   2.169
 6771WAT     H121895   4.326   5.231   2.127
 6771WAT     H221896   4.276   5.181   2.261
 6772WAT      O21897   4.829   3.788   1.603
 6772WAT     H121898   4.798   3.797   1.693
 6772WAT     H221899   4.906   3.846   1.598
 6773WAT      O21900   3.481   4.524   2.049
 6773WAT     H121901   3.469   4.597   1.988
 6773WAT     H221902   3.450   4.447   2.001
 6774WAT      O21903   3.245   4.842   2.630
 6774WAT     H121904   3.253   4.855   2.535
 6774WAT     H221905   3.307   4.771   2.649
 6775WAT      O21906   4.351   5.426   2.962
 6775WAT     H121907   4.403   5.418   3.042
 6775WAT     H221908   4.267   5.461   2.991
 6776WAT      O21909   4.549   5.455   1.904
 6776WAT     H121910   4.533   5.426   1.994
 6776WAT     H221911   4.532   5.377   1.851
 6777WAT      O21912   3.797   5.433   2.082
 6777WAT     H121913   3.779   5.341   2.061
 6777WAT     H221914   3.711   5.469   2.106
 6778WAT      O21915   4.519   5.206   1.760
 6778WAT     H121916   4.450   5.206   1.694
 6778WAT     H221917   4.593   5.163   1.717
 6779WAT      O21918   4.476   5.369   2.168
 6779WAT     H121919   4.521   5.290   2.199
 6779WAT     H221920   4.510   5.440   2.222
 6780WAT      O21921   3.251   4.946   2.884
 6780WAT     H121922   3.267   4.899   2.802
 6780WAT     H221923   3.297   4.895   2.950
 6781WAT      O21924   3.728   3.859   2.387
 6781WAT     H121925   3.684   3.937   2.354
 6781WAT     H221926   3.784   3.891   2.458
 6782WAT      O21927   4.040   3.821   1.875
 6782WAT     H121928   3.977   3.820   1.948
 6782WAT     H221929   4.031   3.734   1.836
 6783WAT      O21930   3.932   3.913   2.573
 6783WAT     H121931   3.961   4.004   2.565
 6783WAT     H221932   3.987   3.864   2.512
 6784WAT      O21933   3.707   4.371   2.160
 6784WAT     H121934   3.684   4.349   2.251
 6784WAT     H221935   3.629   4.414   2.126
 6785WAT      O21936   4.430   4.372   2.020
 6785WAT     H121937   4.370   4.444   2.002
 6785WAT     H221938   4.485   4.365   1.942
 6786WAT      O21939   4.291   4.235   2.223
 6786WAT     H121940   4.330   4.267   2.142
 6786WAT     H221941   4.327   4.147   2.235
 6787WAT      O21942   3.464   4.102   3.042
 6787WAT     H121943   3.425   4.187   3.063
 6787WAT     H221944   3.395   4.038   3.061
 6788WAT      O21945   3.194   3.894   2.445
 6788WAT     H121946   3.165   3.951   2.517
 6788WAT     H221947   3.269   3.846   2.482
 6789WAT      O21948   3.213   4.289   1.566
 6789WAT     H121949   3.205   4.383   1.581
 6789WAT     H221950   3.178   4.274   1.479
 6790WAT      O21951   4.349   4.494   2.633
 6790WAT     H121952   4.276   4.545   2.668
 6790WAT     H221953   4.310   4.413   2.603
 6791WAT      O21954   3.993   4.162   2.473
 6791WAT     H121955   3.993   4.118   2.388
 6791WAT     H221956   4.083   4.194   2.484
 6792WAT      O21957   3.578   4.150   2.369
 6792WAT     H121958   3.544   4.198   2.445
 6792WAT     H221959   3.502   4.105   2.333
 6793WAT      O21960   3.999   4.262   1.772
 6793WAT     H121961   4.011   4.258   1.867
 6793WAT     H221962   3.961   4.348   1.757
 6794WAT      O21963   4.396   4.040   2.574
 6794WAT     H121964   4.397   4.085   2.658
 6794WAT     H221965   4.371   3.950   2.595
 6795WAT      O21966   3.900   4.493   1.712
 6795WAT     H121967   3.844   4.448   1.649
 6795WAT     H221968   3.971   4.529   1.659
 6796WAT      O21969   4.023   4.568   2.648
 6796WAT     H121970   4.060   4.521   2.722
 6796WAT     H221971   4.004   4.655   2.682
 6797WAT      O21972   3.310   4.042   2.261
 6797WAT     H121973   3.281   4.006   2.345
 6797WAT     H221974   3.303   3.969   2.199
 6798WAT      O21975   3.655   4.893   1.939
 6798WAT     H121976   3.578   4.839   1.923
 6798WAT     H221977   3.728   4.841   1.906
 6799WAT      O21978   4.731   4.792   2.519
 6799WAT     H121979   4.803   4.842   2.480
 6799WAT     H221980   4.711   4.724   2.454
 6800WAT      O21981   4.277   3.932   1.933
 6800WAT     H121982   4.196   3.882   1.925
 6800WAT     H221983   4.258   4.016   1.891
 6801WAT      O21984   3.659   4.859   2.303
 6801WAT     H121985   3.711   4.779   2.298
 6801WAT     H221986   3.614   4.853   2.387
 6802WAT      O21987   4.148   4.986   1.830
 6802WAT     H121988   4.182   5.061   1.781
 6802WAT     H221989   4.065   5.017   1.867
 6803WAT      O21990   4.262   5.082   3.082
 6803WAT     H121991   4.264   4.988   3.061
 6803WAT     H221992   4.191   5.090   3.146
 6804WAT      O21993   4.878   5.185   1.982
 6804WAT     H121994   4.814   5.120   2.010
 6804WAT     H221995   4.840   5.226   1.905
 6805WAT      O21996   4.436   4.918   2.367
 6805WAT     H121997   4.472   4.859   2.301
 6805WAT     H221998   4.348   4.886   2.384
 6806WAT      O21999   4.045   4.994   2.108
 6806WAT     H122000   4.114   5.049   2.146
 6806WAT     H222001   3.966   5.049   2.111
 6807WAT      O22002   3.259   4.556   1.657
 6807WAT     H122003   3.346   4.584   1.685
 6807WAT     H222004   3.210   4.637   1.645
 6808WAT      O22005   3.975   4.695   2.069
 6808WAT     H122006   4.021   4.776   2.091
 6808WAT     H222007   3.940   4.663   2.152
 6809WAT      O22008   4.205   5.246   2.792
 6809WAT     H122009   4.270   5.266   2.859
 6809WAT     H222010   4.242   5.170   2.746
 6810WAT      O22011   3.565   3.729   2.116
 6810WAT     H122012   3.552   3.728   2.211
 6810WAT     H222013   3.483   3.763   2.081
 6811WAT      O22014   4.333   5.046   2.664
 6811WAT     H122015   4.397   4.976   2.675
 6811WAT     H222016   4.385   5.124   2.645
 6812WAT      O22017   4.717   5.075   1.636
 6812WAT     H122018   4.695   5.003   1.695
 6812WAT     H222019   4.678   5.050   1.552
 6813WAT      O22020   4.510   5.126   2.984
 6813WAT     H122021   4.544   5.185   3.052
 6813WAT     H222022   4.418   5.113   3.007
 6814WAT      O22023   3.296   5.477   1.713
 6814WAT     H122024   3.332   5.537   1.648
 6814WAT     H222025   3.281   5.532   1.791
 6815WAT      O22026   3.265   3.905   3.062
 6815WAT     H122027   3.194   3.925   3.123
 6815WAT     H222028   3.307   3.827   3.099
 6816WAT      O22029   4.676   4.866   1.802
 6816WAT     H122030   4.647   4.912   1.881
 6816WAT     H222031   4.755   4.820   1.829
 6817WAT      O22032   4.093   5.131   3.301
 6817WAT     H122033   4.061   5.059   3.355
 6817WAT     H222034   4.026   5.199   3.308
 6818WAT      O22035   3.897   5.216   1.795
 6818WAT     H122036   3.896   5.289   1.734
 6818WAT     H222037   3.805   5.191   1.804
 6819WAT      O22038   3.457   4.738   1.870
 6819WAT     H122039   3.397   4.812   1.871
 6819WAT     H222040   3.505   4.747   1.787
 6820WAT      O22041   4.196   5.222   1.661
 6820WAT     H122042   4.206   5.202   1.568
 6820WAT     H222043   4.106   5.196   1.682
 6821WAT      O22044   3.948   4.278   2.060
 6821WAT     H122045   3.877   4.325   2.104
 6821WAT     H222046   3.977   4.212   2.123
 6822WAT      O22047   4.351   3.950   2.204
 6822WAT     H122048   4.339   3.952   2.109
 6822WAT     H222049   4.446   3.955   2.216
 6823WAT      O22050   4.060   5.474   2.131
 6823WAT     H122051   4.085   5.470   2.039
 6823WAT     H222052   3.965   5.461   2.130
 6824WAT      O22053   3.768   4.109   1.797
 6824WAT     H122054   3.853   4.152   1.790
 6824WAT     H222055   3.732   4.140   1.880
 6825WAT      O22056   4.831   4.041   2.944
 6825WAT     H122057   4.781   4.115   2.978
 6825WAT     H222058   4.913   4.080   2.912
 6826WAT      O22059   4.661   4.566   2.288
 6826WAT     H122060   4.566   4.567   2.306
 6826WAT     H222061   4.692   4.487   2.333
 6827WAT      O22062   3.658   4.734   1.644
 6827WAT     H122063   3.735   4.723   1.701
 6827WAT     H222064   3.666   4.664   1.579
 6828WAT      O22065   3.528   4.477   1.713
 6828WAT     H122066   3.536   4.382   1.724
 6828WAT     H222067   3.617   4.510   1.723
 6829WAT      O22068   4.861   5.283   2.456
 6829WAT     H122069   4.873   5.365   2.503
 6829WAT     H222070   4.947   5.262   2.421
 6830WAT      O22071   3.919   5.409   1.605
 6830WAT     H122072   3.998   5.438   1.560
 6830WAT     H222073   3.867   5.366   1.538
 6831WAT      O22074   4.824   5.332   1.748
 6831WAT     H122075   4.796   5.291   1.666
 6831WAT     H222076   4.804   5.425   1.736
 6832WAT      O22077   3.971   4.931   1.592
 6832WAT     H122078   3.960   4.870   1.664
 6832WAT     H222079   3.954   4.879   1.513
 6833WAT      O22080   4.295   4.838   1.652
 6833WAT     H122081   4.240   4.882   1.717
 6833WAT     H222082   4.357   4.787   1.705
 6834WAT      O22083   3.862   4.733   1.842
 6834WAT     H122084   3.904   4.717   1.926
 6834WAT     H222085   3.874   4.652   1.792
 6835WAT      O22086   4.113   4.636   1.567
 6835WAT     H122087   4.165   4.564   1.530
 6835WAT     H222088   4.177   4.700   1.597
 6836WAT      O22089   3.727   4.028   3.131
 6836WAT     H122090   3.717   3.966   3.058
 6836WAT     H222091   3.669   4.101   3.108
 6837WAT      O22092   4.511   4.602   2.892
 6837WAT     H122093   4.459   4.654   2.832
 6837WAT     H222094   4.546   4.665   2.955
 6838WAT      O22095   3.751   4.341   1.536
 6838WAT     H122096   3.731   4.255   1.573
 6838WAT     H222097   3.734   4.332   1.443
 6839WAT      O22098   4.499   3.822   1.789
 6839WAT     H122099   4.527   3.738   1.825
 6839WAT     H222100   4.422   3.845   1.841
 6840WAT      O22101   3.631   4.051   1.535
 6840WAT     H122102   3.661   4.052   1.444
 6840WAT     H222103   3.705   4.016   1.585
 6841WAT      O22104   4.114   5.527   3.033
 6841WAT     H122105   4.107   5.618   3.064
 6841WAT     H222106   4.024   5.496   3.031
 6842WAT      O22107   3.953   3.945   1.634
 6842WAT     H122108   3.918   3.877   1.576
 6842WAT     H222109   3.973   3.899   1.715
 6843WAT      O22110   4.169   5.444   1.796
 6843WAT     H122111   4.259   5.478   1.798
 6843WAT     H222112   4.172   5.372   1.733
 6844WAT      O22113   3.533   4.981   1.619
 6844WAT     H122114   3.577   5.036   1.684
 6844WAT     H222115   3.582   4.899   1.619
 6845WAT      O22116   3.714   5.093   2.130
 6845WAT     H122117   3.684   5.081   2.220
 6845WAT     H222118   3.704   5.007   2.089
 6846WAT      O22119   4.991   5.071   1.600
 6846WAT     H122120   4.908   5.078   1.647
 6846WAT     H222121   5.009   5.160   1.570
 6847WAT      O22122   3.287   4.598   2.273
 6847WAT     H122123   3.221   4.571   2.209
 6847WAT     H222124   3.371   4.587   2.228
 6848WAT      O22125   5.037   4.831   2.335
 6848WAT     H122126   5.075   4.753   2.294
 6848WAT     H222127   5.101   4.900   2.317
 6849WAT      O22128   4.736   4.970   2.876
 6849WAT     H122129   4.654   5.013   2.902
 6849WAT     H222130   4.776   5.031   2.815
 6850WAT      O22131   4.942   4.775   1.566
 6850WAT     H122132   4.969   4.866   1.553
 6850WAT     H222133   4.923   4.769   1.660
 6851WAT      O22134   4.582   4.077   1.696
 6851WAT     H122135   4.624   4.059   1.612
 6851WAT     H222136   4.551   3.992   1.727
 6852WAT      O22137   3.391   4.637   2.727
 6852WAT     H122138   3.427   4.628   2.815
 6852WAT     H222139   3.334   4.560   2.718
 6853WAT      O22140   3.208   4.319   1.868
 6853WAT     H122141   3.118   4.345   1.850
 6853WAT     H222142   3.257   4.346   1.790
 6854WAT      O22143   4.859   4.391   2.395
 6854WAT     H122144   4.912   4.342   2.332
 6854WAT     H222145   4.918   4.405   2.470
 6855WAT      O22146   4.877   4.400   2.748
 6855WAT     H122147   4.782   4.396   2.759
 6855WAT     H222148   4.895   4.491   2.724
 6856WAT      O22149   3.463   4.225   1.659
 6856WAT     H122150   3.533   4.183   1.610
 6856WAT     H222151   3.391   4.231   1.595
 6857WAT      O22152   3.427   3.830   1.563
 6857WAT     H122153   3.500   3.884   1.594
 6857WAT     H222154   3.454   3.803   1.475
 6858WAT      O22155   3.396   3.755   2.553
 6858WAT     H122156   3.461   3.700   2.509
 6858WAT     H222157   3.438   3.781   2.635
 6859WAT      O22158   5.040   3.964   1.567
 6859WAT     H122159   5.132   3.951   1.546
 6859WAT     H222160   5.038   3.972   1.662
 6860WAT      O22161   4.742   5.445   2.229
 6860WAT     H122162   4.801   5.413   2.161
 6860WAT     H222163   4.767   5.397   2.308
 6861WAT      O22164   3.371   3.771   2.827
 6861WAT     H122165   3.337   3.816   2.904
 6861WAT     H222166   3.338   3.681   2.835
 6862WAT      O22167   3.902   5.244   2.804
 6862WAT     H122168   3.878   5.270   2.715
 6862WAT     H222169   3.996   5.261   2.809
 6863WAT      O22170   4.461   3.712   2.776
 6863WAT     H122171   4.373   3.745   2.756
 6863WAT     H222172   4.450   3.665   2.858
 6864WAT      O22173   4.551   3.933   2.914
 6864WAT     H122174   4.518   3.851   2.876
 6864WAT     H222175   4.646   3.928   2.902
 6865WAT      O22176   3.840   5.341   2.529
 6865WAT     H122177   3.891   5.279   2.477
 6865WAT     H222178   3.905   5.391   2.578
 6866WAT      O22179   4.114   5.430   2.612
 6866WAT     H122180   4.142   5.404   2.524
 6866WAT     H222181   4.165   5.374   2.671
 6867WAT      O22182   4.235   3.804   2.670
 6867WAT     H122183   4.157   3.851   2.698
 6867WAT     H222184   4.206   3.713   2.659
 6868WAT      O22185   4.691   3.874   2.474
 6868WAT     H122186   4.735   3.868   2.390
 6868WAT     H222187   4.664   3.965   2.481
 6869WAT      O22188   4.877   3.837   2.275
 6869WAT     H122189   4.871   3.743   2.261
 6869WAT     H222190   4.955   3.848   2.330
 6870WAT      O22191   3.370   3.834   1.922
 6870WAT     H122192   3.446   3.845   1.865
 6870WAT     H222193   3.323   3.918   1.917
 6871WAT      O22194   4.024   4.045   2.221
 6871WAT     H122195   3.943   4.008   2.187
 6871WAT     H222196   4.074   3.970   2.251
 6872WAT      O22197   4.474   3.712   2.345
 6872WAT     H122198   4.534   3.769   2.392
 6872WAT     H222199   4.400   3.768   2.323
 6873WAT      O22200   3.468   5.320   1.916
 6873WAT     H122201   3.416   5.358   1.846
 6873WAT     H222202   3.461   5.383   1.988
 6874WAT      O22203   3.607   3.887   1.776
 6874WAT     H122204   3.660   3.808   1.763
 6874WAT     H222205   3.670   3.955   1.799
 6875WAT      O22206   3.826   3.860   2.081
 6875WAT     H122207   3.763   3.790   2.098
 6875WAT     H222208   3.772   3.936   2.060
 6876WAT      O22209   4.120   5.522   3.349
 6876WAT     H122210   4.213   5.498   3.353
 6876WAT     H222211   4.119   5.605   3.300
 6877WAT      O22212   4.944   5.476   2.048
 6877WAT     H122213   4.961   5.407   1.984
 6877WAT     H222214   4.874   5.529   2.009
 6878WAT      O22215   3.728   5.515   1.804
 6878WAT     H122216   3.801   5.487   1.749
 6878WAT     H222217   3.754   5.491   1.893
 6879WAT      O22218   3.644   5.127   1.804
 6879WAT     H122219   3.581   5.174   1.859
 6879WAT     H222220   3.656   5.042   1.848
 6880WAT      O22221   4.499   3.730   3.383
 6880WAT     H122222   4.488   3.762   3.472
 6880WAT     H222223   4.581   3.770   3.353
 6881WAT      O22224   4.390   4.532   0.419
 6881WAT     H122225   4.382   4.440   0.392
 6881WAT     H222226   4.348   4.581   0.349
 6882WAT      O22227   4.203   4.710   0.607
 6882WAT     H122228   4.125   4.662   0.636
 6882WAT     H222229   4.268   4.642   0.590
 6883WAT      O22230   3.604   4.741   0.695
 6883WAT     H122231   3.521   4.715   0.735
 6883WAT     H222232   3.665   4.748   0.769
 6884WAT      O22233   4.605   5.150   0.485
 6884WAT     H122234   4.559   5.073   0.518
 6884WAT     H222235   4.686   5.153   0.536
 6885WAT      O22236   3.602   5.144   0.715
 6885WAT     H122237   3.633   5.055   0.697
 6885WAT     H222238   3.677   5.200   0.692
 6886WAT      O22239   3.242   4.497   0.662
 6886WAT     H122240   3.299   4.420   0.662
 6886WAT     H222241   3.242   4.527   0.571
 6887WAT      O22242   4.228   5.379   0.447
 6887WAT     H122243   4.166   5.424   0.390
 6887WAT     H222244   4.313   5.394   0.407
 6888WAT      O22245   4.147   4.977   0.608
 6888WAT     H122246   4.140   4.883   0.592
 6888WAT     H222247   4.223   4.986   0.665
 6889WAT      O22248   3.366   4.038   0.841
 6889WAT     H122249   3.348   3.948   0.869
 6889WAT     H222250   3.326   4.092   0.908
 6890WAT      O22251   4.250   4.258   0.631
 6890WAT     H122252   4.288   4.171   0.619
 6890WAT     H222253   4.240   4.291   0.542
 6891WAT      O22254   3.663   4.095   0.177
 6891WAT     H122255   3.674   4.185   0.208
 6891WAT     H222256   3.572   4.090   0.148
 6892WAT      O22257   4.628   4.007   0.324
 6892WAT     H122258   4.710   3.958   0.328
 6892WAT     H222259   4.632   4.066   0.399
 6893WAT      O22260   3.428   4.287   0.701
 6893WAT     H122261   3.496   4.314   0.763
 6893WAT     H222262   3.396   4.203   0.735
 6894WAT      O22263   3.847   4.392   0.610
 6894WAT     H122264   3.898   4.442   0.674
 6894WAT     H222265   3.900   4.314   0.592
 6895WAT      O22266   5.057   4.209   0.980
 6895WAT     H122267   4.987   4.248   0.929
 6895WAT     H222268   5.084   4.278   1.041
 6896WAT      O22269   3.675   3.856   1.037
 6896WAT     H122270   3.676   3.908   0.956
 6896WAT     H222271   3.592   3.808   1.034
 6897WAT      O22272   3.800   4.820   0.854
 6897WAT     H122273   3.767   4.883   0.919
 6897WAT     H222274   3.818   4.872   0.776
 6898WAT      O22275   4.652   4.201   0.601
 6898WAT     H122276   4.581   4.230   0.659
 6898WAT     H222277   4.688   4.282   0.565
 6899WAT      O22278   3.644   4.027   0.837
 6899WAT     H122279   3.678   4.111   0.808
 6899WAT     H222280   3.550   4.042   0.849
 6900WAT      O22281   3.722   5.017   1.036
 6900WAT     H122282   3.783   5.084   1.008
 6900WAT     H222283   3.636   5.058   1.027
 6901WAT      O22284   4.813   5.163   0.827
 6901WAT     H122285   4.745   5.230   0.827
 6901WAT     H222286   4.867   5.183   0.751
 6902WAT      O22287   4.959   4.146   0.640
 6902WAT     H122288   4.864   4.149   0.653
 6902WAT     H222289   4.991   4.227   0.679
 6903WAT      O22290   4.012   3.776   0.470
 6903WAT     H122291   4.043   3.720   0.398
 6903WAT     H222292   3.919   3.789   0.452
 6904WAT      O22293   4.567   5.347   0.699
 6904WAT     H122294   4.568   5.307   0.612
 6904WAT     H222295   4.512   5.425   0.689
 6905WAT      O22296   4.696   5.020   0.208
 6905WAT     H122297   4.685   4.925   0.220
 6905WAT     H222298   4.696   5.056   0.296
 6906WAT      O22299   4.507   4.838   0.832
 6906WAT     H122300   4.549   4.816   0.748
 6906WAT     H222301   4.579   4.864   0.889
 6907WAT      O22302   4.902   4.678   0.841
 6907WAT     H122303   4.819   4.685   0.793
 6907WAT     H222304   4.961   4.736   0.794
 6908WAT      O22305   4.598   4.356   0.935
 6908WAT     H122306   4.557   4.439   0.961
 6908WAT     H222307   4.525   4.298   0.916
 6909WAT      O22308   3.811   4.635   0.422
 6909WAT     H122309   3.771   4.564   0.372
 6909WAT     H222310   3.820   4.600   0.511
 6910WAT      O22311   3.858   5.004   0.638
 6910WAT     H122312   3.828   4.943   0.570
 6910WAT     H222313   3.953   5.007   0.627
 6911WAT      O22314   3.683   4.312   0.800
 6911WAT     H122315   3.738   4.323   0.722
 6911WAT     H222316   3.734   4.350   0.871
 6912WAT      O22317   4.667   5.361   1.004
 6912WAT     H122318   4.619   5.442   0.985
 6912WAT     H222319   4.599   5.296   1.020
 6913WAT      O22320   3.767   4.977   1.303
 6913WAT     H122321   3.678   5.000   1.328
 6913WAT     H222322   3.770   4.990   1.208
 6914WAT      O22323   3.650   4.665   1.161
 6914WAT     H122324   3.636   4.752   1.198
 6914WAT     H222325   3.562   4.630   1.146
 6915WAT      O22326   4.282   5.156   0.291
 6915WAT     H122327   4.326   5.231   0.250
 6915WAT     H222328   4.276   5.181   0.384
 6916WAT      O22329   3.830   5.259   1.382
 6916WAT     H122330   3.827   5.299   1.295
 6916WAT     H222331   3.813   5.166   1.365
 6917WAT      O22332   5.025   5.337   1.511
 6917WAT     H122333   5.073   5.385   1.579
 6917WAT     H222334   5.087   5.330   1.439
 6918WAT      O22335   3.245   4.842   0.752
 6918WAT     H122336   3.253   4.855   0.658
 6918WAT     H222337   3.307   4.771   0.772
 6919WAT      O22338   3.370   5.012   0.393
 6919WAT     H122339   3.329   5.026   0.308
 6919WAT     H222340   3.459   4.983   0.373
 6920WAT      O22341   4.965   5.056   1.227
 6920WAT     H122342   4.978   5.032   1.135
 6920WAT     H222343   4.969   4.973   1.274
 6921WAT      O22344   4.351   5.426   1.084
 6921WAT     H122345   4.403   5.418   1.164
 6921WAT     H222346   4.267   5.461   1.113
 6922WAT      O22347   3.797   5.433   0.205
 6922WAT     H122348   3.779   5.341   0.183
 6922WAT     H222349   3.711   5.469   0.229
 6923WAT      O22350   4.476   5.369   0.290
 6923WAT     H122351   4.521   5.290   0.322
 6923WAT     H222352   4.510   5.440   0.345
 6924WAT      O22353   4.950   4.262   1.324
 6924WAT     H122354   4.889   4.312   1.271
 6924WAT     H222355   4.918   4.171   1.318
 6925WAT      O22356   3.251   4.946   1.006
 6925WAT     H122357   3.267   4.899   0.925
 6925WAT     H222358   3.297   4.895   1.073
 6926WAT      O22359   3.728   3.859   0.510
 6926WAT     H122360   3.684   3.937   0.477
 6926WAT     H222361   3.784   3.891   0.581
 6927WAT      O22362   4.157   4.145   1.070
 6927WAT     H122363   4.110   4.166   1.152
 6927WAT     H222364   4.116   4.064   1.040
 6928WAT      O22365   4.657   4.268   1.183
 6928WAT     H122366   4.572   4.238   1.215
 6928WAT     H222367   4.641   4.292   1.092
 6929WAT      O22368   4.366   4.418   1.393
 6929WAT     H122369   4.399   4.334   1.359
 6929WAT     H222370   4.445   4.470   1.408
 6930WAT      O22371   3.932   3.913   0.696
 6930WAT     H122372   3.961   4.004   0.688
 6930WAT     H222373   3.987   3.864   0.634
 6931WAT      O22374   3.707   4.371   0.283
 6931WAT     H122375   3.684   4.349   0.373
 6931WAT     H222376   3.629   4.414   0.248
 6932WAT      O22377   3.951   4.461   1.349
 6932WAT     H122378   3.942   4.367   1.334
 6932WAT     H222379   4.035   4.483   1.310
 6933WAT      O22380   4.291   4.235   0.346
 6933WAT     H122381   4.330   4.267   0.264
 6933WAT     H222382   4.327   4.147   0.357
 6934WAT      O22383   3.464   4.102   1.165
 6934WAT     H122384   3.425   4.187   1.185
 6934WAT     H222385   3.395   4.038   1.184
 6935WAT      O22386   4.122   4.110   1.472
 6935WAT     H122387   4.053   4.091   1.535
 6935WAT     H222388   4.196   4.139   1.525
 6936WAT      O22389   3.194   3.894   0.568
 6936WAT     H122390   3.165   3.951   0.639
 6936WAT     H222391   3.269   3.846   0.604
 6937WAT      O22392   4.349   4.494   0.755
 6937WAT     H122393   4.276   4.545   0.790
 6937WAT     H222394   4.310   4.413   0.725
 6938WAT      O22395   3.993   4.162   0.596
 6938WAT     H122396   3.993   4.118   0.511
 6938WAT     H222397   4.083   4.194   0.606
 6939WAT      O22398   3.578   4.150   0.492
 6939WAT     H122399   3.544   4.198   0.567
 6939WAT     H222400   3.502   4.105   0.456
 6940WAT      O22401   4.396   4.040   0.696
 6940WAT     H122402   4.397   4.085   0.781
 6940WAT     H222403   4.371   3.950   0.718
 6941WAT      O22404   4.738   3.781   1.280
 6941WAT     H122405   4.771   3.708   1.333
 6941WAT     H222406   4.742   3.749   1.190
 6942WAT      O22407   3.408   4.883   1.222
 6942WAT     H122408   3.370   4.819   1.282
 6942WAT     H222409   3.439   4.954   1.279
 6943WAT      O22410   4.023   4.568   0.770
 6943WAT     H122411   4.060   4.521   0.845
 6943WAT     H222412   4.004   4.655   0.804
 6944WAT      O22413   3.310   4.042   0.383
 6944WAT     H122414   3.281   4.006   0.467
 6944WAT     H222415   3.303   3.969   0.322
 6945WAT      O22416   3.802   4.472   1.002
 6945WAT     H122417   3.772   4.560   1.025
 6945WAT     H222418   3.898   4.478   1.006
 6946WAT      O22419   4.731   4.792   0.641
 6946WAT     H122420   4.803   4.842   0.602
 6946WAT     H222421   4.711   4.724   0.577
 6947WAT      O22422   4.269   4.799   1.230
 6947WAT     H122423   4.262   4.707   1.204
 6947WAT     H222424   4.206   4.809   1.301
 6948WAT      O22425   3.659   4.859   0.426
 6948WAT     H122426   3.711   4.779   0.420
 6948WAT     H222427   3.614   4.853   0.510
 6949WAT      O22428   3.408   4.556   1.117
 6949WAT     H122429   3.372   4.623   1.176
 6949WAT     H222430   3.378   4.473   1.154
 6950WAT      O22431   3.728   4.602   1.405
 6950WAT     H122432   3.698   4.616   1.316
 6950WAT     H222433   3.805   4.546   1.396
 6951WAT      O22434   4.262   5.082   1.205
 6951WAT     H122435   4.264   4.988   1.183
 6951WAT     H222436   4.191   5.090   1.269
 6952WAT      O22437   4.883   4.746   1.140
 6952WAT     H122438   4.811   4.805   1.120
 6952WAT     H222439   4.936   4.745   1.060
 6953WAT      O22440   4.436   4.918   0.489
 6953WAT     H122441   4.472   4.859   0.423
 6953WAT     H222442   4.348   4.886   0.507
 6954WAT      O22443   4.045   4.994   0.230
 6954WAT     H122444   4.114   5.049   0.268
 6954WAT     H222445   3.966   5.049   0.234
 6955WAT      O22446   3.975   4.695   0.191
 6955WAT     H122447   4.021   4.776   0.214
 6955WAT     H222448   3.940   4.663   0.275
 6956WAT      O22449   4.205   5.246   0.914
 6956WAT     H122450   4.270   5.266   0.982
 6956WAT     H222451   4.242   5.170   0.869
 6957WAT      O22452   3.565   3.729   0.239
 6957WAT     H122453   3.552   3.728   0.333
 6957WAT     H222454   3.483   3.763   0.204
 6958WAT      O22455   4.333   5.046   0.786
 6958WAT     H122456   4.397   4.976   0.797
 6958WAT     H222457   4.385   5.124   0.768
 6959WAT      O22458   4.510   5.126   1.106
 6959WAT     H122459   4.544   5.185   1.174
 6959WAT     H222460   4.418   5.113   1.129
 6960WAT      O22461   3.265   3.905   1.185
 6960WAT     H122462   3.194   3.925   1.245
 6960WAT     H222463   3.307   3.827   1.222
 6961WAT      O22464   3.294   5.304   1.283
 6961WAT     H122465   3.305   5.210   1.269
 6961WAT     H222466   3.229   5.330   1.218
 6962WAT      O22467   4.093   5.131   1.423
 6962WAT     H122468   4.061   5.059   1.478
 6962WAT     H222469   4.026   5.199   1.431
 6963WAT      O22470   4.415   4.154   0.960
 6963WAT     H122471   4.451   4.072   0.992
 6963WAT     H222472   4.329   4.160   1.001
 6964WAT      O22473   3.948   4.278   0.182
 6964WAT     H122474   3.877   4.325   0.226
 6964WAT     H222475   3.977   4.212   0.246
 6965WAT      O22476   4.111   4.420   0.982
 6965WAT     H122477   4.160   4.467   1.049
 6965WAT     H222478   4.125   4.327   1.003
 6966WAT      O22479   4.351   3.950   0.326
 6966WAT     H122480   4.339   3.952   0.231
 6966WAT     H222481   4.446   3.955   0.338
 6967WAT      O22482   4.060   5.474   0.253
 6967WAT     H122483   4.085   5.470   0.161
 6967WAT     H222484   3.965   5.461   0.253
 6968WAT      O22485   4.831   4.041   1.066
 6968WAT     H122486   4.781   4.115   1.100
 6968WAT     H222487   4.913   4.080   1.035
 6969WAT      O22488   4.661   4.566   0.411
 6969WAT     H122489   4.566   4.567   0.428
 6969WAT     H222490   4.692   4.487   0.456
 6970WAT      O22491   4.861   5.283   0.579
 6970WAT     H122492   4.873   5.365   0.626
 6970WAT     H222493   4.947   5.262   0.544
 6971WAT      O22494   3.608   5.492   0.546
 6971WAT     H122495   3.682   5.437   0.573
 6971WAT     H222496   3.646   5.579   0.532
 6972WAT      O22497   3.509   5.411   1.465
 6972WAT     H122498   3.589   5.443   1.506
 6972WAT     H222499   3.457   5.374   1.537
 6973WAT      O22500   4.392   5.021   1.459
 6973WAT     H122501   4.332   5.024   1.385
 6973WAT     H222502   4.362   4.948   1.513
 6974WAT      O22503   4.535   5.394   1.320
 6974WAT     H122504   4.630   5.386   1.315
 6974WAT     H222505   4.520   5.461   1.388
 6975WAT      O22506   3.281   4.659   1.359
 6975WAT     H122507   3.331   4.601   1.416
 6975WAT     H222508   3.207   4.688   1.413
 6976WAT      O22509   3.986   4.800   1.312
 6976WAT     H122510   3.909   4.857   1.304
 6976WAT     H222511   4.004   4.771   1.223
 6977WAT      O22512   4.700   4.973   1.368
 6977WAT     H122513   4.774   5.007   1.318
 6977WAT     H222514   4.624   4.990   1.313
 6978WAT      O22515   3.484   4.474   1.448
 6978WAT     H122516   3.488   4.444   1.539
 6978WAT     H222517   3.569   4.514   1.432
 6979WAT      O22518   3.678   4.331   1.245
 6979WAT     H122519   3.625   4.282   1.182
 6979WAT     H222520   3.745   4.374   1.192
 6980WAT      O22521   4.568   4.778   1.222
 6980WAT     H122522   4.609   4.794   1.306
 6980WAT     H222523   4.474   4.791   1.238
 6981WAT      O22524   4.615   4.512   1.422
 6981WAT     H122525   4.673   4.437   1.413
 6981WAT     H222526   4.632   4.565   1.344
 6982WAT      O22527   3.727   4.028   1.253
 6982WAT     H122528   3.717   3.966   1.181
 6982WAT     H222529   3.669   4.101   1.230
 6983WAT      O22530   4.003   3.884   0.956
 6983WAT     H122531   3.958   3.886   0.872
 6983WAT     H222532   3.940   3.844   1.016
 6984WAT      O22533   4.044   4.773   1.019
 6984WAT     H122534   4.086   4.858   1.001
 6984WAT     H222535   3.952   4.787   0.996
 6985WAT      O22536   4.277   4.547   1.157
 6985WAT     H122537   4.289   4.487   1.231
 6985WAT     H222538   4.363   4.550   1.115
 6986WAT      O22539   4.511   4.602   1.015
 6986WAT     H122540   4.459   4.654   0.954
 6986WAT     H222541   4.546   4.665   1.078
 6987WAT      O22542   3.829   5.404   1.130
 6987WAT     H122543   3.775   5.476   1.098
 6987WAT     H222544   3.854   5.356   1.051
 6988WAT      O22545   3.954   4.201   1.283
 6988WAT     H122546   4.013   4.170   1.351
 6988WAT     H222547   3.872   4.154   1.298
 6989WAT      O22548   4.436   4.162   1.306
 6989WAT     H122549   4.367   4.096   1.299
 6989WAT     H222550   4.508   4.118   1.350
 6990WAT      O22551   4.114   5.527   1.156
 6990WAT     H122552   4.107   5.618   1.187
 6990WAT     H222553   4.024   5.496   1.153
 6991WAT      O22554   3.255   5.260   0.486
 6991WAT     H122555   3.288   5.173   0.463
 6991WAT     H222556   3.298   5.281   0.569
 6992WAT      O22557   3.714   5.093   0.252
 6992WAT     H122558   3.684   5.081   0.342
 6992WAT     H222559   3.704   5.007   0.211
 6993WAT      O22560   3.304   5.347   0.760
 6993WAT     H122561   3.260   5.365   0.843
 6993WAT     H222562   3.360   5.423   0.746
 6994WAT      O22563   4.867   5.297   1.189
 6994WAT     H122564   4.807   5.303   1.115
 6994WAT     H222565   4.880   5.203   1.202
 6995WAT      O22566   3.287   4.598   0.396
 6995WAT     H122567   3.221   4.571   0.332
 6995WAT     H222568   3.371   4.587   0.351
 6996WAT      O22569   5.037   4.831   0.457
 6996WAT     H122570   5.075   4.753   0.417
 6996WAT     H222571   5.101   4.900   0.440
 6997WAT      O22572   4.736   4.970   0.999
 6997WAT     H122573   4.654   5.013   1.025
 6997WAT     H222574   4.776   5.031   0.937
 6998WAT      O22575   4.932   4.569   0.188
 6998WAT     H122576   4.894   4.492   0.145
 6998WAT     H222577   4.859   4.607   0.237
 6999WAT      O22578   3.391   4.637   0.850
 6999WAT     H122579   3.427   4.628   0.938
 6999WAT     H222580   3.334   4.560   0.840
 7000WAT      O22581   4.871   4.483   1.151
 7000WAT     H122582   4.848   4.461   1.061
 7000WAT     H222583   4.897   4.575   1.147
 7001WAT      O22584   3.346   4.328   1.241
 7001WAT     H122585   3.256   4.324   1.275
 7001WAT     H222586   3.400   4.348   1.317
 7002WAT      O22587   4.715   4.006   1.429
 7002WAT     H122588   4.802   4.007   1.467
 7002WAT     H222589   4.716   3.932   1.368
 7003WAT      O22590   4.859   4.391   0.518
 7003WAT     H122591   4.912   4.342   0.455
 7003WAT     H222592   4.918   4.405   0.592
 7004WAT      O22593   4.877   4.400   0.870
 7004WAT     H122594   4.782   4.396   0.882
 7004WAT     H222595   4.895   4.491   0.847
 7005WAT      O22596   3.396   3.755   0.675
 7005WAT     H122597   3.461   3.700   0.631
 7005WAT     H222598   3.438   3.781   0.758
 7006WAT      O22599   4.951   4.181   0.365
 7006WAT     H122600   4.940   4.165   0.459
 7006WAT     H222601   5.027   4.128   0.341
 7007WAT      O22602   4.786   3.775   1.011
 7007WAT     H122603   4.849   3.836   1.048
 7007WAT     H222604   4.800   3.778   0.917
 7008WAT      O22605   4.742   5.445   0.351
 7008WAT     H122606   4.801   5.413   0.284
 7008WAT     H222607   4.767   5.397   0.430
 7009WAT      O22608   3.371   3.771   0.950
 7009WAT     H122609   3.337   3.816   1.026
 7009WAT     H222610   3.338   3.681   0.958
 7010WAT      O22611   3.532   5.088   1.366
 7010WAT     H122612   3.528   5.051   1.454
 7010WAT     H222613   3.545   5.182   1.380
 7011WAT      O22614   3.902   5.244   0.926
 7011WAT     H122615   3.878   5.270   0.838
 7011WAT     H222616   3.996   5.261   0.932
 7012WAT      O22617   4.123   3.890   1.302
 7012WAT     H122618   4.117   3.949   1.377
 7012WAT     H222619   4.217   3.879   1.287
 7013WAT      O22620   4.386   3.856   1.266
 7013WAT     H122621   4.448   3.887   1.200
 7013WAT     H222622   4.441   3.807   1.328
 7014WAT      O22623   5.028   5.445   1.006
 7014WAT     H122624   4.979   5.485   0.935
 7014WAT     H222625   4.967   5.383   1.046
 7015WAT      O22626   3.439   3.723   1.277
 7015WAT     H122627   3.494   3.705   1.201
 7015WAT     H222628   3.445   3.644   1.331
 7016WAT      O22629   3.516   5.383   1.078
 7016WAT     H122630   3.457   5.369   1.152
 7016WAT     H222631   3.515   5.299   1.032
 7017WAT      O22632   4.461   3.712   0.899
 7017WAT     H122633   4.373   3.745   0.878
 7017WAT     H222634   4.450   3.665   0.981
 7018WAT      O22635   4.551   3.933   1.037
 7018WAT     H122636   4.518   3.851   0.999
 7018WAT     H222637   4.646   3.928   1.025
 7019WAT      O22638   4.797   5.510   0.734
 7019WAT     H122639   4.751   5.585   0.697
 7019WAT     H222640   4.734   5.438   0.728
 7020WAT      O22641   3.479   5.119   0.973
 7020WAT     H122642   3.406   5.057   0.967
 7020WAT     H222643   3.485   5.159   0.886
 7021WAT      O22644   3.840   5.341   0.652
 7021WAT     H122645   3.891   5.279   0.599
 7021WAT     H222646   3.905   5.391   0.701
 7022WAT      O22647   4.114   5.430   0.734
 7022WAT     H122648   4.142   5.404   0.647
 7022WAT     H222649   4.165   5.374   0.794
 7023WAT      O22650   4.235   3.804   0.792
 7023WAT     H122651   4.157   3.851   0.820
 7023WAT     H222652   4.206   3.713   0.782
 7024WAT      O22653   4.691   3.874   0.597
 7024WAT     H122654   4.735   3.868   0.512
 7024WAT     H222655   4.664   3.965   0.604
 7025WAT      O22656   4.877   3.837   0.398
 7025WAT     H122657   4.871   3.743   0.383
 7025WAT     H222658   4.955   3.848   0.453
 7026WAT      O22659   3.307   5.451   0.294
 7026WAT     H122660   3.291   5.388   0.364
 7026WAT     H222661   3.221   5.471   0.259
 7027WAT      O22662   4.024   4.045   0.344
 7027WAT     H122663   3.943   4.008   0.310
 7027WAT     H222664   4.074   3.970   0.374
 7028WAT      O22665   4.474   3.712   0.467
 7028WAT     H122666   4.534   3.769   0.515
 7028WAT     H222667   4.400   3.768   0.445
 7029WAT      O22668   3.826   3.860   0.204
 7029WAT     H122669   3.763   3.790   0.221
 7029WAT     H222670   3.772   3.936   0.182
 7030WAT      O22671   4.120   5.522   1.471
 7030WAT     H122672   4.213   5.498   1.476
 7030WAT     H222673   4.119   5.605   1.423
 7031WAT      O22674   3.839   3.788   1.448
 7031WAT     H122675   3.811   3.839   1.371
 7031WAT     H222676   3.877   3.708   1.411
 7032WAT      O22677   4.499   3.730   1.505
 7032WAT     H122678   4.488   3.762   1.595
 7032WAT     H222679   4.581   3.770   1.476
 7033WAT      O22680   4.777   5.445   1.454
 7033WAT     H122681   4.856   5.395   1.433
 7033WAT     H222682   4.806   5.512   1.514
 7034WAT      O22683   4.390   2.654   6.051
 7034WAT     H122684   4.382   2.563   6.024
 7034WAT     H222685   4.348   2.704   5.981
 7035WAT      O22686   4.203   2.832   6.240
 7035WAT     H122687   4.125   2.784   6.269
 7035WAT     H222688   4.268   2.764   6.222
 7036WAT      O22689   3.604   2.863   6.327
 7036WAT     H122690   3.521   2.838   6.367
 7036WAT     H222691   3.665   2.870   6.401
 7037WAT      O22692   4.605   3.273   6.118
 7037WAT     H122693   4.559   3.196   6.150
 7037WAT     H222694   4.686   3.275   6.168
 7038WAT      O22695   3.602   3.267   6.347
 7038WAT     H122696   3.633   3.178   6.329
 7038WAT     H222697   3.677   3.322   6.324
 7039WAT      O22698   3.445   2.359   5.706
 7039WAT     H122699   3.357   2.393   5.696
 7039WAT     H222700   3.474   2.339   5.617
 7040WAT      O22701   3.242   2.619   6.294
 7040WAT     H122702   3.299   2.543   6.294
 7040WAT     H222703   3.242   2.649   6.203
 7041WAT      O22704   4.228   3.501   6.080
 7041WAT     H122705   4.166   3.547   6.023
 7041WAT     H222706   4.313   3.517   6.039
 7042WAT      O22707   4.147   3.100   6.240
 7042WAT     H122708   4.140   3.006   6.224
 7042WAT     H222709   4.223   3.109   6.297
 7043WAT      O22710   3.366   2.160   6.473
 7043WAT     H122711   3.348   2.070   6.501
 7043WAT     H222712   3.326   2.215   6.540
 7044WAT      O22713   4.250   2.380   6.263
 7044WAT     H122714   4.288   2.293   6.252
 7044WAT     H222715   4.240   2.414   6.174
 7045WAT      O22716   3.663   2.218   5.809
 7045WAT     H122717   3.674   2.308   5.840
 7045WAT     H222718   3.572   2.213   5.780
 7046WAT      O22719   4.628   2.130   5.956
 7046WAT     H122720   4.710   2.081   5.960
 7046WAT     H222721   4.632   2.189   6.032
 7047WAT      O22722   3.428   2.410   6.334
 7047WAT     H122723   3.496   2.436   6.396
 7047WAT     H222724   3.396   2.326   6.367
 7048WAT      O22725   3.847   2.514   6.242
 7048WAT     H122726   3.898   2.564   6.306
 7048WAT     H222727   3.900   2.437   6.225
 7049WAT      O22728   4.314   2.990   5.819
 7049WAT     H122729   4.252   3.036   5.763
 7049WAT     H222730   4.365   3.059   5.861
 7050WAT      O22731   3.800   2.942   6.487
 7050WAT     H122732   3.767   3.005   6.551
 7050WAT     H222733   3.818   2.995   6.409
 7051WAT      O22734   4.652   2.324   6.234
 7051WAT     H122735   4.581   2.353   6.292
 7051WAT     H222736   4.688   2.405   6.198
 7052WAT      O22737   3.644   2.150   6.470
 7052WAT     H122738   3.678   2.234   6.440
 7052WAT     H222739   3.550   2.164   6.481
 7053WAT      O22740   3.251   3.058   5.556
 7053WAT     H122741   3.213   3.107   5.483
 7053WAT     H222742   3.277   3.125   5.619
 7054WAT      O22743   4.813   3.286   6.460
 7054WAT     H122744   4.745   3.353   6.459
 7054WAT     H222745   4.867   3.305   6.383
 7055WAT      O22746   4.959   2.268   6.273
 7055WAT     H122747   4.864   2.272   6.286
 7055WAT     H222748   4.991   2.350   6.311
 7056WAT      O22749   4.012   1.898   6.102
 7056WAT     H122750   4.043   1.843   6.031
 7056WAT     H222751   3.919   1.912   6.084
 7057WAT      O22752   4.567   3.470   6.331
 7057WAT     H122753   4.568   3.430   6.244
 7057WAT     H222754   4.512   3.548   6.321
 7058WAT      O22755   4.696   3.142   5.840
 7058WAT     H122756   4.685   3.048   5.853
 7058WAT     H222757   4.696   3.178   5.929
 7059WAT      O22758   4.507   2.960   6.464
 7059WAT     H122759   4.549   2.939   6.381
 7059WAT     H222760   4.579   2.986   6.521
 7060WAT      O22761   4.251   2.705   5.776
 7060WAT     H122762   4.158   2.698   5.799
 7060WAT     H222763   4.266   2.799   5.764
 7061WAT      O22764   4.249   2.332   5.475
 7061WAT     H122765   4.155   2.348   5.484
 7061WAT     H222766   4.281   2.404   5.421
 7062WAT      O22767   4.902   2.800   6.473
 7062WAT     H122768   4.819   2.807   6.426
 7062WAT     H222769   4.961   2.859   6.426
 7063WAT      O22770   4.654   2.861   5.826
 7063WAT     H122771   4.592   2.827   5.761
 7063WAT     H222772   4.652   2.797   5.897
 7064WAT      O22773   4.598   2.479   6.568
 7064WAT     H122774   4.557   2.561   6.593
 7064WAT     H222775   4.525   2.420   6.549
 7065WAT      O22776   3.811   2.758   6.054
 7065WAT     H122777   3.771   2.686   6.004
 7065WAT     H222778   3.820   2.723   6.143
 7066WAT      O22779   3.858   3.126   6.270
 7066WAT     H122780   3.828   3.066   6.202
 7066WAT     H222781   3.953   3.130   6.259
 7067WAT      O22782   3.683   2.435   6.432
 7067WAT     H122783   3.738   2.446   6.354
 7067WAT     H222784   3.734   2.472   6.504
 7068WAT      O22785   4.667   3.484   6.637
 7068WAT     H122786   4.619   3.564   6.617
 7068WAT     H222787   4.599   3.418   6.652
 7069WAT      O22788   4.471   2.785   5.527
 7069WAT     H122789   4.515   2.701   5.512
 7069WAT     H222790   4.543   2.848   5.535
 7070WAT      O22791   4.282   3.279   5.924
 7070WAT     H122792   4.326   3.353   5.882
 7070WAT     H222793   4.276   3.303   6.016
 7071WAT      O22794   4.829   1.910   5.358
 7071WAT     H122795   4.798   1.920   5.448
 7071WAT     H222796   4.906   1.968   5.353
 7072WAT      O22797   3.481   2.647   5.804
 7072WAT     H122798   3.469   2.720   5.743
 7072WAT     H222799   3.450   2.570   5.756
 7073WAT      O22800   3.245   2.964   6.385
 7073WAT     H122801   3.253   2.978   6.290
 7073WAT     H222802   3.307   2.893   6.404
 7074WAT      O22803   3.370   3.134   6.026
 7074WAT     H122804   3.329   3.148   5.940
 7074WAT     H222805   3.459   3.106   6.005
 7075WAT      O22806   4.549   3.578   5.659
 7075WAT     H122807   4.533   3.549   5.749
 7075WAT     H222808   4.532   3.500   5.606
 7076WAT      O22809   3.797   3.556   5.837
 7076WAT     H122810   3.779   3.464   5.816
 7076WAT     H222811   3.711   3.591   5.861
 7077WAT      O22812   4.519   3.328   5.515
 7077WAT     H122813   4.450   3.328   5.449
 7077WAT     H222814   4.593   3.286   5.472
 7078WAT      O22815   4.476   3.491   5.923
 7078WAT     H122816   4.521   3.413   5.954
 7078WAT     H222817   4.510   3.562   5.977
 7079WAT      O22818   3.728   1.981   6.142
 7079WAT     H122819   3.684   2.059   6.109
 7079WAT     H222820   3.784   2.014   6.213
 7080WAT      O22821   4.040   1.943   5.630
 7080WAT     H122822   3.977   1.943   5.703
 7080WAT     H222823   4.031   1.857   5.591
 7081WAT      O22824   3.932   2.036   6.328
 7081WAT     H122825   3.961   2.126   6.320
 7081WAT     H222826   3.987   1.987   6.267
 7082WAT      O22827   3.707   2.494   5.915
 7082WAT     H122828   3.684   2.472   6.006
 7082WAT     H222829   3.629   2.537   5.881
 7083WAT      O22830   4.430   2.494   5.775
 7083WAT     H122831   4.370   2.567   5.757
 7083WAT     H222832   4.485   2.488   5.697
 7084WAT      O22833   4.291   2.358   5.978
 7084WAT     H122834   4.330   2.390   5.897
 7084WAT     H222835   4.327   2.270   5.989
 7085WAT      O22836   3.194   2.017   6.200
 7085WAT     H122837   3.165   2.074   6.272
 7085WAT     H222838   3.269   1.969   6.237
 7086WAT      O22839   3.213   2.411   5.321
 7086WAT     H122840   3.205   2.505   5.336
 7086WAT     H222841   3.178   2.397   5.233
 7087WAT      O22842   4.349   2.617   6.388
 7087WAT     H122843   4.276   2.668   6.422
 7087WAT     H222844   4.310   2.535   6.357
 7088WAT      O22845   3.993   2.285   6.228
 7088WAT     H122846   3.993   2.240   6.143
 7088WAT     H222847   4.083   2.317   6.239
 7089WAT      O22848   3.578   2.273   6.124
 7089WAT     H122849   3.544   2.321   6.200
 7089WAT     H222850   3.502   2.227   6.088
 7090WAT      O22851   3.999   2.385   5.527
 7090WAT     H122852   4.011   2.381   5.622
 7090WAT     H222853   3.961   2.471   5.512
 7091WAT      O22854   4.396   2.162   6.329
 7091WAT     H122855   4.397   2.207   6.413
 7091WAT     H222856   4.371   2.072   6.350
 7092WAT      O22857   3.900   2.616   5.467
 7092WAT     H122858   3.844   2.571   5.404
 7092WAT     H222859   3.971   2.652   5.414
 7093WAT      O22860   4.023   2.691   6.403
 7093WAT     H122861   4.060   2.643   6.477
 7093WAT     H222862   4.004   2.778   6.437
 7094WAT      O22863   3.310   2.165   6.016
 7094WAT     H122864   3.281   2.129   6.099
 7094WAT     H222865   3.303   2.092   5.954
 7095WAT      O22866   3.655   3.015   5.694
 7095WAT     H122867   3.578   2.961   5.678
 7095WAT     H222868   3.728   2.963   5.660
 7096WAT      O22869   4.731   2.915   6.273
 7096WAT     H122870   4.803   2.964   6.234
 7096WAT     H222871   4.711   2.847   6.209
 7097WAT      O22872   4.277   2.054   5.688
 7097WAT     H122873   4.196   2.004   5.680
 7097WAT     H222874   4.258   2.138   5.646
 7098WAT      O22875   4.548   2.491   5.517
 7098WAT     H122876   4.637   2.523   5.500
 7098WAT     H222877   4.545   2.404   5.478
 7099WAT      O22878   3.659   2.982   6.058
 7099WAT     H122879   3.711   2.902   6.053
 7099WAT     H222880   3.614   2.976   6.142
 7100WAT      O22881   4.148   3.109   5.585
 7100WAT     H122882   4.182   3.183   5.536
 7100WAT     H222883   4.065   3.140   5.622
 7101WAT      O22884   4.776   2.623   5.464
 7101WAT     H122885   4.767   2.666   5.379
 7101WAT     H222886   4.847   2.669   5.507
 7102WAT      O22887   4.878   3.308   5.737
 7102WAT     H122888   4.814   3.243   5.764
 7102WAT     H222889   4.840   3.349   5.659
 7103WAT      O22890   4.436   3.041   6.122
 7103WAT     H122891   4.472   2.981   6.056
 7103WAT     H222892   4.348   3.008   6.139
 7104WAT      O22893   4.045   3.117   5.862
 7104WAT     H122894   4.114   3.172   5.901
 7104WAT     H222895   3.966   3.171   5.866
 7105WAT      O22896   3.259   2.679   5.412
 7105WAT     H122897   3.346   2.707   5.440
 7105WAT     H222898   3.210   2.760   5.400
 7106WAT      O22899   3.975   2.817   5.824
 7106WAT     H122900   4.021   2.898   5.846
 7106WAT     H222901   3.940   2.786   5.907
 7107WAT      O22902   4.205   3.368   6.547
 7107WAT     H122903   4.270   3.389   6.614
 7107WAT     H222904   4.242   3.292   6.501
 7108WAT      O22905   3.565   1.852   5.871
 7108WAT     H122906   3.552   1.851   5.966
 7108WAT     H222907   3.483   1.886   5.836
 7109WAT      O22908   4.333   3.169   6.418
 7109WAT     H122909   4.397   3.099   6.430
 7109WAT     H222910   4.385   3.247   6.400
 7110WAT      O22911   4.717   3.197   5.391
 7110WAT     H122912   4.695   3.125   5.450
 7110WAT     H222913   4.678   3.172   5.307
 7111WAT      O22914   3.296   3.600   5.468
 7111WAT     H122915   3.332   3.660   5.403
 7111WAT     H222916   3.281   3.654   5.546
 7112WAT      O22917   4.676   2.989   5.557
 7112WAT     H122918   4.647   3.035   5.636
 7112WAT     H222919   4.755   2.943   5.584
 7113WAT      O22920   3.897   3.338   5.550
 7113WAT     H122921   3.896   3.411   5.488
 7113WAT     H222922   3.805   3.313   5.559
 7114WAT      O22923   3.457   2.860   5.624
 7114WAT     H122924   3.397   2.934   5.625
 7114WAT     H222925   3.505   2.869   5.542
 7115WAT      O22926   4.415   2.277   6.592
 7115WAT     H122927   4.451   2.195   6.625
 7115WAT     H222928   4.329   2.283   6.634
 7116WAT      O22929   4.751   2.172   5.673
 7116WAT     H122930   4.688   2.183   5.601
 7116WAT     H222931   4.702   2.194   5.752
 7117WAT      O22932   4.196   3.344   5.416
 7117WAT     H122933   4.206   3.324   5.323
 7117WAT     H222934   4.106   3.319   5.437
 7118WAT      O22935   3.948   2.400   5.814
 7118WAT     H122936   3.877   2.447   5.859
 7118WAT     H222937   3.977   2.334   5.878
 7119WAT      O22938   4.351   2.073   5.958
 7119WAT     H122939   4.339   2.075   5.864
 7119WAT     H222940   4.446   2.078   5.970
 7120WAT      O22941   4.060   3.596   5.886
 7120WAT     H122942   4.085   3.593   5.793
 7120WAT     H222943   3.965   3.584   5.885
 7121WAT      O22944   3.768   2.231   5.552
 7121WAT     H122945   3.853   2.275   5.545
 7121WAT     H222946   3.732   2.262   5.635
 7122WAT      O22947   4.661   2.688   6.043
 7122WAT     H122948   4.566   2.690   6.061
 7122WAT     H222949   4.692   2.610   6.088
 7123WAT      O22950   3.658   2.856   5.399
 7123WAT     H122951   3.735   2.845   5.456
 7123WAT     H222952   3.666   2.787   5.334
 7124WAT      O22953   3.528   2.600   5.468
 7124WAT     H122954   3.536   2.505   5.479
 7124WAT     H222955   3.617   2.633   5.478
 7125WAT      O22956   4.861   3.405   6.211
 7125WAT     H122957   4.873   3.488   6.258
 7125WAT     H222958   4.947   3.384   6.176
 7126WAT      O22959   3.608   3.615   6.178
 7126WAT     H122960   3.682   3.560   6.205
 7126WAT     H222961   3.646   3.701   6.164
 7127WAT      O22962   3.296   3.221   5.765
 7127WAT     H122963   3.204   3.246   5.764
 7127WAT     H222964   3.343   3.304   5.753
 7128WAT      O22965   3.919   3.532   5.360
 7128WAT     H122966   3.998   3.561   5.315
 7128WAT     H222967   3.867   3.489   5.292
 7129WAT      O22968   4.824   3.455   5.503
 7129WAT     H122969   4.796   3.413   5.421
 7129WAT     H222970   4.804   3.547   5.491
 7130WAT      O22971   3.971   3.054   5.347
 7130WAT     H122972   3.960   2.992   5.419
 7130WAT     H222973   3.954   3.002   5.268
 7131WAT      O22974   4.295   2.960   5.407
 7131WAT     H122975   4.240   3.005   5.472
 7131WAT     H222976   4.357   2.910   5.459
 7132WAT      O22977   3.862   2.856   5.597
 7132WAT     H122978   3.904   2.839   5.681
 7132WAT     H222979   3.874   2.775   5.547
 7133WAT      O22980   4.113   2.758   5.322
 7133WAT     H122981   4.165   2.687   5.285
 7133WAT     H222982   4.177   2.822   5.352
 7134WAT      O22983   4.003   2.006   6.589
 7134WAT     H122984   3.958   2.009   6.504
 7134WAT     H222985   3.940   1.967   6.648
 7135WAT      O22986   4.044   2.896   6.651
 7135WAT     H122987   4.086   2.980   6.634
 7135WAT     H222988   3.952   2.910   6.628
 7136WAT      O22989   3.751   2.463   5.291
 7136WAT     H122990   3.731   2.377   5.327
 7136WAT     H222991   3.734   2.455   5.198
 7137WAT      O22992   4.499   1.944   5.544
 7137WAT     H122993   4.527   1.860   5.580
 7137WAT     H222994   4.422   1.968   5.596
 7138WAT      O22995   3.631   2.173   5.290
 7138WAT     H122996   3.661   2.174   5.199
 7138WAT     H222997   3.705   2.138   5.340
 7139WAT      O22998   3.953   2.068   5.389
 7139WAT     H122999   3.918   2.000   5.331
 7139WAT     H223000   3.973   2.022   5.470
 7140WAT      O23001   4.169   3.567   5.551
 7140WAT     H123002   4.259   3.600   5.553
 7140WAT     H223003   4.172   3.494   5.488
 7141WAT      O23004   3.533   3.104   5.373
 7141WAT     H123005   3.577   3.158   5.439
 7141WAT     H223006   3.582   3.021   5.374
 7142WAT      O23007   3.255   3.383   6.119
 7142WAT     H123008   3.288   3.296   6.095
 7142WAT     H223009   3.298   3.403   6.202
 7143WAT      O23010   3.714   3.216   5.885
 7143WAT     H123011   3.684   3.203   5.975
 7143WAT     H223012   3.704   3.130   5.844
 7144WAT      O23013   3.304   3.469   6.392
 7144WAT     H123014   3.260   3.487   6.476
 7144WAT     H223015   3.360   3.545   6.378
 7145WAT      O23016   4.991   3.194   5.355
 7145WAT     H123017   4.908   3.201   5.402
 7145WAT     H223018   5.009   3.283   5.325
 7146WAT      O23019   4.937   2.868   5.605
 7146WAT     H123020   5.013   2.925   5.616
 7146WAT     H223021   4.938   2.812   5.682
 7147WAT      O23022   3.287   2.721   6.028
 7147WAT     H123023   3.221   2.694   5.964
 7147WAT     H223024   3.371   2.710   5.983
 7148WAT      O23025   5.037   2.954   6.090
 7148WAT     H123026   5.075   2.875   6.049
 7148WAT     H223027   5.101   3.023   6.072
 7149WAT      O23028   4.942   2.898   5.321
 7149WAT     H123029   4.969   2.988   5.308
 7149WAT     H223030   4.923   2.891   5.415
 7150WAT      O23031   4.582   2.200   5.450
 7150WAT     H123032   4.624   2.181   5.366
 7150WAT     H223033   4.551   2.115   5.482
 7151WAT      O23034   4.932   2.691   5.820
 7151WAT     H123035   4.894   2.615   5.777
 7151WAT     H223036   4.859   2.730   5.869
 7152WAT      O23037   3.391   2.759   6.482
 7152WAT     H123038   3.427   2.750   6.570
 7152WAT     H223039   3.334   2.683   6.472
 7153WAT      O23040   3.208   2.442   5.623
 7153WAT     H123041   3.118   2.468   5.605
 7153WAT     H223042   3.257   2.469   5.545
 7154WAT      O23043   4.859   2.514   6.150
 7154WAT     H123044   4.912   2.464   6.087
 7154WAT     H223045   4.918   2.527   6.225
 7155WAT      O23046   4.877   2.522   6.503
 7155WAT     H123047   4.782   2.519   6.514
 7155WAT     H223048   4.895   2.613   6.479
 7156WAT      O23049   3.463   2.347   5.414
 7156WAT     H123050   3.533   2.305   5.365
 7156WAT     H223051   3.391   2.354   5.350
 7157WAT      O23052   3.427   1.953   5.318
 7157WAT     H123053   3.500   2.007   5.349
 7157WAT     H223054   3.454   1.925   5.230
 7158WAT      O23055   4.808   2.440   5.744
 7158WAT     H123056   4.858   2.416   5.823
 7158WAT     H223057   4.788   2.356   5.703
 7159WAT      O23058   3.396   1.878   6.308
 7159WAT     H123059   3.461   1.823   6.264
 7159WAT     H223060   3.438   1.903   6.390
 7160WAT      O23061   4.951   2.303   5.998
 7160WAT     H123062   4.940   2.288   6.091
 7160WAT     H223063   5.027   2.250   5.973
 7161WAT      O23064   5.040   2.086   5.322
 7161WAT     H123065   5.132   2.073   5.301
 7161WAT     H223066   5.038   2.094   5.417
 7162WAT      O23067   5.047   2.163   5.584
 7162WAT     H123068   4.968   2.157   5.637
 7162WAT     H223069   5.068   2.257   5.583
 7163WAT      O23070   4.742   3.567   5.984
 7163WAT     H123071   4.801   3.535   5.916
 7163WAT     H223072   4.767   3.520   6.063
 7164WAT      O23073   3.902   3.366   6.559
 7164WAT     H123074   3.878   3.393   6.470
 7164WAT     H223075   3.996   3.383   6.564
 7165WAT      O23076   4.461   1.834   6.531
 7165WAT     H123077   4.373   1.868   6.511
 7165WAT     H223078   4.450   1.787   6.613
 7166WAT      O23079   4.797   3.632   6.367
 7166WAT     H123080   4.751   3.707   6.329
 7166WAT     H223081   4.734   3.560   6.361
 7167WAT      O23082   3.479   3.242   6.606
 7167WAT     H123083   3.406   3.180   6.599
 7167WAT     H223084   3.485   3.281   6.519
 7168WAT      O23085   3.840   3.463   6.284
 7168WAT     H123086   3.891   3.402   6.232
 7168WAT     H223087   3.905   3.513   6.333
 7169WAT      O23088   4.114   3.552   6.367
 7169WAT     H123089   4.142   3.527   6.279
 7169WAT     H223090   4.165   3.497   6.426
 7170WAT      O23091   4.235   1.926   6.425
 7170WAT     H123092   4.157   1.974   6.453
 7170WAT     H223093   4.206   1.836   6.414
 7171WAT      O23094   4.691   1.996   6.229
 7171WAT     H123095   4.735   1.991   6.144
 7171WAT     H223096   4.664   2.088   6.236
 7172WAT      O23097   4.877   1.959   6.030
 7172WAT     H123098   4.871   1.865   6.016
 7172WAT     H223099   4.955   1.970   6.085
 7173WAT      O23100   3.307   3.573   5.927
 7173WAT     H123101   3.291   3.510   5.996
 7173WAT     H223102   3.221   3.594   5.892
 7174WAT      O23103   3.370   1.957   5.677
 7174WAT     H123104   3.446   1.968   5.620
 7174WAT     H223105   3.323   2.040   5.672
 7175WAT      O23106   4.024   2.168   5.976
 7175WAT     H123107   3.943   2.131   5.942
 7175WAT     H223108   4.074   2.092   6.006
 7176WAT      O23109   4.474   1.834   6.100
 7176WAT     H123110   4.534   1.892   6.147
 7176WAT     H223111   4.400   1.891   6.077
 7177WAT      O23112   4.788   1.875   5.627
 7177WAT     H123113   4.808   1.964   5.654
 7177WAT     H223114   4.710   1.851   5.676
 7178WAT      O23115   3.468   3.443   5.671
 7178WAT     H123116   3.416   3.481   5.601
 7178WAT     H223117   3.461   3.505   5.743
 7179WAT      O23118   3.607   2.009   5.531
 7179WAT     H123119   3.660   1.931   5.518
 7179WAT     H223120   3.670   2.077   5.554
 7180WAT      O23121   3.826   1.983   5.836
 7180WAT     H123122   3.763   1.913   5.853
 7180WAT     H223123   3.772   2.059   5.815
 7181WAT      O23124   4.944   3.599   5.803
 7181WAT     H123125   4.961   3.530   5.739
 7181WAT     H223126   4.874   3.651   5.764
 7182WAT      O23127   3.728   3.638   5.559
 7182WAT     H123128   3.801   3.609   5.504
 7182WAT     H223129   3.754   3.614   5.648
 7183WAT      O23130   3.644   3.249   5.559
 7183WAT     H123131   3.581   3.296   5.614
 7183WAT     H223132   3.656   3.165   5.602
 7184WAT      O23133   4.390   2.654   4.174
 7184WAT     H123134   4.382   2.563   4.147
 7184WAT     H223135   4.348   2.704   4.103
 7185WAT      O23136   4.203   2.832   4.362
 7185WAT     H123137   4.125   2.784   4.391
 7185WAT     H223138   4.268   2.764   4.345
 7186WAT      O23139   4.605   3.273   4.240
 7186WAT     H123140   4.559   3.196   4.273
 7186WAT     H223141   4.686   3.275   4.291
 7187WAT      O23142   3.445   2.359   3.828
 7187WAT     H123143   3.357   2.393   3.818
 7187WAT     H223144   3.474   2.339   3.739
 7188WAT      O23145   4.228   3.501   4.202
 7188WAT     H123146   4.166   3.547   4.145
 7188WAT     H223147   4.313   3.517   4.162
 7189WAT      O23148   4.147   3.100   4.363
 7189WAT     H123149   4.140   3.006   4.347
 7189WAT     H223150   4.223   3.109   4.420
 7190WAT      O23151   3.366   2.160   4.595
 7190WAT     H123152   3.348   2.070   4.623
 7190WAT     H223153   3.326   2.215   4.663
 7191WAT      O23154   4.250   2.380   4.386
 7191WAT     H123155   4.288   2.293   4.374
 7191WAT     H223156   4.240   2.414   4.296
 7192WAT      O23157   3.663   2.218   3.932
 7192WAT     H123158   3.674   2.308   3.962
 7192WAT     H223159   3.572   2.213   3.903
 7193WAT      O23160   4.628   2.130   4.079
 7193WAT     H123161   4.710   2.081   4.083
 7193WAT     H223162   4.632   2.189   4.154
 7194WAT      O23163   3.428   2.410   4.456
 7194WAT     H123164   3.496   2.436   4.518
 7194WAT     H223165   3.396   2.326   4.490
 7195WAT      O23166   5.057   2.332   4.735
 7195WAT     H123167   4.987   2.370   4.683
 7195WAT     H223168   5.084   2.401   4.795
 7196WAT      O23169   3.675   1.978   4.792
 7196WAT     H123170   3.676   2.030   4.711
 7196WAT     H223171   3.592   1.931   4.789
 7197WAT      O23172   4.314   2.990   3.941
 7197WAT     H123173   4.252   3.036   3.885
 7197WAT     H223174   4.365   3.059   3.983
 7198WAT      O23175   4.652   2.324   4.356
 7198WAT     H123176   4.581   2.353   4.414
 7198WAT     H223177   4.688   2.405   4.320
 7199WAT      O23178   3.644   2.150   4.592
 7199WAT     H123179   3.678   2.234   4.563
 7199WAT     H223180   3.550   2.164   4.604
 7200WAT      O23181   3.722   3.139   4.791
 7200WAT     H123182   3.783   3.207   4.763
 7200WAT     H223183   3.636   3.180   4.782
 7201WAT      O23184   4.959   2.268   4.395
 7201WAT     H123185   4.864   2.272   4.408
 7201WAT     H223186   4.991   2.350   4.434
 7202WAT      O23187   4.012   1.898   4.225
 7202WAT     H123188   4.043   1.843   4.153
 7202WAT     H223189   3.919   1.912   4.206
 7203WAT      O23190   4.567   3.470   4.454
 7203WAT     H123191   4.568   3.430   4.367
 7203WAT     H223192   4.512   3.548   4.443
 7204WAT      O23193   4.507   2.960   4.587
 7204WAT     H123194   4.549   2.939   4.503
 7204WAT     H223195   4.579   2.986   4.644
 7205WAT      O23196   4.251   2.705   3.898
 7205WAT     H123197   4.158   2.698   3.921
 7205WAT     H223198   4.266   2.799   3.887
 7206WAT      O23199   4.249   2.332   3.598
 7206WAT     H123200   4.155   2.348   3.607
 7206WAT     H223201   4.281   2.404   3.543
 7207WAT      O23202   4.902   2.800   4.596
 7207WAT     H123203   4.819   2.807   4.548
 7207WAT     H223204   4.961   2.859   4.549
 7208WAT      O23205   4.654   2.861   3.949
 7208WAT     H123206   4.592   2.827   3.884
 7208WAT     H223207   4.652   2.797   4.019
 7209WAT      O23208   4.598   2.479   4.690
 7209WAT     H123209   4.557   2.561   4.716
 7209WAT     H223210   4.525   2.420   4.671
 7210WAT      O23211   3.683   2.435   4.555
 7210WAT     H123212   3.738   2.446   4.477
 7210WAT     H223213   3.734   2.472   4.626
 7211WAT      O23214   4.667   3.484   4.759
 7211WAT     H123215   4.619   3.564   4.740
 7211WAT     H223216   4.599   3.418   4.774
 7212WAT      O23217   3.767   3.100   5.058
 7212WAT     H123218   3.678   3.122   5.083
 7212WAT     H223219   3.770   3.112   4.963
 7213WAT      O23220   4.471   2.785   3.649
 7213WAT     H123221   4.515   2.701   3.635
 7213WAT     H223222   4.543   2.848   3.658
 7214WAT      O23223   3.650   2.787   4.916
 7214WAT     H123224   3.636   2.874   4.952
 7214WAT     H223225   3.562   2.753   4.901
 7215WAT      O23226   4.282   3.279   4.046
 7215WAT     H123227   4.326   3.353   4.005
 7215WAT     H223228   4.276   3.303   4.139
 7216WAT      O23229   3.830   3.381   5.136
 7216WAT     H123230   3.827   3.422   5.050
 7216WAT     H223231   3.813   3.288   5.120
 7217WAT      O23232   4.829   1.910   3.481
 7217WAT     H123233   4.798   1.920   3.571
 7217WAT     H223234   4.906   1.968   3.476
 7218WAT      O23235   5.025   3.460   5.266
 7218WAT     H123236   5.073   3.507   5.334
 7218WAT     H223237   5.087   3.453   5.194
 7219WAT      O23238   4.351   3.549   4.839
 7219WAT     H123239   4.403   3.540   4.919
 7219WAT     H223240   4.267   3.584   4.868
 7220WAT      O23241   4.549   3.578   3.782
 7220WAT     H123242   4.533   3.549   3.872
 7220WAT     H223243   4.532   3.500   3.728
 7221WAT      O23244   4.519   3.328   3.638
 7221WAT     H123245   4.450   3.328   3.572
 7221WAT     H223246   4.593   3.286   3.595
 7222WAT      O23247   4.476   3.491   4.045
 7222WAT     H123248   4.521   3.413   4.077
 7222WAT     H223249   4.510   3.562   4.100
 7223WAT      O23250   4.950   2.384   5.079
 7223WAT     H123251   4.889   2.435   5.026
 7223WAT     H223252   4.918   2.294   5.073
 7224WAT      O23253   3.728   1.981   4.265
 7224WAT     H123254   3.684   2.059   4.232
 7224WAT     H223255   3.784   2.014   4.336
 7225WAT      O23256   4.157   2.268   4.825
 7225WAT     H123257   4.110   2.289   4.906
 7225WAT     H223258   4.116   2.187   4.795
 7226WAT      O23259   4.657   2.390   4.938
 7226WAT     H123260   4.572   2.360   4.970
 7226WAT     H223261   4.641   2.415   4.847
 7227WAT      O23262   4.366   2.540   5.148
 7227WAT     H123263   4.399   2.457   5.114
 7227WAT     H223264   4.445   2.592   5.163
 7228WAT      O23265   4.040   1.943   3.753
 7228WAT     H123266   3.977   1.943   3.825
 7228WAT     H223267   4.031   1.857   3.713
 7229WAT      O23268   3.932   2.036   4.451
 7229WAT     H123269   3.961   2.126   4.443
 7229WAT     H223270   3.987   1.987   4.389
 7230WAT      O23271   3.707   2.494   4.038
 7230WAT     H123272   3.684   2.472   4.128
 7230WAT     H223273   3.629   2.537   4.003
 7231WAT      O23274   4.430   2.494   3.898
 7231WAT     H123275   4.370   2.567   3.879
 7231WAT     H223276   4.485   2.488   3.819
 7232WAT      O23277   3.951   2.584   5.104
 7232WAT     H123278   3.942   2.489   5.089
 7232WAT     H223279   4.035   2.606   5.065
 7233WAT      O23280   4.291   2.358   4.101
 7233WAT     H123281   4.330   2.390   4.019
 7233WAT     H223282   4.327   2.270   4.112
 7234WAT      O23283   3.464   2.225   4.920
 7234WAT     H123284   3.425   2.309   4.940
 7234WAT     H223285   3.395   2.161   4.939
 7235WAT      O23286   4.122   2.233   5.227
 7235WAT     H123287   4.053   2.214   5.290
 7235WAT     H223288   4.196   2.261   5.280
 7236WAT      O23289   3.194   2.017   4.323
 7236WAT     H123290   3.165   2.074   4.394
 7236WAT     H223291   3.269   1.969   4.359
 7237WAT      O23292   3.213   2.411   3.444
 7237WAT     H123293   3.205   2.505   3.458
 7237WAT     H223294   3.178   2.397   3.356
 7238WAT      O23295   4.349   2.617   4.510
 7238WAT     H123296   4.276   2.668   4.545
 7238WAT     H223297   4.310   2.535   4.480
 7239WAT      O23298   3.993   2.285   4.351
 7239WAT     H123299   3.993   2.240   4.266
 7239WAT     H223300   4.083   2.317   4.361
 7240WAT      O23301   3.578   2.273   4.247
 7240WAT     H123302   3.544   2.321   4.322
 7240WAT     H223303   3.502   2.227   4.211
 7241WAT      O23304   3.999   2.385   3.650
 7241WAT     H123305   4.011   2.381   3.745
 7241WAT     H223306   3.961   2.471   3.634
 7242WAT      O23307   4.396   2.162   4.451
 7242WAT     H123308   4.397   2.207   4.536
 7242WAT     H223309   4.371   2.072   4.473
 7243WAT      O23310   3.900   2.616   3.590
 7243WAT     H123311   3.844   2.571   3.527
 7243WAT     H223312   3.971   2.652   3.536
 7244WAT      O23313   4.738   1.904   5.035
 7244WAT     H123314   4.771   1.831   5.088
 7244WAT     H223315   4.742   1.872   4.945
 7245WAT      O23316   3.310   2.165   4.138
 7245WAT     H123317   3.281   2.129   4.222
 7245WAT     H223318   3.303   2.092   4.077
 7246WAT      O23319   3.802   2.595   4.757
 7246WAT     H123320   3.772   2.683   4.780
 7246WAT     H223321   3.898   2.601   4.761
 7247WAT      O23322   4.731   2.915   4.396
 7247WAT     H123323   4.803   2.964   4.357
 7247WAT     H223324   4.711   2.847   4.332
 7248WAT      O23325   4.277   2.054   3.810
 7248WAT     H123326   4.196   2.004   3.803
 7248WAT     H223327   4.258   2.138   3.769
 7249WAT      O23328   4.269   2.922   4.985
 7249WAT     H123329   4.262   2.830   4.959
 7249WAT     H223330   4.206   2.932   5.056
 7250WAT      O23331   4.548   2.491   3.640
 7250WAT     H123332   4.637   2.523   3.622
 7250WAT     H223333   4.545   2.404   3.601
 7251WAT      O23334   4.148   3.109   3.708
 7251WAT     H123335   4.182   3.183   3.658
 7251WAT     H223336   4.065   3.140   3.744
 7252WAT      O23337   3.728   2.724   5.160
 7252WAT     H123338   3.698   2.739   5.071
 7252WAT     H223339   3.805   2.669   5.151
 7253WAT      O23340   4.262   3.204   4.960
 7253WAT     H123341   4.264   3.111   4.938
 7253WAT     H223342   4.191   3.213   5.024
 7254WAT      O23343   4.776   2.623   3.587
 7254WAT     H123344   4.767   2.666   3.502
 7254WAT     H223345   4.847   2.669   3.630
 7255WAT      O23346   4.883   2.868   4.894
 7255WAT     H123347   4.811   2.928   4.875
 7255WAT     H223348   4.936   2.867   4.815
 7256WAT      O23349   4.436   3.041   4.244
 7256WAT     H123350   4.472   2.981   4.178
 7256WAT     H223351   4.348   3.008   4.261
 7257WAT      O23352   4.045   3.117   3.985
 7257WAT     H123353   4.114   3.172   4.023
 7257WAT     H223354   3.966   3.171   3.989
 7258WAT      O23355   3.259   2.679   3.534
 7258WAT     H123356   3.346   2.707   3.563
 7258WAT     H223357   3.210   2.760   3.523
 7259WAT      O23358   3.975   2.817   3.946
 7259WAT     H123359   4.021   2.898   3.969
 7259WAT     H223360   3.940   2.786   4.029
 7260WAT      O23361   4.205   3.368   4.669
 7260WAT     H123362   4.270   3.389   4.737
 7260WAT     H223363   4.242   3.292   4.624
 7261WAT      O23364   3.565   1.852   3.993
 7261WAT     H123365   3.552   1.851   4.088
 7261WAT     H223366   3.483   1.886   3.958
 7262WAT      O23367   4.333   3.169   4.541
 7262WAT     H123368   4.397   3.099   4.552
 7262WAT     H223369   4.385   3.247   4.523
 7263WAT      O23370   4.717   3.197   3.513
 7263WAT     H123371   4.695   3.125   3.573
 7263WAT     H223372   4.678   3.172   3.430
 7264WAT      O23373   4.510   3.249   4.861
 7264WAT     H123374   4.544   3.307   4.929
 7264WAT     H223375   4.418   3.236   4.884
 7265WAT      O23376   3.265   2.028   4.940
 7265WAT     H123377   3.194   2.048   5.000
 7265WAT     H223378   3.307   1.950   4.977
 7266WAT      O23379   3.294   3.426   5.038
 7266WAT     H123380   3.305   3.332   5.024
 7266WAT     H223381   3.229   3.453   4.973
 7267WAT      O23382   4.093   3.254   5.178
 7267WAT     H123383   4.061   3.182   5.233
 7267WAT     H223384   4.026   3.321   5.186
 7268WAT      O23385   4.415   2.277   4.715
 7268WAT     H123386   4.451   2.195   4.747
 7268WAT     H223387   4.329   2.283   4.756
 7269WAT      O23388   4.751   2.172   3.795
 7269WAT     H123389   4.688   2.183   3.724
 7269WAT     H223390   4.702   2.194   3.874
 7270WAT      O23391   4.196   3.344   3.539
 7270WAT     H123392   4.206   3.324   3.446
 7270WAT     H223393   4.106   3.319   3.559
 7271WAT      O23394   3.948   2.400   3.937
 7271WAT     H123395   3.877   2.447   3.981
 7271WAT     H223396   3.977   2.334   4.000
 7272WAT      O23397   4.111   2.542   4.737
 7272WAT     H123398   4.160   2.590   4.803
 7272WAT     H223399   4.125   2.450   4.758
 7273WAT      O23400   4.351   2.073   4.081
 7273WAT     H123401   4.339   2.075   3.986
 7273WAT     H223402   4.446   2.078   4.093
 7274WAT      O23403   4.060   3.596   4.008
 7274WAT     H123404   4.085   3.593   3.916
 7274WAT     H223405   3.965   3.584   4.008
 7275WAT      O23406   3.768   2.231   3.675
 7275WAT     H123407   3.853   2.275   3.668
 7275WAT     H223408   3.732   2.262   3.757
 7276WAT      O23409   4.831   2.164   4.821
 7276WAT     H123410   4.781   2.238   4.855
 7276WAT     H223411   4.913   2.203   4.790
 7277WAT      O23412   4.661   2.688   4.166
 7277WAT     H123413   4.566   2.690   4.183
 7277WAT     H223414   4.692   2.610   4.210
 7278WAT      O23415   3.528   2.600   3.590
 7278WAT     H123416   3.536   2.505   3.601
 7278WAT     H223417   3.617   2.633   3.601
 7279WAT      O23418   3.509   3.533   5.219
 7279WAT     H123419   3.589   3.565   5.261
 7279WAT     H223420   3.457   3.497   5.292
 7280WAT      O23421   3.919   3.532   3.483
 7280WAT     H123422   3.998   3.561   3.438
 7280WAT     H223423   3.867   3.489   3.415
 7281WAT      O23424   4.392   3.144   5.214
 7281WAT     H123425   4.332   3.146   5.140
 7281WAT     H223426   4.362   3.071   5.268
 7282WAT      O23427   4.535   3.517   5.075
 7282WAT     H123428   4.630   3.508   5.070
 7282WAT     H223429   4.520   3.583   5.143
 7283WAT      O23430   4.824   3.455   3.625
 7283WAT     H123431   4.796   3.413   3.544
 7283WAT     H223432   4.804   3.547   3.613
 7284WAT      O23433   3.281   2.782   5.114
 7284WAT     H123434   3.331   2.724   5.171
 7284WAT     H223435   3.207   2.810   5.168
 7285WAT      O23436   3.971   3.054   3.469
 7285WAT     H123437   3.960   2.992   3.542
 7285WAT     H223438   3.954   3.002   3.391
 7286WAT      O23439   3.986   2.923   5.067
 7286WAT     H123440   3.909   2.979   5.059
 7286WAT     H223441   4.004   2.893   4.978
 7287WAT      O23442   4.295   2.960   3.530
 7287WAT     H123443   4.240   3.005   3.594
 7287WAT     H223444   4.357   2.910   3.582
 7288WAT      O23445   4.700   3.096   5.123
 7288WAT     H123446   4.774   3.129   5.073
 7288WAT     H223447   4.624   3.112   5.068
 7289WAT      O23448   3.484   2.596   5.203
 7289WAT     H123449   3.488   2.566   5.294
 7289WAT     H223450   3.569   2.636   5.187
 7290WAT      O23451   3.862   2.856   3.719
 7290WAT     H123452   3.904   2.839   3.804
 7290WAT     H223453   3.874   2.775   3.670
 7291WAT      O23454   3.678   2.454   5.000
 7291WAT     H123455   3.625   2.405   4.937
 7291WAT     H223456   3.745   2.497   4.947
 7292WAT      O23457   4.113   2.758   3.444
 7292WAT     H123458   4.165   2.687   3.407
 7292WAT     H223459   4.177   2.822   3.474
 7293WAT      O23460   4.568   2.901   4.976
 7293WAT     H123461   4.609   2.916   5.061
 7293WAT     H223462   4.474   2.913   4.993
 7294WAT      O23463   4.615   2.635   5.177
 7294WAT     H123464   4.673   2.559   5.168
 7294WAT     H223465   4.632   2.688   5.099
 7295WAT      O23466   3.727   2.151   5.008
 7295WAT     H123467   3.717   2.089   4.936
 7295WAT     H223468   3.669   2.223   4.985
 7296WAT      O23469   4.003   2.006   4.711
 7296WAT     H123470   3.958   2.009   4.627
 7296WAT     H223471   3.940   1.967   4.771
 7297WAT      O23472   4.044   2.896   4.773
 7297WAT     H123473   4.086   2.980   4.756
 7297WAT     H223474   3.952   2.910   4.750
 7298WAT      O23475   4.277   2.669   4.912
 7298WAT     H123476   4.289   2.609   4.986
 7298WAT     H223477   4.363   2.673   4.870
 7299WAT      O23478   4.511   2.724   4.769
 7299WAT     H123479   4.459   2.777   4.709
 7299WAT     H223480   4.546   2.788   4.832
 7300WAT      O23481   3.751   2.463   3.414
 7300WAT     H123482   3.731   2.377   3.450
 7300WAT     H223483   3.734   2.455   3.320
 7301WAT      O23484   3.829   3.526   4.885
 7301WAT     H123485   3.775   3.599   4.853
 7301WAT     H223486   3.854   3.479   4.806
 7302WAT      O23487   3.954   2.323   5.038
 7302WAT     H123488   4.013   2.292   5.106
 7302WAT     H223489   3.872   2.276   5.053
 7303WAT      O23490   4.436   2.285   5.061
 7303WAT     H123491   4.367   2.219   5.054
 7303WAT     H223492   4.508   2.240   5.105
 7304WAT      O23493   4.499   1.944   3.667
 7304WAT     H123494   4.527   1.860   3.702
 7304WAT     H223495   4.422   1.968   3.718
 7305WAT      O23496   3.631   2.173   3.413
 7305WAT     H123497   3.661   2.174   3.322
 7305WAT     H223498   3.705   2.138   3.462
 7306WAT      O23499   4.114   3.650   4.911
 7306WAT     H123500   4.107   3.740   4.942
 7306WAT     H223501   4.024   3.618   4.908
 7307WAT      O23502   3.953   2.068   3.511
 7307WAT     H123503   3.918   2.000   3.453
 7307WAT     H223504   3.973   2.022   3.593
 7308WAT      O23505   4.169   3.567   3.673
 7308WAT     H123506   4.259   3.600   3.675
 7308WAT     H223507   4.172   3.494   3.610
 7309WAT      O23508   4.867   3.420   4.944
 7309WAT     H123509   4.807   3.426   4.869
 7309WAT     H223510   4.880   3.326   4.957
 7310WAT      O23511   4.736   3.092   4.754
 7310WAT     H123512   4.654   3.135   4.780
 7310WAT     H223513   4.776   3.153   4.692
 7311WAT      O23514   4.582   2.200   3.573
 7311WAT     H123515   4.624   2.181   3.489
 7311WAT     H223516   4.551   2.115   3.604
 7312WAT      O23517   4.871   2.606   4.906
 7312WAT     H123518   4.848   2.583   4.816
 7312WAT     H223519   4.897   2.698   4.902
 7313WAT      O23520   3.346   2.450   4.995
 7313WAT     H123521   3.256   2.447   5.029
 7313WAT     H223522   3.400   2.470   5.072
 7314WAT      O23523   4.715   2.129   5.184
 7314WAT     H123524   4.802   2.129   5.222
 7314WAT     H223525   4.716   2.055   5.123
 7315WAT      O23526   3.208   2.442   3.745
 7315WAT     H123527   3.118   2.468   3.728
 7315WAT     H223528   3.257   2.469   3.667
 7316WAT      O23529   4.859   2.514   4.273
 7316WAT     H123530   4.912   2.464   4.210
 7316WAT     H223531   4.918   2.527   4.347
 7317WAT      O23532   4.877   2.522   4.625
 7317WAT     H123533   4.782   2.519   4.637
 7317WAT     H223534   4.895   2.613   4.602
 7318WAT      O23535   3.463   2.347   3.536
 7318WAT     H123536   3.533   2.305   3.488
 7318WAT     H223537   3.391   2.354   3.473
 7319WAT      O23538   3.427   1.953   3.440
 7319WAT     H123539   3.500   2.007   3.472
 7319WAT     H223540   3.454   1.925   3.353
 7320WAT      O23541   3.396   1.878   4.430
 7320WAT     H123542   3.461   1.823   4.386
 7320WAT     H223543   3.438   1.903   4.512
 7321WAT      O23544   4.951   2.303   4.120
 7321WAT     H123545   4.940   2.288   4.214
 7321WAT     H223546   5.027   2.250   4.096
 7322WAT      O23547   4.786   1.897   4.766
 7322WAT     H123548   4.849   1.958   4.803
 7322WAT     H223549   4.800   1.901   4.672
 7323WAT      O23550   5.040   2.086   3.444
 7323WAT     H123551   5.132   2.073   3.423
 7323WAT     H223552   5.038   2.094   3.540
 7324WAT      O23553   3.371   1.893   4.705
 7324WAT     H123554   3.337   1.939   4.781
 7324WAT     H223555   3.338   1.804   4.713
 7325WAT      O23556   3.532   3.210   5.121
 7325WAT     H123557   3.528   3.173   5.209
 7325WAT     H223558   3.545   3.304   5.135
 7326WAT      O23559   3.902   3.366   4.681
 7326WAT     H123560   3.878   3.393   4.593
 7326WAT     H223561   3.996   3.383   4.687
 7327WAT      O23562   4.123   2.012   5.057
 7327WAT     H123563   4.117   2.072   5.132
 7327WAT     H223564   4.217   2.002   5.042
 7328WAT      O23565   4.386   1.978   5.021
 7328WAT     H123566   4.448   2.010   4.955
 7328WAT     H223567   4.441   1.930   5.083
 7329WAT      O23568   3.439   1.846   5.032
 7329WAT     H123569   3.494   1.828   4.956
 7329WAT     H223570   3.445   1.767   5.086
 7330WAT      O23571   3.516   3.505   4.833
 7330WAT     H123572   3.457   3.492   4.907
 7330WAT     H223573   3.515   3.421   4.787
 7331WAT      O23574   4.461   1.834   4.653
 7331WAT     H123575   4.373   1.868   4.633
 7331WAT     H223576   4.450   1.787   4.736
 7332WAT      O23577   4.551   2.055   4.792
 7332WAT     H123578   4.518   1.974   4.754
 7332WAT     H223579   4.646   2.051   4.779
 7333WAT      O23580   3.840   3.463   4.407
 7333WAT     H123581   3.891   3.402   4.354
 7333WAT     H223582   3.905   3.513   4.456
 7334WAT      O23583   4.114   3.552   4.489
 7334WAT     H123584   4.142   3.527   4.402
 7334WAT     H223585   4.165   3.497   4.548
 7335WAT      O23586   4.235   1.926   4.547
 7335WAT     H123587   4.157   1.974   4.575
 7335WAT     H223588   4.206   1.836   4.536
 7336WAT      O23589   4.691   1.996   4.352
 7336WAT     H123590   4.735   1.991   4.267
 7336WAT     H223591   4.664   2.088   4.359
 7337WAT      O23592   4.877   1.959   4.153
 7337WAT     H123593   4.871   1.865   4.138
 7337WAT     H223594   4.955   1.970   4.207
 7338WAT      O23595   3.370   1.957   3.799
 7338WAT     H123596   3.446   1.968   3.742
 7338WAT     H223597   3.323   2.040   3.795
 7339WAT      O23598   4.024   2.168   4.098
 7339WAT     H123599   3.943   2.131   4.064
 7339WAT     H223600   4.074   2.092   4.129
 7340WAT      O23601   4.474   1.834   4.222
 7340WAT     H123602   4.534   1.892   4.270
 7340WAT     H223603   4.400   1.891   4.200
 7341WAT      O23604   4.788   1.875   3.750
 7341WAT     H123605   4.808   1.964   3.776
 7341WAT     H223606   4.710   1.851   3.799
 7342WAT      O23607   3.607   2.009   3.653
 7342WAT     H123608   3.660   1.931   3.641
 7342WAT     H223609   3.670   2.077   3.677
 7343WAT      O23610   3.826   1.983   3.959
 7343WAT     H123611   3.763   1.913   3.976
 7343WAT     H223612   3.772   2.059   3.937
 7344WAT      O23613   4.120   3.644   5.226
 7344WAT     H123614   4.213   3.621   5.230
 7344WAT     H223615   4.119   3.727   5.178
 7345WAT      O23616   3.839   1.911   5.202
 7345WAT     H123617   3.811   1.961   5.126
 7345WAT     H223618   3.877   1.831   5.166
 7346WAT      O23619   4.499   1.852   5.260
 7346WAT     H123620   4.488   1.884   5.350
 7346WAT     H223621   4.581   1.892   5.231
 7347WAT      O23622   4.777   3.567   5.208
 7347WAT     H123623   4.856   3.518   5.188
 7347WAT     H223624   4.806   3.635   5.269
 7348WAT      O23625   4.390   2.654   2.297
 7348WAT     H123626   4.382   2.563   2.270
 7348WAT     H223627   4.348   2.704   2.226
 7349WAT      O23628   4.203   2.832   2.485
 7349WAT     H123629   4.125   2.784   2.514
 7349WAT     H223630   4.268   2.764   2.467
 7350WAT      O23631   3.604   2.863   2.572
 7350WAT     H123632   3.521   2.838   2.612
 7350WAT     H223633   3.665   2.870   2.646
 7351WAT      O23634   4.605   3.273   2.363
 7351WAT     H123635   4.559   3.196   2.396
 7351WAT     H223636   4.686   3.275   2.413
 7352WAT      O23637   3.602   3.267   2.592
 7352WAT     H123638   3.633   3.178   2.574
 7352WAT     H223639   3.677   3.322   2.569
 7353WAT      O23640   3.445   2.359   1.951
 7353WAT     H123641   3.357   2.393   1.941
 7353WAT     H223642   3.474   2.339   1.862
 7354WAT      O23643   3.242   2.619   2.539
 7354WAT     H123644   3.299   2.543   2.539
 7354WAT     H223645   3.242   2.649   2.448
 7355WAT      O23646   4.228   3.501   2.325
 7355WAT     H123647   4.166   3.547   2.268
 7355WAT     H223648   4.313   3.517   2.285
 7356WAT      O23649   4.147   3.100   2.485
 7356WAT     H123650   4.140   3.006   2.469
 7356WAT     H223651   4.223   3.109   2.543
 7357WAT      O23652   3.366   2.160   2.718
 7357WAT     H123653   3.348   2.070   2.746
 7357WAT     H223654   3.326   2.215   2.785
 7358WAT      O23655   4.250   2.380   2.508
 7358WAT     H123656   4.288   2.293   2.497
 7358WAT     H223657   4.240   2.414   2.419
 7359WAT      O23658   3.663   2.218   2.054
 7359WAT     H123659   3.674   2.308   2.085
 7359WAT     H223660   3.572   2.213   2.025
 7360WAT      O23661   4.628   2.130   2.201
 7360WAT     H123662   4.710   2.081   2.206
 7360WAT     H223663   4.632   2.189   2.277
 7361WAT      O23664   3.428   2.410   2.579
 7361WAT     H123665   3.496   2.436   2.641
 7361WAT     H223666   3.396   2.326   2.612
 7362WAT      O23667   3.847   2.514   2.488
 7362WAT     H123668   3.898   2.564   2.552
 7362WAT     H223669   3.900   2.437   2.470
 7363WAT      O23670   5.057   2.332   2.858
 7363WAT     H123671   4.987   2.370   2.806
 7363WAT     H223672   5.084   2.401   2.918
 7364WAT      O23673   3.675   1.978   2.914
 7364WAT     H123674   3.676   2.030   2.834
 7364WAT     H223675   3.592   1.931   2.912
 7365WAT      O23676   4.314   2.990   2.064
 7365WAT     H123677   4.252   3.036   2.008
 7365WAT     H223678   4.365   3.059   2.106
 7366WAT      O23679   3.800   2.942   2.732
 7366WAT     H123680   3.767   3.005   2.796
 7366WAT     H223681   3.818   2.995   2.654
 7367WAT      O23682   4.652   2.324   2.479
 7367WAT     H123683   4.581   2.353   2.537
 7367WAT     H223684   4.688   2.405   2.443
 7368WAT      O23685   3.644   2.150   2.715
 7368WAT     H123686   3.678   2.234   2.685
 7368WAT     H223687   3.550   2.164   2.727
 7369WAT      O23688   3.722   3.139   2.913
 7369WAT     H123689   3.783   3.207   2.885
 7369WAT     H223690   3.636   3.180   2.904
 7370WAT      O23691   3.251   3.058   1.801
 7370WAT     H123692   3.213   3.107   1.728
 7370WAT     H223693   3.277   3.125   1.865
 7371WAT      O23694   4.813   3.286   2.705
 7371WAT     H123695   4.745   3.353   2.704
 7371WAT     H223696   4.867   3.305   2.628
 7372WAT      O23697   4.959   2.268   2.518
 7372WAT     H123698   4.864   2.272   2.531
 7372WAT     H223699   4.991   2.350   2.556
 7373WAT      O23700   4.012   1.898   2.347
 7373WAT     H123701   4.043   1.843   2.276
 7373WAT     H223702   3.919   1.912   2.329
 7374WAT      O23703   4.567   3.470   2.576
 7374WAT     H123704   4.568   3.430   2.490
 7374WAT     H223705   4.512   3.548   2.566
 7375WAT      O23706   4.696   3.142   2.085
 7375WAT     H123707   4.685   3.048   2.098
 7375WAT     H223708   4.696   3.178   2.174
 7376WAT      O23709   4.507   2.960   2.709
 7376WAT     H123710   4.549   2.939   2.626
 7376WAT     H223711   4.579   2.986   2.766
 7377WAT      O23712   4.251   2.705   2.021
 7377WAT     H123713   4.158   2.698   2.044
 7377WAT     H223714   4.266   2.799   2.009
 7378WAT      O23715   4.249   2.332   1.721
 7378WAT     H123716   4.155   2.348   1.729
 7378WAT     H223717   4.281   2.404   1.666
 7379WAT      O23718   4.902   2.800   2.718
 7379WAT     H123719   4.819   2.807   2.671
 7379WAT     H223720   4.961   2.859   2.672
 7380WAT      O23721   4.654   2.861   2.071
 7380WAT     H123722   4.592   2.827   2.007
 7380WAT     H223723   4.652   2.797   2.142
 7381WAT      O23724   4.598   2.479   2.813
 7381WAT     H123725   4.557   2.561   2.838
 7381WAT     H223726   4.525   2.420   2.794
 7382WAT      O23727   3.811   2.758   2.299
 7382WAT     H123728   3.771   2.686   2.250
 7382WAT     H223729   3.820   2.723   2.388
 7383WAT      O23730   3.858   3.126   2.515
 7383WAT     H123731   3.828   3.066   2.448
 7383WAT     H223732   3.953   3.130   2.504
 7384WAT      O23733   3.683   2.435   2.677
 7384WAT     H123734   3.738   2.446   2.600
 7384WAT     H223735   3.734   2.472   2.749
 7385WAT      O23736   3.767   3.100   3.181
 7385WAT     H123737   3.678   3.122   3.205
 7385WAT     H223738   3.770   3.112   3.086
 7386WAT      O23739   4.471   2.785   1.772
 7386WAT     H123740   4.515   2.701   1.757
 7386WAT     H223741   4.543   2.848   1.781
 7387WAT      O23742   3.650   2.787   3.038
 7387WAT     H123743   3.636   2.874   3.075
 7387WAT     H223744   3.562   2.753   3.024
 7388WAT      O23745   4.282   3.279   2.169
 7388WAT     H123746   4.326   3.353   2.127
 7388WAT     H223747   4.276   3.303   2.261
 7389WAT      O23748   3.830   3.381   3.259
 7389WAT     H123749   3.827   3.422   3.172
 7389WAT     H223750   3.813   3.288   3.243
 7390WAT      O23751   4.829   1.910   1.603
 7390WAT     H123752   4.798   1.920   1.693
 7390WAT     H223753   4.906   1.968   1.598
 7391WAT      O23754   3.481   2.647   2.049
 7391WAT     H123755   3.469   2.720   1.988
 7391WAT     H223756   3.450   2.570   2.001
 7392WAT      O23757   3.245   2.964   2.630
 7392WAT     H123758   3.253   2.978   2.535
 7392WAT     H223759   3.307   2.893   2.649
 7393WAT      O23760   3.370   3.134   2.271
 7393WAT     H123761   3.329   3.148   2.185
 7393WAT     H223762   3.459   3.106   2.251
 7394WAT      O23763   4.351   3.549   2.962
 7394WAT     H123764   4.403   3.540   3.042
 7394WAT     H223765   4.267   3.584   2.991
 7395WAT      O23766   4.549   3.578   1.904
 7395WAT     H123767   4.533   3.549   1.994
 7395WAT     H223768   4.532   3.500   1.851
 7396WAT      O23769   3.797   3.556   2.082
 7396WAT     H123770   3.779   3.464   2.061
 7396WAT     H223771   3.711   3.591   2.106
 7397WAT      O23772   4.519   3.328   1.760
 7397WAT     H123773   4.450   3.328   1.694
 7397WAT     H223774   4.593   3.286   1.717
 7398WAT      O23775   4.476   3.491   2.168
 7398WAT     H123776   4.521   3.413   2.199
 7398WAT     H223777   4.510   3.562   2.222
 7399WAT      O23778   4.950   2.384   3.201
 7399WAT     H123779   4.889   2.435   3.148
 7399WAT     H223780   4.918   2.294   3.195
 7400WAT      O23781   3.251   3.068   2.884
 7400WAT     H123782   3.267   3.021   2.802
 7400WAT     H223783   3.297   3.017   2.950
 7401WAT      O23784   3.728   1.981   2.387
 7401WAT     H123785   3.684   2.059   2.354
 7401WAT     H223786   3.784   2.014   2.458
 7402WAT      O23787   4.157   2.268   2.948
 7402WAT     H123788   4.110   2.289   3.029
 7402WAT     H223789   4.116   2.187   2.917
 7403WAT      O23790   4.657   2.390   3.061
 7403WAT     H123791   4.572   2.360   3.093
 7403WAT     H223792   4.641   2.415   2.970
 7404WAT      O23793   4.366   2.540   3.271
 7404WAT     H123794   4.399   2.457   3.237
 7404WAT     H223795   4.445   2.592   3.285
 7405WAT      O23796   4.040   1.943   1.875
 7405WAT     H123797   3.977   1.943   1.948
 7405WAT     H223798   4.031   1.857   1.836
 7406WAT      O23799   3.932   2.036   2.573
 7406WAT     H123800   3.961   2.126   2.565
 7406WAT     H223801   3.987   1.987   2.512
 7407WAT      O23802   3.707   2.494   2.160
 7407WAT     H123803   3.684   2.472   2.251
 7407WAT     H223804   3.629   2.537   2.126
 7408WAT      O23805   4.430   2.494   2.020
 7408WAT     H123806   4.370   2.567   2.002
 7408WAT     H223807   4.485   2.488   1.942
 7409WAT      O23808   3.951   2.584   3.227
 7409WAT     H123809   3.942   2.489   3.212
 7409WAT     H223810   4.035   2.606   3.187
 7410WAT      O23811   4.291   2.358   2.223
 7410WAT     H123812   4.330   2.390   2.142
 7410WAT     H223813   4.327   2.270   2.235
 7411WAT      O23814   3.464   2.225   3.042
 7411WAT     H123815   3.425   2.309   3.063
 7411WAT     H223816   3.395   2.161   3.061
 7412WAT      O23817   4.122   2.233   3.349
 7412WAT     H123818   4.053   2.214   3.413
 7412WAT     H223819   4.196   2.261   3.402
 7413WAT      O23820   3.194   2.017   2.445
 7413WAT     H123821   3.165   2.074   2.517
 7413WAT     H223822   3.269   1.969   2.482
 7414WAT      O23823   3.213   2.411   1.566
 7414WAT     H123824   3.205   2.505   1.581
 7414WAT     H223825   3.178   2.397   1.479
 7415WAT      O23826   4.349   2.617   2.633
 7415WAT     H123827   4.276   2.668   2.668
 7415WAT     H223828   4.310   2.535   2.603
 7416WAT      O23829   3.993   2.285   2.473
 7416WAT     H123830   3.993   2.240   2.388
 7416WAT     H223831   4.083   2.317   2.484
 7417WAT      O23832   3.578   2.273   2.369
 7417WAT     H123833   3.544   2.321   2.445
 7417WAT     H223834   3.502   2.227   2.333
 7418WAT      O23835   3.999   2.385   1.772
 7418WAT     H123836   4.011   2.381   1.867
 7418WAT     H223837   3.961   2.471   1.757
 7419WAT      O23838   4.396   2.162   2.574
 7419WAT     H123839   4.397   2.207   2.658
 7419WAT     H223840   4.371   2.072   2.595
 7420WAT      O23841   3.900   2.616   1.712
 7420WAT     H123842   3.844   2.571   1.649
 7420WAT     H223843   3.971   2.652   1.659
 7421WAT      O23844   4.738   1.904   3.158
 7421WAT     H123845   4.771   1.831   3.210
 7421WAT     H223846   4.742   1.872   3.068
 7422WAT      O23847   3.408   3.006   3.100
 7422WAT     H123848   3.370   2.942   3.160
 7422WAT     H223849   3.439   3.076   3.157
 7423WAT      O23850   4.023   2.691   2.648
 7423WAT     H123851   4.060   2.643   2.722
 7423WAT     H223852   4.004   2.778   2.682
 7424WAT      O23853   3.310   2.165   2.261
 7424WAT     H123854   3.281   2.129   2.345
 7424WAT     H223855   3.303   2.092   2.199
 7425WAT      O23856   3.802   2.595   2.880
 7425WAT     H123857   3.772   2.683   2.902
 7425WAT     H223858   3.898   2.601   2.883
 7426WAT      O23859   3.655   3.015   1.939
 7426WAT     H123860   3.578   2.961   1.923
 7426WAT     H223861   3.728   2.963   1.906
 7427WAT      O23862   4.731   2.915   2.519
 7427WAT     H123863   4.803   2.964   2.480
 7427WAT     H223864   4.711   2.847   2.454
 7428WAT      O23865   4.277   2.054   1.933
 7428WAT     H123866   4.196   2.004   1.925
 7428WAT     H223867   4.258   2.138   1.891
 7429WAT      O23868   4.269   2.922   3.107
 7429WAT     H123869   4.262   2.830   3.082
 7429WAT     H223870   4.206   2.932   3.179
 7430WAT      O23871   4.548   2.491   1.763
 7430WAT     H123872   4.637   2.523   1.745
 7430WAT     H223873   4.545   2.404   1.723
 7431WAT      O23874   3.659   2.982   2.303
 7431WAT     H123875   3.711   2.902   2.298
 7431WAT     H223876   3.614   2.976   2.387
 7432WAT      O23877   4.148   3.109   1.830
 7432WAT     H123878   4.182   3.183   1.781
 7432WAT     H223879   4.065   3.140   1.867
 7433WAT      O23880   3.408   2.679   2.994
 7433WAT     H123881   3.372   2.745   3.053
 7433WAT     H223882   3.378   2.595   3.032
 7434WAT      O23883   3.728   2.724   3.283
 7434WAT     H123884   3.698   2.739   3.193
 7434WAT     H223885   3.805   2.669   3.274
 7435WAT      O23886   4.262   3.204   3.082
 7435WAT     H123887   4.264   3.111   3.061
 7435WAT     H223888   4.191   3.213   3.146
 7436WAT      O23889   4.776   2.623   1.709
 7436WAT     H123890   4.767   2.666   1.624
 7436WAT     H223891   4.847   2.669   1.753
 7437WAT      O23892   4.883   2.868   3.017
 7437WAT     H123893   4.811   2.928   2.997
 7437WAT     H223894   4.936   2.867   2.937
 7438WAT      O23895   4.878   3.308   1.982
 7438WAT     H123896   4.814   3.243   2.010
 7438WAT     H223897   4.840   3.349   1.905
 7439WAT      O23898   4.436   3.041   2.367
 7439WAT     H123899   4.472   2.981   2.301
 7439WAT     H223900   4.348   3.008   2.384
 7440WAT      O23901   4.045   3.117   2.108
 7440WAT     H123902   4.114   3.172   2.146
 7440WAT     H223903   3.966   3.171   2.111
 7441WAT      O23904   3.259   2.679   1.657
 7441WAT     H123905   3.346   2.707   1.685
 7441WAT     H223906   3.210   2.760   1.645
 7442WAT      O23907   3.975   2.817   2.069
 7442WAT     H123908   4.021   2.898   2.091
 7442WAT     H223909   3.940   2.786   2.152
 7443WAT      O23910   4.205   3.368   2.792
 7443WAT     H123911   4.270   3.389   2.859
 7443WAT     H223912   4.242   3.292   2.746
 7444WAT      O23913   3.565   1.852   2.116
 7444WAT     H123914   3.552   1.851   2.211
 7444WAT     H223915   3.483   1.886   2.081
 7445WAT      O23916   4.333   3.169   2.664
 7445WAT     H123917   4.397   3.099   2.675
 7445WAT     H223918   4.385   3.247   2.645
 7446WAT      O23919   4.717   3.197   1.636
 7446WAT     H123920   4.695   3.125   1.695
 7446WAT     H223921   4.678   3.172   1.552
 7447WAT      O23922   4.510   3.249   2.984
 7447WAT     H123923   4.544   3.307   3.052
 7447WAT     H223924   4.418   3.236   3.007
 7448WAT      O23925   3.296   3.600   1.713
 7448WAT     H123926   3.332   3.660   1.648
 7448WAT     H223927   3.281   3.654   1.791
 7449WAT      O23928   3.265   2.028   3.062
 7449WAT     H123929   3.194   2.048   3.123
 7449WAT     H223930   3.307   1.950   3.099
 7450WAT      O23931   4.676   2.989   1.802
 7450WAT     H123932   4.647   3.035   1.881
 7450WAT     H223933   4.755   2.943   1.829
 7451WAT      O23934   4.093   3.254   3.301
 7451WAT     H123935   4.061   3.182   3.355
 7451WAT     H223936   4.026   3.321   3.308
 7452WAT      O23937   3.897   3.338   1.795
 7452WAT     H123938   3.896   3.411   1.734
 7452WAT     H223939   3.805   3.313   1.804
 7453WAT      O23940   3.457   2.860   1.870
 7453WAT     H123941   3.397   2.934   1.871
 7453WAT     H223942   3.505   2.869   1.787
 7454WAT      O23943   4.415   2.277   2.837
 7454WAT     H123944   4.451   2.195   2.870
 7454WAT     H223945   4.329   2.283   2.879
 7455WAT      O23946   4.751   2.172   1.918
 7455WAT     H123947   4.688   2.183   1.847
 7455WAT     H223948   4.702   2.194   1.997
 7456WAT      O23949   4.196   3.344   1.661
 7456WAT     H123950   4.206   3.324   1.568
 7456WAT     H223951   4.106   3.319   1.682
 7457WAT      O23952   3.948   2.400   2.060
 7457WAT     H123953   3.877   2.447   2.104
 7457WAT     H223954   3.977   2.334   2.123
 7458WAT      O23955   4.111   2.542   2.860
 7458WAT     H123956   4.160   2.590   2.926
 7458WAT     H223957   4.125   2.450   2.880
 7459WAT      O23958   4.351   2.073   2.204
 7459WAT     H123959   4.339   2.075   2.109
 7459WAT     H223960   4.446   2.078   2.216
 7460WAT      O23961   4.060   3.596   2.131
 7460WAT     H123962   4.085   3.593   2.039
 7460WAT     H223963   3.965   3.584   2.130
 7461WAT      O23964   3.768   2.231   1.797
 7461WAT     H123965   3.853   2.275   1.790
 7461WAT     H223966   3.732   2.262   1.880
 7462WAT      O23967   4.831   2.164   2.944
 7462WAT     H123968   4.781   2.238   2.978
 7462WAT     H223969   4.913   2.203   2.912
 7463WAT      O23970   4.661   2.688   2.288
 7463WAT     H123971   4.566   2.690   2.306
 7463WAT     H223972   4.692   2.610   2.333
 7464WAT      O23973   3.658   2.856   1.644
 7464WAT     H123974   3.735   2.845   1.701
 7464WAT     H223975   3.666   2.787   1.579
 7465WAT      O23976   3.528   2.600   1.713
 7465WAT     H123977   3.536   2.505   1.724
 7465WAT     H223978   3.617   2.633   1.723
 7466WAT      O23979   4.861   3.405   2.456
 7466WAT     H123980   4.873   3.488   2.503
 7466WAT     H223981   4.947   3.384   2.421
 7467WAT      O23982   3.608   3.615   2.423
 7467WAT     H123983   3.682   3.560   2.450
 7467WAT     H223984   3.646   3.701   2.409
 7468WAT      O23985   3.296   3.221   2.011
 7468WAT     H123986   3.204   3.246   2.010
 7468WAT     H223987   3.343   3.304   1.998
 7469WAT      O23988   3.919   3.532   1.605
 7469WAT     H123989   3.998   3.561   1.560
 7469WAT     H223990   3.867   3.489   1.538
 7470WAT      O23991   4.392   3.144   3.337
 7470WAT     H123992   4.332   3.146   3.263
 7470WAT     H223993   4.362   3.071   3.390
 7471WAT      O23994   4.535   3.517   3.198
 7471WAT     H123995   4.630   3.508   3.193
 7471WAT     H223996   4.520   3.583   3.265
 7472WAT      O23997   4.824   3.455   1.748
 7472WAT     H123998   4.796   3.413   1.666
 7472WAT     H223999   4.804   3.547   1.736
 7473WAT      O24000   3.281   2.782   3.236
 7473WAT     H124001   3.331   2.724   3.294
 7473WAT     H224002   3.207   2.810   3.290
 7474WAT      O24003   3.971   3.054   1.592
 7474WAT     H124004   3.960   2.992   1.664
 7474WAT     H224005   3.954   3.002   1.513
 7475WAT      O24006   3.986   2.923   3.190
 7475WAT     H124007   3.909   2.979   3.181
 7475WAT     H224008   4.004   2.893   3.100
 7476WAT      O24009   4.295   2.960   1.652
 7476WAT     H124010   4.240   3.005   1.717
 7476WAT     H224011   4.357   2.910   1.705
 7477WAT      O24012   4.700   3.096   3.245
 7477WAT     H124013   4.774   3.129   3.195
 7477WAT     H224014   4.624   3.112   3.190
 7478WAT      O24015   3.484   2.596   3.326
 7478WAT     H124016   3.488   2.566   3.417
 7478WAT     H224017   3.569   2.636   3.310
 7479WAT      O24018   3.862   2.856   1.842
 7479WAT     H124019   3.904   2.839   1.926
 7479WAT     H224020   3.874   2.775   1.792
 7480WAT      O24021   3.678   2.454   3.123
 7480WAT     H124022   3.625   2.405   3.060
 7480WAT     H224023   3.745   2.497   3.069
 7481WAT      O24024   4.113   2.758   1.567
 7481WAT     H124025   4.165   2.687   1.530
 7481WAT     H224026   4.177   2.822   1.597
 7482WAT      O24027   4.568   2.901   3.099
 7482WAT     H124028   4.609   2.916   3.184
 7482WAT     H224029   4.474   2.913   3.115
 7483WAT      O24030   4.615   2.635   3.299
 7483WAT     H124031   4.673   2.559   3.291
 7483WAT     H224032   4.632   2.688   3.222
 7484WAT      O24033   3.727   2.151   3.131
 7484WAT     H124034   3.717   2.089   3.058
 7484WAT     H224035   3.669   2.223   3.108
 7485WAT      O24036   4.003   2.006   2.834
 7485WAT     H124037   3.958   2.009   2.749
 7485WAT     H224038   3.940   1.967   2.894
 7486WAT      O24039   4.044   2.896   2.896
 7486WAT     H124040   4.086   2.980   2.879
 7486WAT     H224041   3.952   2.910   2.873
 7487WAT      O24042   4.277   2.669   3.034
 7487WAT     H124043   4.289   2.609   3.108
 7487WAT     H224044   4.363   2.673   2.992
 7488WAT      O24045   4.511   2.724   2.892
 7488WAT     H124046   4.459   2.777   2.832
 7488WAT     H224047   4.546   2.788   2.955
 7489WAT      O24048   3.751   2.463   1.536
 7489WAT     H124049   3.731   2.377   1.573
 7489WAT     H224050   3.734   2.455   1.443
 7490WAT      O24051   3.829   3.526   3.008
 7490WAT     H124052   3.775   3.599   2.976
 7490WAT     H224053   3.854   3.479   2.929
 7491WAT      O24054   3.954   2.323   3.160
 7491WAT     H124055   4.013   2.292   3.229
 7491WAT     H224056   3.872   2.276   3.176
 7492WAT      O24057   4.436   2.285   3.183
 7492WAT     H124058   4.367   2.219   3.177
 7492WAT     H224059   4.508   2.240   3.228
 7493WAT      O24060   4.499   1.944   1.789
 7493WAT     H124061   4.527   1.860   1.825
 7493WAT     H224062   4.422   1.968   1.841
 7494WAT      O24063   3.631   2.173   1.535
 7494WAT     H124064   3.661   2.174   1.444
 7494WAT     H224065   3.705   2.138   1.585
 7495WAT      O24066   4.114   3.650   3.033
 7495WAT     H124067   4.107   3.740   3.064
 7495WAT     H224068   4.024   3.618   3.031
 7496WAT      O24069   3.953   2.068   1.634
 7496WAT     H124070   3.918   2.000   1.576
 7496WAT     H224071   3.973   2.022   1.715
 7497WAT      O24072   4.169   3.567   1.796
 7497WAT     H124073   4.259   3.600   1.798
 7497WAT     H224074   4.172   3.494   1.733
 7498WAT      O24075   3.533   3.104   1.619
 7498WAT     H124076   3.577   3.158   1.684
 7498WAT     H224077   3.582   3.021   1.619
 7499WAT      O24078   3.255   3.383   2.364
 7499WAT     H124079   3.288   3.296   2.341
 7499WAT     H224080   3.298   3.403   2.447
 7500WAT      O24081   3.714   3.216   2.130
 7500WAT     H124082   3.684   3.203   2.220
 7500WAT     H224083   3.704   3.130   2.089
 7501WAT      O24084   3.304   3.469   2.638
 7501WAT     H124085   3.260   3.487   2.721
 7501WAT     H224086   3.360   3.545   2.623
 7502WAT      O24087   4.991   3.194   1.600
 7502WAT     H124088   4.908   3.201   1.647
 7502WAT     H224089   5.009   3.283   1.570
 7503WAT      O24090   4.937   2.868   1.850
 7503WAT     H124091   5.013   2.925   1.861
 7503WAT     H224092   4.938   2.812   1.927
 7504WAT      O24093   3.287   2.721   2.273
 7504WAT     H124094   3.221   2.694   2.209
 7504WAT     H224095   3.371   2.710   2.228
 7505WAT      O24096   5.037   2.954   2.335
 7505WAT     H124097   5.075   2.875   2.294
 7505WAT     H224098   5.101   3.023   2.317
 7506WAT      O24099   4.736   3.092   2.876
 7506WAT     H124100   4.654   3.135   2.902
 7506WAT     H224101   4.776   3.153   2.815
 7507WAT      O24102   4.942   2.898   1.566
 7507WAT     H124103   4.969   2.988   1.553
 7507WAT     H224104   4.923   2.891   1.660
 7508WAT      O24105   4.582   2.200   1.696
 7508WAT     H124106   4.624   2.181   1.612
 7508WAT     H224107   4.551   2.115   1.727
 7509WAT      O24108   4.932   2.691   2.065
 7509WAT     H124109   4.894   2.615   2.022
 7509WAT     H224110   4.859   2.730   2.114
 7510WAT      O24111   3.391   2.759   2.727
 7510WAT     H124112   3.427   2.750   2.815
 7510WAT     H224113   3.334   2.683   2.718
 7511WAT      O24114   4.871   2.606   3.029
 7511WAT     H124115   4.848   2.583   2.939
 7511WAT     H224116   4.897   2.698   3.024
 7512WAT      O24117   3.346   2.450   3.118
 7512WAT     H124118   3.256   2.447   3.152
 7512WAT     H224119   3.400   2.470   3.195
 7513WAT      O24120   4.715   2.129   3.307
 7513WAT     H124121   4.802   2.129   3.345
 7513WAT     H224122   4.716   2.055   3.246
 7514WAT      O24123   3.208   2.442   1.868
 7514WAT     H124124   3.118   2.468   1.850
 7514WAT     H224125   3.257   2.469   1.790
 7515WAT      O24126   4.859   2.514   2.395
 7515WAT     H124127   4.912   2.464   2.332
 7515WAT     H224128   4.918   2.527   2.470
 7516WAT      O24129   4.877   2.522   2.748
 7516WAT     H124130   4.782   2.519   2.759
 7516WAT     H224131   4.895   2.613   2.724
 7517WAT      O24132   3.463   2.347   1.659
 7517WAT     H124133   3.533   2.305   1.610
 7517WAT     H224134   3.391   2.354   1.595
 7518WAT      O24135   3.427   1.953   1.563
 7518WAT     H124136   3.500   2.007   1.594
 7518WAT     H224137   3.454   1.925   1.475
 7519WAT      O24138   4.808   2.440   1.989
 7519WAT     H124139   4.858   2.416   2.068
 7519WAT     H224140   4.788   2.356   1.948
 7520WAT      O24141   3.396   1.878   2.553
 7520WAT     H124142   3.461   1.823   2.509
 7520WAT     H224143   3.438   1.903   2.635
 7521WAT      O24144   4.951   2.303   2.243
 7521WAT     H124145   4.940   2.288   2.337
 7521WAT     H224146   5.027   2.250   2.219
 7522WAT      O24147   4.786   1.897   2.889
 7522WAT     H124148   4.849   1.958   2.925
 7522WAT     H224149   4.800   1.901   2.794
 7523WAT      O24150   5.040   2.086   1.567
 7523WAT     H124151   5.132   2.073   1.546
 7523WAT     H224152   5.038   2.094   1.662
 7524WAT      O24153   5.047   2.163   1.829
 7524WAT     H124154   4.968   2.157   1.882
 7524WAT     H224155   5.068   2.257   1.828
 7525WAT      O24156   4.742   3.567   2.229
 7525WAT     H124157   4.801   3.535   2.161
 7525WAT     H224158   4.767   3.520   2.308
 7526WAT      O24159   3.371   1.893   2.827
 7526WAT     H124160   3.337   1.939   2.904
 7526WAT     H224161   3.338   1.804   2.835
 7527WAT      O24162   3.902   3.366   2.804
 7527WAT     H124163   3.878   3.393   2.715
 7527WAT     H224164   3.996   3.383   2.809
 7528WAT      O24165   4.123   2.012   3.179
 7528WAT     H124166   4.117   2.072   3.254
 7528WAT     H224167   4.217   2.002   3.165
 7529WAT      O24168   4.386   1.978   3.143
 7529WAT     H124169   4.448   2.010   3.077
 7529WAT     H224170   4.441   1.930   3.205
 7530WAT      O24171   3.439   1.846   3.155
 7530WAT     H124172   3.494   1.828   3.078
 7530WAT     H224173   3.445   1.767   3.208
 7531WAT      O24174   3.516   3.505   2.956
 7531WAT     H124175   3.457   3.492   3.030
 7531WAT     H224176   3.515   3.421   2.909
 7532WAT      O24177   4.461   1.834   2.776
 7532WAT     H124178   4.373   1.868   2.756
 7532WAT     H224179   4.450   1.787   2.858
 7533WAT      O24180   4.551   2.055   2.914
 7533WAT     H124181   4.518   1.974   2.876
 7533WAT     H224182   4.646   2.051   2.902
 7534WAT      O24183   4.797   3.632   2.612
 7534WAT     H124184   4.751   3.707   2.574
 7534WAT     H224185   4.734   3.560   2.606
 7535WAT      O24186   3.479   3.242   2.851
 7535WAT     H124187   3.406   3.180   2.844
 7535WAT     H224188   3.485   3.281   2.764
 7536WAT      O24189   3.840   3.463   2.529
 7536WAT     H124190   3.891   3.402   2.477
 7536WAT     H224191   3.905   3.513   2.578
 7537WAT      O24192   4.114   3.552   2.612
 7537WAT     H124193   4.142   3.527   2.524
 7537WAT     H224194   4.165   3.497   2.671
 7538WAT      O24195   4.235   1.926   2.670
 7538WAT     H124196   4.157   1.974   2.698
 7538WAT     H224197   4.206   1.836   2.659
 7539WAT      O24198   4.691   1.996   2.474
 7539WAT     H124199   4.735   1.991   2.390
 7539WAT     H224200   4.664   2.088   2.481
 7540WAT      O24201   4.877   1.959   2.275
 7540WAT     H124202   4.871   1.865   2.261
 7540WAT     H224203   4.955   1.970   2.330
 7541WAT      O24204   3.307   3.573   2.172
 7541WAT     H124205   3.291   3.510   2.242
 7541WAT     H224206   3.221   3.594   2.137
 7542WAT      O24207   3.370   1.957   1.922
 7542WAT     H124208   3.446   1.968   1.865
 7542WAT     H224209   3.323   2.040   1.917
 7543WAT      O24210   4.024   2.168   2.221
 7543WAT     H124211   3.943   2.131   2.187
 7543WAT     H224212   4.074   2.092   2.251
 7544WAT      O24213   4.474   1.834   2.345
 7544WAT     H124214   4.534   1.892   2.392
 7544WAT     H224215   4.400   1.891   2.323
 7545WAT      O24216   4.788   1.875   1.872
 7545WAT     H124217   4.808   1.964   1.899
 7545WAT     H224218   4.710   1.851   1.922
 7546WAT      O24219   3.468   3.443   1.916
 7546WAT     H124220   3.416   3.481   1.846
 7546WAT     H224221   3.461   3.505   1.988
 7547WAT      O24222   3.607   2.009   1.776
 7547WAT     H124223   3.660   1.931   1.763
 7547WAT     H224224   3.670   2.077   1.799
 7548WAT      O24225   3.826   1.983   2.081
 7548WAT     H124226   3.763   1.913   2.098
 7548WAT     H224227   3.772   2.059   2.060
 7549WAT      O24228   4.120   3.644   3.349
 7549WAT     H124229   4.213   3.621   3.353
 7549WAT     H224230   4.119   3.727   3.300
 7550WAT      O24231   4.944   3.599   2.048
 7550WAT     H124232   4.961   3.530   1.984
 7550WAT     H224233   4.874   3.651   2.009
 7551WAT      O24234   3.839   1.911   3.325
 7551WAT     H124235   3.811   1.961   3.249
 7551WAT     H224236   3.877   1.831   3.288
 7552WAT      O24237   3.728   3.638   1.804
 7552WAT     H124238   3.801   3.609   1.749
 7552WAT     H224239   3.754   3.614   1.893
 7553WAT      O24240   3.644   3.249   1.804
 7553WAT     H124241   3.581   3.296   1.859
 7553WAT     H224242   3.656   3.165   1.848
 7554WAT      O24243   4.499   1.852   3.383
 7554WAT     H124244   4.488   1.884   3.472
 7554WAT     H224245   4.581   1.892   3.353
 7555WAT      O24246   4.390   2.654   0.419
 7555WAT     H124247   4.382   2.563   0.392
 7555WAT     H224248   4.348   2.704   0.349
 7556WAT      O24249   4.203   2.832   0.607
 7556WAT     H124250   4.125   2.784   0.636
 7556WAT     H224251   4.268   2.764   0.590
 7557WAT      O24252   3.604   2.863   0.695
 7557WAT     H124253   3.521   2.838   0.735
 7557WAT     H224254   3.665   2.870   0.769
 7558WAT      O24255   4.605   3.273   0.485
 7558WAT     H124256   4.559   3.196   0.518
 7558WAT     H224257   4.686   3.275   0.536
 7559WAT      O24258   3.602   3.267   0.715
 7559WAT     H124259   3.633   3.178   0.697
 7559WAT     H224260   3.677   3.322   0.692
 7560WAT      O24261   3.242   2.619   0.662
 7560WAT     H124262   3.299   2.543   0.662
 7560WAT     H224263   3.242   2.649   0.571
 7561WAT      O24264   4.228   3.501   0.447
 7561WAT     H124265   4.166   3.547   0.390
 7561WAT     H224266   4.313   3.517   0.407
 7562WAT      O24267   4.147   3.100   0.608
 7562WAT     H124268   4.140   3.006   0.592
 7562WAT     H224269   4.223   3.109   0.665
 7563WAT      O24270   3.366   2.160   0.841
 7563WAT     H124271   3.348   2.070   0.869
 7563WAT     H224272   3.326   2.215   0.908
 7564WAT      O24273   4.250   2.380   0.631
 7564WAT     H124274   4.288   2.293   0.619
 7564WAT     H224275   4.240   2.414   0.542
 7565WAT      O24276   3.663   2.218   0.177
 7565WAT     H124277   3.674   2.308   0.208
 7565WAT     H224278   3.572   2.213   0.148
 7566WAT      O24279   4.628   2.130   0.324
 7566WAT     H124280   4.710   2.081   0.328
 7566WAT     H224281   4.632   2.189   0.399
 7567WAT      O24282   3.428   2.410   0.701
 7567WAT     H124283   3.496   2.436   0.763
 7567WAT     H224284   3.396   2.326   0.735
 7568WAT      O24285   3.847   2.514   0.610
 7568WAT     H124286   3.898   2.564   0.674
 7568WAT     H224287   3.900   2.437   0.592
 7569WAT      O24288   5.057   2.332   0.980
 7569WAT     H124289   4.987   2.370   0.929
 7569WAT     H224290   5.084   2.401   1.041
 7570WAT      O24291   3.675   1.978   1.037
 7570WAT     H124292   3.676   2.030   0.956
 7570WAT     H224293   3.592   1.931   1.034
 7571WAT      O24294   3.800   2.942   0.854
 7571WAT     H124295   3.767   3.005   0.919
 7571WAT     H224296   3.818   2.995   0.776
 7572WAT      O24297   4.652   2.324   0.601
 7572WAT     H124298   4.581   2.353   0.659
 7572WAT     H224299   4.688   2.405   0.565
 7573WAT      O24300   3.644   2.150   0.837
 7573WAT     H124301   3.678   2.234   0.808
 7573WAT     H224302   3.550   2.164   0.849
 7574WAT      O24303   3.722   3.139   1.036
 7574WAT     H124304   3.783   3.207   1.008
 7574WAT     H224305   3.636   3.180   1.027
 7575WAT      O24306   4.813   3.286   0.827
 7575WAT     H124307   4.745   3.353   0.827
 7575WAT     H224308   4.867   3.305   0.751
 7576WAT      O24309   4.959   2.268   0.640
 7576WAT     H124310   4.864   2.272   0.653
 7576WAT     H224311   4.991   2.350   0.679
 7577WAT      O24312   4.012   1.898   0.470
 7577WAT     H124313   4.043   1.843   0.398
 7577WAT     H224314   3.919   1.912   0.452
 7578WAT      O24315   4.567   3.470   0.699
 7578WAT     H124316   4.568   3.430   0.612
 7578WAT     H224317   4.512   3.548   0.689
 7579WAT      O24318   4.696   3.142   0.208
 7579WAT     H124319   4.685   3.048   0.220
 7579WAT     H224320   4.696   3.178   0.296
 7580WAT      O24321   4.507   2.960   0.832
 7580WAT     H124322   4.549   2.939   0.748
 7580WAT     H224323   4.579   2.986   0.889
 7581WAT      O24324   4.902   2.800   0.841
 7581WAT     H124325   4.819   2.807   0.793
 7581WAT     H224326   4.961   2.859   0.794
 7582WAT      O24327   4.598   2.479   0.935
 7582WAT     H124328   4.557   2.561   0.961
 7582WAT     H224329   4.525   2.420   0.916
 7583WAT      O24330   3.811   2.758   0.422
 7583WAT     H124331   3.771   2.686   0.372
 7583WAT     H224332   3.820   2.723   0.511
 7584WAT      O24333   3.858   3.126   0.638
 7584WAT     H124334   3.828   3.066   0.570
 7584WAT     H224335   3.953   3.130   0.627
 7585WAT      O24336   3.683   2.435   0.800
 7585WAT     H124337   3.738   2.446   0.722
 7585WAT     H224338   3.734   2.472   0.871
 7586WAT      O24339   4.667   3.484   1.004
 7586WAT     H124340   4.619   3.564   0.985
 7586WAT     H224341   4.599   3.418   1.020
 7587WAT      O24342   3.767   3.100   1.303
 7587WAT     H124343   3.678   3.122   1.328
 7587WAT     H224344   3.770   3.112   1.208
 7588WAT      O24345   3.650   2.787   1.161
 7588WAT     H124346   3.636   2.874   1.198
 7588WAT     H224347   3.562   2.753   1.146
 7589WAT      O24348   4.282   3.279   0.291
 7589WAT     H124349   4.326   3.353   0.250
 7589WAT     H224350   4.276   3.303   0.384
 7590WAT      O24351   3.830   3.381   1.382
 7590WAT     H124352   3.827   3.422   1.295
 7590WAT     H224353   3.813   3.288   1.365
 7591WAT      O24354   5.025   3.460   1.511
 7591WAT     H124355   5.073   3.507   1.579
 7591WAT     H224356   5.087   3.453   1.439
 7592WAT      O24357   3.245   2.964   0.752
 7592WAT     H124358   3.253   2.978   0.658
 7592WAT     H224359   3.307   2.893   0.772
 7593WAT      O24360   3.370   3.134   0.393
 7593WAT     H124361   3.329   3.148   0.308
 7593WAT     H224362   3.459   3.106   0.373
 7594WAT      O24363   4.965   3.179   1.227
 7594WAT     H124364   4.978   3.155   1.135
 7594WAT     H224365   4.969   3.096   1.274
 7595WAT      O24366   4.351   3.549   1.084
 7595WAT     H124367   4.403   3.540   1.164
 7595WAT     H224368   4.267   3.584   1.113
 7596WAT      O24369   3.797   3.556   0.205
 7596WAT     H124370   3.779   3.464   0.183
 7596WAT     H224371   3.711   3.591   0.229
 7597WAT      O24372   4.476   3.491   0.290
 7597WAT     H124373   4.521   3.413   0.322
 7597WAT     H224374   4.510   3.562   0.345
 7598WAT      O24375   4.950   2.384   1.324
 7598WAT     H124376   4.889   2.435   1.271
 7598WAT     H224377   4.918   2.294   1.318
 7599WAT      O24378   3.251   3.068   1.006
 7599WAT     H124379   3.267   3.021   0.925
 7599WAT     H224380   3.297   3.017   1.073
 7600WAT      O24381   3.728   1.981   0.510
 7600WAT     H124382   3.684   2.059   0.477
 7600WAT     H224383   3.784   2.014   0.581
 7601WAT      O24384   4.157   2.268   1.070
 7601WAT     H124385   4.110   2.289   1.152
 7601WAT     H224386   4.116   2.187   1.040
 7602WAT      O24387   4.657   2.390   1.183
 7602WAT     H124388   4.572   2.360   1.215
 7602WAT     H224389   4.641   2.415   1.092
 7603WAT      O24390   4.366   2.540   1.393
 7603WAT     H124391   4.399   2.457   1.359
 7603WAT     H224392   4.445   2.592   1.408
 7604WAT      O24393   3.932   2.036   0.696
 7604WAT     H124394   3.961   2.126   0.688
 7604WAT     H224395   3.987   1.987   0.634
 7605WAT      O24396   3.707   2.494   0.283
 7605WAT     H124397   3.684   2.472   0.373
 7605WAT     H224398   3.629   2.537   0.248
 7606WAT      O24399   3.951   2.584   1.349
 7606WAT     H124400   3.942   2.489   1.334
 7606WAT     H224401   4.035   2.606   1.310
 7607WAT      O24402   4.291   2.358   0.346
 7607WAT     H124403   4.330   2.390   0.264
 7607WAT     H224404   4.327   2.270   0.357
 7608WAT      O24405   3.464   2.225   1.165
 7608WAT     H124406   3.425   2.309   1.185
 7608WAT     H224407   3.395   2.161   1.184
 7609WAT      O24408   4.122   2.233   1.472
 7609WAT     H124409   4.053   2.214   1.535
 7609WAT     H224410   4.196   2.261   1.525
 7610WAT      O24411   3.194   2.017   0.568
 7610WAT     H124412   3.165   2.074   0.639
 7610WAT     H224413   3.269   1.969   0.604
 7611WAT      O24414   4.349   2.617   0.755
 7611WAT     H124415   4.276   2.668   0.790
 7611WAT     H224416   4.310   2.535   0.725
 7612WAT      O24417   3.993   2.285   0.596
 7612WAT     H124418   3.993   2.240   0.511
 7612WAT     H224419   4.083   2.317   0.606
 7613WAT      O24420   3.578   2.273   0.492
 7613WAT     H124421   3.544   2.321   0.567
 7613WAT     H224422   3.502   2.227   0.456
 7614WAT      O24423   4.396   2.162   0.696
 7614WAT     H124424   4.397   2.207   0.781
 7614WAT     H224425   4.371   2.072   0.718
 7615WAT      O24426   4.738   1.904   1.280
 7615WAT     H124427   4.771   1.831   1.333
 7615WAT     H224428   4.742   1.872   1.190
 7616WAT      O24429   3.408   3.006   1.222
 7616WAT     H124430   3.370   2.942   1.282
 7616WAT     H224431   3.439   3.076   1.279
 7617WAT      O24432   4.023   2.691   0.770
 7617WAT     H124433   4.060   2.643   0.845
 7617WAT     H224434   4.004   2.778   0.804
 7618WAT      O24435   3.310   2.165   0.383
 7618WAT     H124436   3.281   2.129   0.467
 7618WAT     H224437   3.303   2.092   0.322
 7619WAT      O24438   3.802   2.595   1.002
 7619WAT     H124439   3.772   2.683   1.025
 7619WAT     H224440   3.898   2.601   1.006
 7620WAT      O24441   4.731   2.915   0.641
 7620WAT     H124442   4.803   2.964   0.602
 7620WAT     H224443   4.711   2.847   0.577
 7621WAT      O24444   4.269   2.922   1.230
 7621WAT     H124445   4.262   2.830   1.204
 7621WAT     H224446   4.206   2.932   1.301
 7622WAT      O24447   3.659   2.982   0.426
 7622WAT     H124448   3.711   2.902   0.420
 7622WAT     H224449   3.614   2.976   0.510
 7623WAT      O24450   3.408   2.679   1.117
 7623WAT     H124451   3.372   2.745   1.176
 7623WAT     H224452   3.378   2.595   1.154
 7624WAT      O24453   3.728   2.724   1.405
 7624WAT     H124454   3.698   2.739   1.316
 7624WAT     H224455   3.805   2.669   1.396
 7625WAT      O24456   4.262   3.204   1.205
 7625WAT     H124457   4.264   3.111   1.183
 7625WAT     H224458   4.191   3.213   1.269
 7626WAT      O24459   4.883   2.868   1.140
 7626WAT     H124460   4.811   2.928   1.120
 7626WAT     H224461   4.936   2.867   1.060
 7627WAT      O24462   4.436   3.041   0.489
 7627WAT     H124463   4.472   2.981   0.423
 7627WAT     H224464   4.348   3.008   0.507
 7628WAT      O24465   4.045   3.117   0.230
 7628WAT     H124466   4.114   3.172   0.268
 7628WAT     H224467   3.966   3.171   0.234
 7629WAT      O24468   3.975   2.817   0.191
 7629WAT     H124469   4.021   2.898   0.214
 7629WAT     H224470   3.940   2.786   0.275
 7630WAT      O24471   4.205   3.368   0.914
 7630WAT     H124472   4.270   3.389   0.982
 7630WAT     H224473   4.242   3.292   0.869
 7631WAT      O24474   3.565   1.852   0.239
 7631WAT     H124475   3.552   1.851   0.333
 7631WAT     H224476   3.483   1.886   0.204
 7632WAT      O24477   4.333   3.169   0.786
 7632WAT     H124478   4.397   3.099   0.797
 7632WAT     H224479   4.385   3.247   0.768
 7633WAT      O24480   4.510   3.249   1.106
 7633WAT     H124481   4.544   3.307   1.174
 7633WAT     H224482   4.418   3.236   1.129
 7634WAT      O24483   3.265   2.028   1.185
 7634WAT     H124484   3.194   2.048   1.245
 7634WAT     H224485   3.307   1.950   1.222
 7635WAT      O24486   3.294   3.426   1.283
 7635WAT     H124487   3.305   3.332   1.269
 7635WAT     H224488   3.229   3.453   1.218
 7636WAT      O24489   4.093   3.254   1.423
 7636WAT     H124490   4.061   3.182   1.478
 7636WAT     H224491   4.026   3.321   1.431
 7637WAT      O24492   4.415   2.277   0.960
 7637WAT     H124493   4.451   2.195   0.992
 7637WAT     H224494   4.329   2.283   1.001
 7638WAT      O24495   3.948   2.400   0.182
 7638WAT     H124496   3.877   2.447   0.226
 7638WAT     H224497   3.977   2.334   0.246
 7639WAT      O24498   4.111   2.542   0.982
 7639WAT     H124499   4.160   2.590   1.049
 7639WAT     H224500   4.125   2.450   1.003
 7640WAT      O24501   4.351   2.073   0.326
 7640WAT     H124502   4.339   2.075   0.231
 7640WAT     H224503   4.446   2.078   0.338
 7641WAT      O24504   4.060   3.596   0.253
 7641WAT     H124505   4.085   3.593   0.161
 7641WAT     H224506   3.965   3.584   0.253
 7642WAT      O24507   4.831   2.164   1.066
 7642WAT     H124508   4.781   2.238   1.100
 7642WAT     H224509   4.913   2.203   1.035
 7643WAT      O24510   4.661   2.688   0.411
 7643WAT     H124511   4.566   2.690   0.428
 7643WAT     H224512   4.692   2.610   0.456
 7644WAT      O24513   4.861   3.405   0.579
 7644WAT     H124514   4.873   3.488   0.626
 7644WAT     H224515   4.947   3.384   0.544
 7645WAT      O24516   3.608   3.615   0.546
 7645WAT     H124517   3.682   3.560   0.573
 7645WAT     H224518   3.646   3.701   0.532
 7646WAT      O24519   3.509   3.533   1.465
 7646WAT     H124520   3.589   3.565   1.506
 7646WAT     H224521   3.457   3.497   1.537
 7647WAT      O24522   4.392   3.144   1.459
 7647WAT     H124523   4.332   3.146   1.385
 7647WAT     H224524   4.362   3.071   1.513
 7648WAT      O24525   4.535   3.517   1.320
 7648WAT     H124526   4.630   3.508   1.315
 7648WAT     H224527   4.520   3.583   1.388
 7649WAT      O24528   3.281   2.782   1.359
 7649WAT     H124529   3.331   2.724   1.416
 7649WAT     H224530   3.207   2.810   1.413
 7650WAT      O24531   3.986   2.923   1.312
 7650WAT     H124532   3.909   2.979   1.304
 7650WAT     H224533   4.004   2.893   1.223
 7651WAT      O24534   4.700   3.096   1.368
 7651WAT     H124535   4.774   3.129   1.318
 7651WAT     H224536   4.624   3.112   1.313
 7652WAT      O24537   3.484   2.596   1.448
 7652WAT     H124538   3.488   2.566   1.539
 7652WAT     H224539   3.569   2.636   1.432
 7653WAT      O24540   3.678   2.454   1.245
 7653WAT     H124541   3.625   2.405   1.182
 7653WAT     H224542   3.745   2.497   1.192
 7654WAT      O24543   4.568   2.901   1.222
 7654WAT     H124544   4.609   2.916   1.306
 7654WAT     H224545   4.474   2.913   1.238
 7655WAT      O24546   4.615   2.635   1.422
 7655WAT     H124547   4.673   2.559   1.413
 7655WAT     H224548   4.632   2.688   1.344
 7656WAT      O24549   3.727   2.151   1.253
 7656WAT     H124550   3.717   2.089   1.181
 7656WAT     H224551   3.669   2.223   1.230
 7657WAT      O24552   4.003   2.006   0.956
 7657WAT     H124553   3.958   2.009   0.872
 7657WAT     H224554   3.940   1.967   1.016
 7658WAT      O24555   4.044   2.896   1.019
 7658WAT     H124556   4.086   2.980   1.001
 7658WAT     H224557   3.952   2.910   0.996
 7659WAT      O24558   4.277   2.669   1.157
 7659WAT     H124559   4.289   2.609   1.231
 7659WAT     H224560   4.363   2.673   1.115
 7660WAT      O24561   4.511   2.724   1.015
 7660WAT     H124562   4.459   2.777   0.954
 7660WAT     H224563   4.546   2.788   1.078
 7661WAT      O24564   3.829   3.526   1.130
 7661WAT     H124565   3.775   3.599   1.098
 7661WAT     H224566   3.854   3.479   1.051
 7662WAT      O24567   3.954   2.323   1.283
 7662WAT     H124568   4.013   2.292   1.351
 7662WAT     H224569   3.872   2.276   1.298
 7663WAT      O24570   4.436   2.285   1.306
 7663WAT     H124571   4.367   2.219   1.299
 7663WAT     H224572   4.508   2.240   1.350
 7664WAT      O24573   4.114   3.650   1.156
 7664WAT     H124574   4.107   3.740   1.187
 7664WAT     H224575   4.024   3.618   1.153
 7665WAT      O24576   3.255   3.383   0.486
 7665WAT     H124577   3.288   3.296   0.463
 7665WAT     H224578   3.298   3.403   0.569
 7666WAT      O24579   3.714   3.216   0.252
 7666WAT     H124580   3.684   3.203   0.342
 7666WAT     H224581   3.704   3.130   0.211
 7667WAT      O24582   3.304   3.469   0.760
 7667WAT     H124583   3.260   3.487   0.843
 7667WAT     H224584   3.360   3.545   0.746
 7668WAT      O24585   4.867   3.420   1.189
 7668WAT     H124586   4.807   3.426   1.115
 7668WAT     H224587   4.880   3.326   1.202
 7669WAT      O24588   3.287   2.721   0.396
 7669WAT     H124589   3.221   2.694   0.332
 7669WAT     H224590   3.371   2.710   0.351
 7670WAT      O24591   5.037   2.954   0.457
 7670WAT     H124592   5.075   2.875   0.417
 7670WAT     H224593   5.101   3.023   0.440
 7671WAT      O24594   4.736   3.092   0.999
 7671WAT     H124595   4.654   3.135   1.025
 7671WAT     H224596   4.776   3.153   0.937
 7672WAT      O24597   4.932   2.691   0.188
 7672WAT     H124598   4.894   2.615   0.145
 7672WAT     H224599   4.859   2.730   0.237
 7673WAT      O24600   3.391   2.759   0.850
 7673WAT     H124601   3.427   2.750   0.938
 7673WAT     H224602   3.334   2.683   0.840
 7674WAT      O24603   4.871   2.606   1.151
 7674WAT     H124604   4.848   2.583   1.061
 7674WAT     H224605   4.897   2.698   1.147
 7675WAT      O24606   3.346   2.450   1.241
 7675WAT     H124607   3.256   2.447   1.275
 7675WAT     H224608   3.400   2.470   1.317
 7676WAT      O24609   4.715   2.129   1.429
 7676WAT     H124610   4.802   2.129   1.467
 7676WAT     H224611   4.716   2.055   1.368
 7677WAT      O24612   4.859   2.514   0.518
 7677WAT     H124613   4.912   2.464   0.455
 7677WAT     H224614   4.918   2.527   0.592
 7678WAT      O24615   4.877   2.522   0.870
 7678WAT     H124616   4.782   2.519   0.882
 7678WAT     H224617   4.895   2.613   0.847
 7679WAT      O24618   3.396   1.878   0.675
 7679WAT     H124619   3.461   1.823   0.631
 7679WAT     H224620   3.438   1.903   0.758
 7680WAT      O24621   4.951   2.303   0.365
 7680WAT     H124622   4.940   2.288   0.459
 7680WAT     H224623   5.027   2.250   0.341
 7681WAT      O24624   4.786   1.897   1.011
 7681WAT     H124625   4.849   1.958   1.048
 7681WAT     H224626   4.800   1.901   0.917
 7682WAT      O24627   4.742   3.567   0.351
 7682WAT     H124628   4.801   3.535   0.284
 7682WAT     H224629   4.767   3.520   0.430
 7683WAT      O24630   3.371   1.893   0.950
 7683WAT     H124631   3.337   1.939   1.026
 7683WAT     H224632   3.338   1.804   0.958
 7684WAT      O24633   3.532   3.210   1.366
 7684WAT     H124634   3.528   3.173   1.454
 7684WAT     H224635   3.545   3.304   1.380
 7685WAT      O24636   3.902   3.366   0.926
 7685WAT     H124637   3.878   3.393   0.838
 7685WAT     H224638   3.996   3.383   0.932
 7686WAT      O24639   4.123   2.012   1.302
 7686WAT     H124640   4.117   2.072   1.377
 7686WAT     H224641   4.217   2.002   1.287
 7687WAT      O24642   4.386   1.978   1.266
 7687WAT     H124643   4.448   2.010   1.200
 7687WAT     H224644   4.441   1.930   1.328
 7688WAT      O24645   5.028   3.568   1.006
 7688WAT     H124646   4.979   3.608   0.935
 7688WAT     H224647   4.967   3.506   1.046
 7689WAT      O24648   3.439   1.846   1.277
 7689WAT     H124649   3.494   1.828   1.201
 7689WAT     H224650   3.445   1.767   1.331
 7690WAT      O24651   3.516   3.505   1.078
 7690WAT     H124652   3.457   3.492   1.152
 7690WAT     H224653   3.515   3.421   1.032
 7691WAT      O24654   4.461   1.834   0.899
 7691WAT     H124655   4.373   1.868   0.878
 7691WAT     H224656   4.450   1.787   0.981
 7692WAT      O24657   4.551   2.055   1.037
 7692WAT     H124658   4.518   1.974   0.999
 7692WAT     H224659   4.646   2.051   1.025
 7693WAT      O24660   4.797   3.632   0.734
 7693WAT     H124661   4.751   3.707   0.697
 7693WAT     H224662   4.734   3.560   0.728
 7694WAT      O24663   3.479   3.242   0.973
 7694WAT     H124664   3.406   3.180   0.967
 7694WAT     H224665   3.485   3.281   0.886
 7695WAT      O24666   3.840   3.463   0.652
 7695WAT     H124667   3.891   3.402   0.599
 7695WAT     H224668   3.905   3.513   0.701
 7696WAT      O24669   4.114   3.552   0.734
 7696WAT     H124670   4.142   3.527   0.647
 7696WAT     H224671   4.165   3.497   0.794
 7697WAT      O24672   4.235   1.926   0.792
 7697WAT     H124673   4.157   1.974   0.820
 7697WAT     H224674   4.206   1.836   0.782
 7698WAT      O24675   4.691   1.996   0.597
 7698WAT     H124676   4.735   1.991   0.512
 7698WAT     H224677   4.664   2.088   0.604
 7699WAT      O24678   4.877   1.959   0.398
 7699WAT     H124679   4.871   1.865   0.383
 7699WAT     H224680   4.955   1.970   0.453
 7700WAT      O24681   3.307   3.573   0.294
 7700WAT     H124682   3.291   3.510   0.364
 7700WAT     H224683   3.221   3.594   0.259
 7701WAT      O24684   4.024   2.168   0.344
 7701WAT     H124685   3.943   2.131   0.310
 7701WAT     H224686   4.074   2.092   0.374
 7702WAT      O24687   4.474   1.834   0.467
 7702WAT     H124688   4.534   1.892   0.515
 7702WAT     H224689   4.400   1.891   0.445
 7703WAT      O24690   3.826   1.983   0.204
 7703WAT     H124691   3.763   1.913   0.221
 7703WAT     H224692   3.772   2.059   0.182
 7704WAT      O24693   4.120   3.644   1.471
 7704WAT     H124694   4.213   3.621   1.476
 7704WAT     H224695   4.119   3.727   1.423
 7705WAT      O24696   3.839   1.911   1.448
 7705WAT     H124697   3.811   1.961   1.371
 7705WAT     H224698   3.877   1.831   1.411
 7706WAT      O24699   4.499   1.852   1.505
 7706WAT     H124700   4.488   1.884   1.595
 7706WAT     H224701   4.581   1.892   1.476
 7707WAT      O24702   4.777   3.567   1.454
 7707WAT     H124703   4.856   3.518   1.433
 7707WAT     H224704   4.806   3.635   1.514
 7708WAT      O24705   4.390   0.777   6.051
 7708WAT     H124706   4.382   0.685   6.024
 7708WAT     H224707   4.348   0.827   5.981
 7709WAT      O24708   4.203   0.955   6.240
 7709WAT     H124709   4.125   0.907   6.269
 7709WAT     H224710   4.268   0.887   6.222
 7710WAT      O24711   3.604   0.986   6.327
 7710WAT     H124712   3.521   0.960   6.367
 7710WAT     H224713   3.665   0.993   6.401
 7711WAT      O24714   4.605   1.395   6.118
 7711WAT     H124715   4.559   1.318   6.150
 7711WAT     H224716   4.686   1.398   6.168
 7712WAT      O24717   3.602   1.389   6.347
 7712WAT     H124718   3.633   1.300   6.329
 7712WAT     H224719   3.677   1.445   6.324
 7713WAT      O24720   3.445   0.482   5.706
 7713WAT     H124721   3.357   0.516   5.696
 7713WAT     H224722   3.474   0.462   5.617
 7714WAT      O24723   3.242   0.742   6.294
 7714WAT     H124724   3.299   0.665   6.294
 7714WAT     H224725   3.242   0.772   6.203
 7715WAT      O24726   4.228   1.624   6.080
 7715WAT     H124727   4.166   1.669   6.023
 7715WAT     H224728   4.313   1.639   6.039
 7716WAT      O24729   4.147   1.222   6.240
 7716WAT     H124730   4.140   1.128   6.224
 7716WAT     H224731   4.223   1.231   6.297
 7717WAT      O24732   3.366   0.283   6.473
 7717WAT     H124733   3.348   0.193   6.501
 7717WAT     H224734   3.326   0.337   6.540
 7718WAT      O24735   4.250   0.503   6.263
 7718WAT     H124736   4.288   0.416   6.252
 7718WAT     H224737   4.240   0.537   6.174
 7719WAT      O24738   3.663   0.340   5.809
 7719WAT     H124739   3.674   0.430   5.840
 7719WAT     H224740   3.572   0.335   5.780
 7720WAT      O24741   4.628   0.252   5.956
 7720WAT     H124742   4.710   0.203   5.960
 7720WAT     H224743   4.632   0.311   6.032
 7721WAT      O24744   3.428   0.532   6.334
 7721WAT     H124745   3.496   0.559   6.396
 7721WAT     H224746   3.396   0.448   6.367
 7722WAT      O24747   3.847   0.637   6.242
 7722WAT     H124748   3.898   0.687   6.306
 7722WAT     H224749   3.900   0.559   6.225
 7723WAT      O24750   4.314   1.112   5.819
 7723WAT     H124751   4.252   1.159   5.763
 7723WAT     H224752   4.365   1.181   5.861
 7724WAT      O24753   3.800   1.065   6.487
 7724WAT     H124754   3.767   1.128   6.551
 7724WAT     H224755   3.818   1.118   6.409
 7725WAT      O24756   4.652   0.446   6.234
 7725WAT     H124757   4.581   0.475   6.292
 7725WAT     H224758   4.688   0.527   6.198
 7726WAT      O24759   3.644   0.272   6.470
 7726WAT     H124760   3.678   0.357   6.440
 7726WAT     H224761   3.550   0.287   6.481
 7727WAT      O24762   3.251   1.181   5.556
 7727WAT     H124763   3.213   1.230   5.483
 7727WAT     H224764   3.277   1.248   5.619
 7728WAT      O24765   4.813   1.408   6.460
 7728WAT     H124766   4.745   1.475   6.459
 7728WAT     H224767   4.867   1.428   6.383
 7729WAT      O24768   4.959   0.391   6.273
 7729WAT     H124769   4.864   0.394   6.286
 7729WAT     H224770   4.991   0.472   6.311
 7730WAT      O24771   4.567   1.593   6.331
 7730WAT     H124772   4.568   1.552   6.244
 7730WAT     H224773   4.512   1.670   6.321
 7731WAT      O24774   4.696   1.265   5.840
 7731WAT     H124775   4.685   1.171   5.853
 7731WAT     H224776   4.696   1.301   5.929
 7732WAT      O24777   4.507   1.083   6.464
 7732WAT     H124778   4.549   1.062   6.381
 7732WAT     H224779   4.579   1.109   6.521
 7733WAT      O24780   4.251   0.827   5.776
 7733WAT     H124781   4.158   0.821   5.799
 7733WAT     H224782   4.266   0.921   5.764
 7734WAT      O24783   4.249   0.455   5.475
 7734WAT     H124784   4.155   0.471   5.484
 7734WAT     H224785   4.281   0.526   5.421
 7735WAT      O24786   4.902   0.923   6.473
 7735WAT     H124787   4.819   0.930   6.426
 7735WAT     H224788   4.961   0.981   6.426
 7736WAT      O24789   4.654   0.984   5.826
 7736WAT     H124790   4.592   0.950   5.761
 7736WAT     H224791   4.652   0.919   5.897
 7737WAT      O24792   4.598   0.601   6.568
 7737WAT     H124793   4.557   0.684   6.593
 7737WAT     H224794   4.525   0.543   6.549
 7738WAT      O24795   3.811   0.880   6.054
 7738WAT     H124796   3.771   0.809   6.004
 7738WAT     H224797   3.820   0.846   6.143
 7739WAT      O24798   3.858   1.249   6.270
 7739WAT     H124799   3.828   1.188   6.202
 7739WAT     H224800   3.953   1.253   6.259
 7740WAT      O24801   3.683   0.558   6.432
 7740WAT     H124802   3.738   0.568   6.354
 7740WAT     H224803   3.734   0.595   6.504
 7741WAT      O24804   4.667   1.606   6.637
 7741WAT     H124805   4.619   1.687   6.617
 7741WAT     H224806   4.599   1.541   6.652
 7742WAT      O24807   4.471   0.908   5.527
 7742WAT     H124808   4.515   0.824   5.512
 7742WAT     H224809   4.543   0.971   5.535
 7743WAT      O24810   4.282   1.401   5.924
 7743WAT     H124811   4.326   1.476   5.882
 7743WAT     H224812   4.276   1.426   6.016
 7744WAT      O24813   3.481   0.770   5.804
 7744WAT     H124814   3.469   0.842   5.743
 7744WAT     H224815   3.450   0.693   5.756
 7745WAT      O24816   3.245   1.087   6.385
 7745WAT     H124817   3.253   1.100   6.290
 7745WAT     H224818   3.307   1.016   6.404
 7746WAT      O24819   3.370   1.257   6.026
 7746WAT     H124820   3.329   1.271   5.940
 7746WAT     H224821   3.459   1.228   6.005
 7747WAT      O24822   4.549   1.700   5.659
 7747WAT     H124823   4.533   1.671   5.749
 7747WAT     H224824   4.532   1.623   5.606
 7748WAT      O24825   3.797   1.678   5.837
 7748WAT     H124826   3.779   1.586   5.816
 7748WAT     H224827   3.711   1.714   5.861
 7749WAT      O24828   4.519   1.451   5.515
 7749WAT     H124829   4.450   1.451   5.449
 7749WAT     H224830   4.593   1.409   5.472
 7750WAT      O24831   4.476   1.614   5.923
 7750WAT     H124832   4.521   1.536   5.954
 7750WAT     H224833   4.510   1.685   5.977
 7751WAT      O24834   3.707   0.616   5.915
 7751WAT     H124835   3.684   0.595   6.006
 7751WAT     H224836   3.629   0.659   5.881
 7752WAT      O24837   4.430   0.617   5.775
 7752WAT     H124838   4.370   0.689   5.757
 7752WAT     H224839   4.485   0.611   5.697
 7753WAT      O24840   4.291   0.480   5.978
 7753WAT     H124841   4.330   0.512   5.897
 7753WAT     H224842   4.327   0.393   5.989
 7754WAT      O24843   3.213   0.534   5.321
 7754WAT     H124844   3.205   0.628   5.336
 7754WAT     H224845   3.178   0.519   5.233
 7755WAT      O24846   4.349   0.740   6.388
 7755WAT     H124847   4.276   0.790   6.422
 7755WAT     H224848   4.310   0.658   6.357
 7756WAT      O24849   3.993   0.407   6.228
 7756WAT     H124850   3.993   0.363   6.143
 7756WAT     H224851   4.083   0.439   6.239
 7757WAT      O24852   3.578   0.395   6.124
 7757WAT     H124853   3.544   0.443   6.200
 7757WAT     H224854   3.502   0.350   6.088
 7758WAT      O24855   3.999   0.507   5.527
 7758WAT     H124856   4.011   0.503   5.622
 7758WAT     H224857   3.961   0.593   5.512
 7759WAT      O24858   4.396   0.285   6.329
 7759WAT     H124859   4.397   0.330   6.413
 7759WAT     H224860   4.371   0.195   6.350
 7760WAT      O24861   3.900   0.738   5.467
 7760WAT     H124862   3.844   0.693   5.404
 7760WAT     H224863   3.971   0.774   5.414
 7761WAT      O24864   4.023   0.813   6.403
 7761WAT     H124865   4.060   0.766   6.477
 7761WAT     H224866   4.004   0.901   6.437
 7762WAT      O24867   3.310   0.288   6.016
 7762WAT     H124868   3.281   0.251   6.099
 7762WAT     H224869   3.303   0.214   5.954
 7763WAT      O24870   3.655   1.138   5.694
 7763WAT     H124871   3.578   1.084   5.678
 7763WAT     H224872   3.728   1.086   5.660
 7764WAT      O24873   4.731   1.037   6.273
 7764WAT     H124874   4.803   1.087   6.234
 7764WAT     H224875   4.711   0.970   6.209
 7765WAT      O24876   4.277   0.177   5.688
 7765WAT     H124877   4.196   0.127   5.680
 7765WAT     H224878   4.258   0.261   5.646
 7766WAT      O24879   4.548   0.614   5.517
 7766WAT     H124880   4.637   0.645   5.500
 7766WAT     H224881   4.545   0.527   5.478
 7767WAT      O24882   3.659   1.105   6.058
 7767WAT     H124883   3.711   1.024   6.053
 7767WAT     H224884   3.614   1.098   6.142
 7768WAT      O24885   4.148   1.231   5.585
 7768WAT     H124886   4.182   1.306   5.536
 7768WAT     H224887   4.065   1.263   5.622
 7769WAT      O24888   4.776   0.745   5.464
 7769WAT     H124889   4.767   0.788   5.379
 7769WAT     H224890   4.847   0.791   5.507
 7770WAT      O24891   4.878   1.431   5.737
 7770WAT     H124892   4.814   1.365   5.764
 7770WAT     H224893   4.840   1.471   5.659
 7771WAT      O24894   4.436   1.163   6.122
 7771WAT     H124895   4.472   1.104   6.056
 7771WAT     H224896   4.348   1.131   6.139
 7772WAT      O24897   4.045   1.239   5.862
 7772WAT     H124898   4.114   1.294   5.901
 7772WAT     H224899   3.966   1.294   5.866
 7773WAT      O24900   3.259   0.801   5.412
 7773WAT     H124901   3.346   0.829   5.440
 7773WAT     H224902   3.210   0.882   5.400
 7774WAT      O24903   3.975   0.940   5.824
 7774WAT     H124904   4.021   1.021   5.846
 7774WAT     H224905   3.940   0.908   5.907
 7775WAT      O24906   4.205   1.491   6.547
 7775WAT     H124907   4.270   1.512   6.614
 7775WAT     H224908   4.242   1.415   6.501
 7776WAT      O24909   4.333   1.291   6.418
 7776WAT     H124910   4.397   1.221   6.430
 7776WAT     H224911   4.385   1.369   6.400
 7777WAT      O24912   4.717   1.320   5.391
 7777WAT     H124913   4.695   1.248   5.450
 7777WAT     H224914   4.678   1.295   5.307
 7778WAT      O24915   3.296   1.722   5.468
 7778WAT     H124916   3.332   1.782   5.403
 7778WAT     H224917   3.281   1.777   5.546
 7779WAT      O24918   4.676   1.111   5.557
 7779WAT     H124919   4.647   1.158   5.636
 7779WAT     H224920   4.755   1.065   5.584
 7780WAT      O24921   3.897   1.461   5.550
 7780WAT     H124922   3.896   1.534   5.488
 7780WAT     H224923   3.805   1.436   5.559
 7781WAT      O24924   3.457   0.983   5.624
 7781WAT     H124925   3.397   1.057   5.625
 7781WAT     H224926   3.505   0.992   5.542
 7782WAT      O24927   4.415   0.399   6.592
 7782WAT     H124928   4.451   0.317   6.625
 7782WAT     H224929   4.329   0.405   6.634
 7783WAT      O24930   4.751   0.295   5.673
 7783WAT     H124931   4.688   0.305   5.601
 7783WAT     H224932   4.702   0.317   5.752
 7784WAT      O24933   4.196   1.467   5.416
 7784WAT     H124934   4.206   1.447   5.323
 7784WAT     H224935   4.106   1.442   5.437
 7785WAT      O24936   3.948   0.523   5.814
 7785WAT     H124937   3.877   0.570   5.859
 7785WAT     H224938   3.977   0.457   5.878
 7786WAT      O24939   4.351   0.195   5.958
 7786WAT     H124940   4.339   0.197   5.864
 7786WAT     H224941   4.446   0.200   5.970
 7787WAT      O24942   4.060   1.719   5.886
 7787WAT     H124943   4.085   1.715   5.793
 7787WAT     H224944   3.965   1.706   5.885
 7788WAT      O24945   3.768   0.354   5.552
 7788WAT     H124946   3.853   0.397   5.545
 7788WAT     H224947   3.732   0.385   5.635
 7789WAT      O24948   4.661   0.811   6.043
 7789WAT     H124949   4.566   0.812   6.061
 7789WAT     H224950   4.692   0.732   6.088
 7790WAT      O24951   3.658   0.979   5.399
 7790WAT     H124952   3.735   0.968   5.456
 7790WAT     H224953   3.666   0.909   5.334
 7791WAT      O24954   3.528   0.722   5.468
 7791WAT     H124955   3.536   0.627   5.479
 7791WAT     H224956   3.617   0.755   5.478
 7792WAT      O24957   4.861   1.528   6.211
 7792WAT     H124958   4.873   1.610   6.258
 7792WAT     H224959   4.947   1.507   6.176
 7793WAT      O24960   3.608   1.737   6.178
 7793WAT     H124961   3.682   1.682   6.205
 7793WAT     H224962   3.646   1.824   6.164
 7794WAT      O24963   3.296   1.344   5.765
 7794WAT     H124964   3.204   1.368   5.764
 7794WAT     H224965   3.343   1.427   5.753
 7795WAT      O24966   3.919   1.654   5.360
 7795WAT     H124967   3.998   1.683   5.315
 7795WAT     H224968   3.867   1.611   5.292
 7796WAT      O24969   4.824   1.577   5.503
 7796WAT     H124970   4.796   1.536   5.421
 7796WAT     H224971   4.804   1.670   5.491
 7797WAT      O24972   3.971   1.177   5.347
 7797WAT     H124973   3.960   1.115   5.419
 7797WAT     H224974   3.954   1.124   5.268
 7798WAT      O24975   4.295   1.083   5.407
 7798WAT     H124976   4.240   1.127   5.472
 7798WAT     H224977   4.357   1.032   5.459
 7799WAT      O24978   3.862   0.979   5.597
 7799WAT     H124979   3.904   0.962   5.681
 7799WAT     H224980   3.874   0.898   5.547
 7800WAT      O24981   4.113   0.881   5.322
 7800WAT     H124982   4.165   0.809   5.285
 7800WAT     H224983   4.177   0.945   5.352
 7801WAT      O24984   4.044   1.018   6.651
 7801WAT     H124985   4.086   1.103   6.634
 7801WAT     H224986   3.952   1.032   6.628
 7802WAT      O24987   3.751   0.586   5.291
 7802WAT     H124988   3.731   0.500   5.327
 7802WAT     H224989   3.734   0.577   5.198
 7803WAT      O24990   3.631   0.296   5.290
 7803WAT     H124991   3.661   0.297   5.199
 7803WAT     H224992   3.705   0.261   5.340
 7804WAT      O24993   4.169   1.689   5.551
 7804WAT     H124994   4.259   1.723   5.553
 7804WAT     H224995   4.172   1.617   5.488
 7805WAT      O24996   3.533   1.226   5.373
 7805WAT     H124997   3.577   1.281   5.439
 7805WAT     H224998   3.582   1.144   5.374
 7806WAT      O24999   3.255   1.505   6.119
 7806WAT     H125000   3.288   1.418   6.095
 7806WAT     H225001   3.298   1.526   6.202
 7807WAT      O25002   3.714   1.338   5.885
 7807WAT     H125003   3.684   1.326   5.975
 7807WAT     H225004   3.704   1.252   5.844
 7808WAT      O25005   3.304   1.592   6.392
 7808WAT     H125006   3.260   1.610   6.476
 7808WAT     H225007   3.360   1.668   6.378
 7809WAT      O25008   4.991   1.316   5.355
 7809WAT     H125009   4.908   1.323   5.402
 7809WAT     H225010   5.009   1.405   5.325
 7810WAT      O25011   4.937   0.991   5.605
 7810WAT     H125012   5.013   1.048   5.616
 7810WAT     H225013   4.938   0.934   5.682
 7811WAT      O25014   3.287   0.843   6.028
 7811WAT     H125015   3.221   0.816   5.964
 7811WAT     H225016   3.371   0.832   5.983
 7812WAT      O25017   5.037   1.076   6.090
 7812WAT     H125018   5.075   0.998   6.049
 7812WAT     H225019   5.101   1.145   6.072
 7813WAT      O25020   4.942   1.020   5.321
 7813WAT     H125021   4.969   1.111   5.308
 7813WAT     H225022   4.923   1.014   5.415
 7814WAT      O25023   4.582   0.323   5.450
 7814WAT     H125024   4.624   0.304   5.366
 7814WAT     H225025   4.551   0.237   5.482
 7815WAT      O25026   4.932   0.814   5.820
 7815WAT     H125027   4.894   0.737   5.777
 7815WAT     H225028   4.859   0.852   5.869
 7816WAT      O25029   3.391   0.882   6.482
 7816WAT     H125030   3.427   0.873   6.570
 7816WAT     H225031   3.334   0.805   6.472
 7817WAT      O25032   3.208   0.564   5.623
 7817WAT     H125033   3.118   0.590   5.605
 7817WAT     H225034   3.257   0.591   5.545
 7818WAT      O25035   4.859   0.636   6.150
 7818WAT     H125036   4.912   0.587   6.087
 7818WAT     H225037   4.918   0.650   6.225
 7819WAT      O25038   4.877   0.645   6.503
 7819WAT     H125039   4.782   0.641   6.514
 7819WAT     H225040   4.895   0.736   6.479
 7820WAT      O25041   3.463   0.470   5.414
 7820WAT     H125042   3.533   0.428   5.365
 7820WAT     H225043   3.391   0.477   5.350
 7821WAT      O25044   4.808   0.562   5.744
 7821WAT     H125045   4.858   0.539   5.823
 7821WAT     H225046   4.788   0.478   5.703
 7822WAT      O25047   4.951   0.426   5.998
 7822WAT     H125048   4.940   0.410   6.091
 7822WAT     H225049   5.027   0.373   5.973
 7823WAT      O25050   5.040   0.209   5.322
 7823WAT     H125051   5.132   0.196   5.301
 7823WAT     H225052   5.038   0.217   5.417
 7824WAT      O25053   5.047   0.286   5.584
 7824WAT     H125054   4.968   0.279   5.637
 7824WAT     H225055   5.068   0.379   5.583
 7825WAT      O25056   4.742   1.690   5.984
 7825WAT     H125057   4.801   1.658   5.916
 7825WAT     H225058   4.767   1.643   6.063
 7826WAT      O25059   3.902   1.489   6.559
 7826WAT     H125060   3.878   1.515   6.470
 7826WAT     H225061   3.996   1.506   6.564
 7827WAT      O25062   4.797   1.755   6.367
 7827WAT     H125063   4.751   1.830   6.329
 7827WAT     H225064   4.734   1.683   6.361
 7828WAT      O25065   3.479   1.364   6.606
 7828WAT     H125066   3.406   1.302   6.599
 7828WAT     H225067   3.485   1.404   6.519
 7829WAT      O25068   3.840   1.586   6.284
 7829WAT     H125069   3.891   1.525   6.232
 7829WAT     H225070   3.905   1.636   6.333
 7830WAT      O25071   4.114   1.675   6.367
 7830WAT     H125072   4.142   1.649   6.279
 7830WAT     H225073   4.165   1.620   6.426
 7831WAT      O25074   3.307   1.696   5.927
 7831WAT     H125075   3.291   1.633   5.996
 7831WAT     H225076   3.221   1.717   5.892
 7832WAT      O25077   4.024   0.291   5.976
 7832WAT     H125078   3.943   0.253   5.942
 7832WAT     H225079   4.074   0.215   6.006
 7833WAT      O25080   3.468   1.565   5.671
 7833WAT     H125081   3.416   1.603   5.601
 7833WAT     H225082   3.461   1.628   5.743
 7834WAT      O25083   4.944   1.721   5.803
 7834WAT     H125084   4.961   1.653   5.739
 7834WAT     H225085   4.874   1.774   5.764
 7835WAT      O25086   3.728   1.760   5.559
 7835WAT     H125087   3.801   1.732   5.504
 7835WAT     H225088   3.754   1.736   5.648
 7836WAT      O25089   3.644   1.372   5.559
 7836WAT     H125090   3.581   1.419   5.614
 7836WAT     H225091   3.656   1.287   5.602
 7837WAT      O25092   4.390   0.777   4.174
 7837WAT     H125093   4.382   0.685   4.147
 7837WAT     H225094   4.348   0.827   4.103
 7838WAT      O25095   4.203   0.955   4.362
 7838WAT     H125096   4.125   0.907   4.391
 7838WAT     H225097   4.268   0.887   4.345
 7839WAT      O25098   3.604   0.986   4.450
 7839WAT     H125099   3.521   0.960   4.490
 7839WAT     H225100   3.665   0.993   4.523
 7840WAT      O25101   4.605   1.395   4.240
 7840WAT     H125102   4.559   1.318   4.273
 7840WAT     H225103   4.686   1.398   4.291
 7841WAT      O25104   3.602   1.389   4.469
 7841WAT     H125105   3.633   1.300   4.452
 7841WAT     H225106   3.677   1.445   4.447
 7842WAT      O25107   3.445   0.482   3.828
 7842WAT     H125108   3.357   0.516   3.818
 7842WAT     H225109   3.474   0.462   3.739
 7843WAT      O25110   3.242   0.742   4.417
 7843WAT     H125111   3.299   0.665   4.417
 7843WAT     H225112   3.242   0.772   4.326
 7844WAT      O25113   4.228   1.624   4.202
 7844WAT     H125114   4.166   1.669   4.145
 7844WAT     H225115   4.313   1.639   4.162
 7845WAT      O25116   4.147   1.222   4.363
 7845WAT     H125117   4.140   1.128   4.347
 7845WAT     H225118   4.223   1.231   4.420
 7846WAT      O25119   3.366   0.283   4.595
 7846WAT     H125120   3.348   0.193   4.623
 7846WAT     H225121   3.326   0.337   4.663
 7847WAT      O25122   4.250   0.503   4.386
 7847WAT     H125123   4.288   0.416   4.374
 7847WAT     H225124   4.240   0.537   4.296
 7848WAT      O25125   3.663   0.340   3.932
 7848WAT     H125126   3.674   0.430   3.962
 7848WAT     H225127   3.572   0.335   3.903
 7849WAT      O25128   4.628   0.252   4.079
 7849WAT     H125129   4.710   0.203   4.083
 7849WAT     H225130   4.632   0.311   4.154
 7850WAT      O25131   3.428   0.532   4.456
 7850WAT     H125132   3.496   0.559   4.518
 7850WAT     H225133   3.396   0.448   4.490
 7851WAT      O25134   3.847   0.637   4.365
 7851WAT     H125135   3.898   0.687   4.429
 7851WAT     H225136   3.900   0.559   4.347
 7852WAT      O25137   5.057   0.454   4.735
 7852WAT     H125138   4.987   0.493   4.683
 7852WAT     H225139   5.084   0.524   4.795
 7853WAT      O25140   4.314   1.112   3.941
 7853WAT     H125141   4.252   1.159   3.885
 7853WAT     H225142   4.365   1.181   3.983
 7854WAT      O25143   3.800   1.065   4.609
 7854WAT     H125144   3.767   1.128   4.674
 7854WAT     H225145   3.818   1.118   4.531
 7855WAT      O25146   4.652   0.446   4.356
 7855WAT     H125147   4.581   0.475   4.414
 7855WAT     H225148   4.688   0.527   4.320
 7856WAT      O25149   3.644   0.272   4.592
 7856WAT     H125150   3.678   0.357   4.563
 7856WAT     H225151   3.550   0.287   4.604
 7857WAT      O25152   3.722   1.262   4.791
 7857WAT     H125153   3.783   1.329   4.763
 7857WAT     H225154   3.636   1.303   4.782
 7858WAT      O25155   3.251   1.181   3.679
 7858WAT     H125156   3.213   1.230   3.606
 7858WAT     H225157   3.277   1.248   3.742
 7859WAT      O25158   4.813   1.408   4.582
 7859WAT     H125159   4.745   1.475   4.582
 7859WAT     H225160   4.867   1.428   4.506
 7860WAT      O25161   4.959   0.391   4.395
 7860WAT     H125162   4.864   0.394   4.408
 7860WAT     H225163   4.991   0.472   4.434
 7861WAT      O25164   4.567   1.593   4.454
 7861WAT     H125165   4.568   1.552   4.367
 7861WAT     H225166   4.512   1.670   4.443
 7862WAT      O25167   4.696   1.265   3.963
 7862WAT     H125168   4.685   1.171   3.975
 7862WAT     H225169   4.696   1.301   4.051
 7863WAT      O25170   4.507   1.083   4.587
 7863WAT     H125171   4.549   1.062   4.503
 7863WAT     H225172   4.579   1.109   4.644
 7864WAT      O25173   4.251   0.827   3.898
 7864WAT     H125174   4.158   0.821   3.921
 7864WAT     H225175   4.266   0.921   3.887
 7865WAT      O25176   4.249   0.455   3.598
 7865WAT     H125177   4.155   0.471   3.607
 7865WAT     H225178   4.281   0.526   3.543
 7866WAT      O25179   4.902   0.923   4.596
 7866WAT     H125180   4.819   0.930   4.548
 7866WAT     H225181   4.961   0.981   4.549
 7867WAT      O25182   4.654   0.984   3.949
 7867WAT     H125183   4.592   0.950   3.884
 7867WAT     H225184   4.652   0.919   4.019
 7868WAT      O25185   4.598   0.601   4.690
 7868WAT     H125186   4.557   0.684   4.716
 7868WAT     H225187   4.525   0.543   4.671
 7869WAT      O25188   3.811   0.880   4.177
 7869WAT     H125189   3.771   0.809   4.127
 7869WAT     H225190   3.820   0.846   4.265
 7870WAT      O25191   3.858   1.249   4.393
 7870WAT     H125192   3.828   1.188   4.325
 7870WAT     H225193   3.953   1.253   4.382
 7871WAT      O25194   3.683   0.558   4.555
 7871WAT     H125195   3.738   0.568   4.477
 7871WAT     H225196   3.734   0.595   4.626
 7872WAT      O25197   4.667   1.606   4.759
 7872WAT     H125198   4.619   1.687   4.740
 7872WAT     H225199   4.599   1.541   4.774
 7873WAT      O25200   3.767   1.223   5.058
 7873WAT     H125201   3.678   1.245   5.083
 7873WAT     H225202   3.770   1.235   4.963
 7874WAT      O25203   4.471   0.908   3.649
 7874WAT     H125204   4.515   0.824   3.635
 7874WAT     H225205   4.543   0.971   3.658
 7875WAT      O25206   3.650   0.910   4.916
 7875WAT     H125207   3.636   0.997   4.952
 7875WAT     H225208   3.562   0.875   4.901
 7876WAT      O25209   4.282   1.401   4.046
 7876WAT     H125210   4.326   1.476   4.005
 7876WAT     H225211   4.276   1.426   4.139
 7877WAT      O25212   3.830   1.504   5.136
 7877WAT     H125213   3.827   1.544   5.050
 7877WAT     H225214   3.813   1.411   5.120
 7878WAT      O25215   3.481   0.770   3.927
 7878WAT     H125216   3.469   0.842   3.865
 7878WAT     H225217   3.450   0.693   3.879
 7879WAT      O25218   5.025   1.582   5.266
 7879WAT     H125219   5.073   1.630   5.334
 7879WAT     H225220   5.087   1.575   5.194
 7880WAT      O25221   3.245   1.087   4.507
 7880WAT     H125222   3.253   1.100   4.413
 7880WAT     H225223   3.307   1.016   4.527
 7881WAT      O25224   3.370   1.257   4.148
 7881WAT     H125225   3.329   1.271   4.063
 7881WAT     H225226   3.459   1.228   4.128
 7882WAT      O25227   4.965   1.301   4.982
 7882WAT     H125228   4.978   1.277   4.890
 7882WAT     H225229   4.969   1.218   5.029
 7883WAT      O25230   4.351   1.672   4.839
 7883WAT     H125231   4.403   1.663   4.919
 7883WAT     H225232   4.267   1.706   4.868
 7884WAT      O25233   4.549   1.700   3.782
 7884WAT     H125234   4.533   1.671   3.872
 7884WAT     H225235   4.532   1.623   3.728
 7885WAT      O25236   3.797   1.678   3.960
 7885WAT     H125237   3.779   1.586   3.938
 7885WAT     H225238   3.711   1.714   3.984
 7886WAT      O25239   4.519   1.451   3.638
 7886WAT     H125240   4.450   1.451   3.572
 7886WAT     H225241   4.593   1.409   3.595
 7887WAT      O25242   4.476   1.614   4.045
 7887WAT     H125243   4.521   1.536   4.077
 7887WAT     H225244   4.510   1.685   4.100
 7888WAT      O25245   4.950   0.507   5.079
 7888WAT     H125246   4.889   0.557   5.026
 7888WAT     H225247   4.918   0.417   5.073
 7889WAT      O25248   3.251   1.191   4.761
 7889WAT     H125249   3.267   1.144   4.679
 7889WAT     H225250   3.297   1.140   4.828
 7890WAT      O25251   4.157   0.391   4.825
 7890WAT     H125252   4.110   0.411   4.906
 7890WAT     H225253   4.116   0.309   4.795
 7891WAT      O25254   4.657   0.513   4.938
 7891WAT     H125255   4.572   0.483   4.970
 7891WAT     H225256   4.641   0.537   4.847
 7892WAT      O25257   4.366   0.663   5.148
 7892WAT     H125258   4.399   0.579   5.114
 7892WAT     H225259   4.445   0.715   5.163
 7893WAT      O25260   3.707   0.616   4.038
 7893WAT     H125261   3.684   0.595   4.128
 7893WAT     H225262   3.629   0.659   4.003
 7894WAT      O25263   4.430   0.617   3.898
 7894WAT     H125264   4.370   0.689   3.879
 7894WAT     H225265   4.485   0.611   3.819
 7895WAT      O25266   3.951   0.706   5.104
 7895WAT     H125267   3.942   0.612   5.089
 7895WAT     H225268   4.035   0.728   5.065
 7896WAT      O25269   4.291   0.480   4.101
 7896WAT     H125270   4.330   0.512   4.019
 7896WAT     H225271   4.327   0.393   4.112
 7897WAT      O25272   3.464   0.347   4.920
 7897WAT     H125273   3.425   0.432   4.940
 7897WAT     H225274   3.395   0.283   4.939
 7898WAT      O25275   4.122   0.356   5.227
 7898WAT     H125276   4.053   0.336   5.290
 7898WAT     H225277   4.196   0.384   5.280
 7899WAT      O25278   3.213   0.534   3.444
 7899WAT     H125279   3.205   0.628   3.458
 7899WAT     H225280   3.178   0.519   3.356
 7900WAT      O25281   4.349   0.740   4.510
 7900WAT     H125282   4.276   0.790   4.545
 7900WAT     H225283   4.310   0.658   4.480
 7901WAT      O25284   3.993   0.407   4.351
 7901WAT     H125285   3.993   0.363   4.266
 7901WAT     H225286   4.083   0.439   4.361
 7902WAT      O25287   3.578   0.395   4.247
 7902WAT     H125288   3.544   0.443   4.322
 7902WAT     H225289   3.502   0.350   4.211
 7903WAT      O25290   3.999   0.507   3.650
 7903WAT     H125291   4.011   0.503   3.745
 7903WAT     H225292   3.961   0.593   3.634
 7904WAT      O25293   4.396   0.285   4.451
 7904WAT     H125294   4.397   0.330   4.536
 7904WAT     H225295   4.371   0.195   4.473
 7905WAT      O25296   3.900   0.738   3.590
 7905WAT     H125297   3.844   0.693   3.527
 7905WAT     H225298   3.971   0.774   3.536
 7906WAT      O25299   3.408   1.128   4.977
 7906WAT     H125300   3.370   1.064   5.037
 7906WAT     H225301   3.439   1.199   5.034
 7907WAT      O25302   4.023   0.813   4.525
 7907WAT     H125303   4.060   0.766   4.600
 7907WAT     H225304   4.004   0.901   4.559
 7908WAT      O25305   3.310   0.288   4.138
 7908WAT     H125306   3.281   0.251   4.222
 7908WAT     H225307   3.303   0.214   4.077
 7909WAT      O25308   3.802   0.717   4.757
 7909WAT     H125309   3.772   0.805   4.780
 7909WAT     H225310   3.898   0.723   4.761
 7910WAT      O25311   3.655   1.138   3.817
 7910WAT     H125312   3.578   1.084   3.801
 7910WAT     H225313   3.728   1.086   3.783
 7911WAT      O25314   4.731   1.037   4.396
 7911WAT     H125315   4.803   1.087   4.357
 7911WAT     H225316   4.711   0.970   4.332
 7912WAT      O25317   4.277   0.177   3.810
 7912WAT     H125318   4.196   0.127   3.803
 7912WAT     H225319   4.258   0.261   3.769
 7913WAT      O25320   4.269   1.045   4.985
 7913WAT     H125321   4.262   0.952   4.959
 7913WAT     H225322   4.206   1.054   5.056
 7914WAT      O25323   4.548   0.614   3.640
 7914WAT     H125324   4.637   0.645   3.622
 7914WAT     H225325   4.545   0.527   3.601
 7915WAT      O25326   3.659   1.105   4.181
 7915WAT     H125327   3.711   1.024   4.175
 7915WAT     H225328   3.614   1.098   4.265
 7916WAT      O25329   4.148   1.231   3.708
 7916WAT     H125330   4.182   1.306   3.658
 7916WAT     H225331   4.065   1.263   3.744
 7917WAT      O25332   3.408   0.801   4.872
 7917WAT     H125333   3.372   0.868   4.931
 7917WAT     H225334   3.378   0.718   4.909
 7918WAT      O25335   3.728   0.847   5.160
 7918WAT     H125336   3.698   0.862   5.071
 7918WAT     H225337   3.805   0.791   5.151
 7919WAT      O25338   4.262   1.327   4.960
 7919WAT     H125339   4.264   1.234   4.938
 7919WAT     H225340   4.191   1.335   5.024
 7920WAT      O25341   4.776   0.745   3.587
 7920WAT     H125342   4.767   0.788   3.502
 7920WAT     H225343   4.847   0.791   3.630
 7921WAT      O25344   4.883   0.991   4.894
 7921WAT     H125345   4.811   1.050   4.875
 7921WAT     H225346   4.936   0.990   4.815
 7922WAT      O25347   4.878   1.431   3.860
 7922WAT     H125348   4.814   1.365   3.887
 7922WAT     H225349   4.840   1.471   3.782
 7923WAT      O25350   4.436   1.163   4.244
 7923WAT     H125351   4.472   1.104   4.178
 7923WAT     H225352   4.348   1.131   4.261
 7924WAT      O25353   4.045   1.239   3.985
 7924WAT     H125354   4.114   1.294   4.023
 7924WAT     H225355   3.966   1.294   3.989
 7925WAT      O25356   3.259   0.801   3.534
 7925WAT     H125357   3.346   0.829   3.563
 7925WAT     H225358   3.210   0.882   3.523
 7926WAT      O25359   3.975   0.940   3.946
 7926WAT     H125360   4.021   1.021   3.969
 7926WAT     H225361   3.940   0.908   4.029
 7927WAT      O25362   4.205   1.491   4.669
 7927WAT     H125363   4.270   1.512   4.737
 7927WAT     H225364   4.242   1.415   4.624
 7928WAT      O25365   4.333   1.291   4.541
 7928WAT     H125366   4.397   1.221   4.552
 7928WAT     H225367   4.385   1.369   4.523
 7929WAT      O25368   4.717   1.320   3.513
 7929WAT     H125369   4.695   1.248   3.573
 7929WAT     H225370   4.678   1.295   3.430
 7930WAT      O25371   4.510   1.371   4.861
 7930WAT     H125372   4.544   1.430   4.929
 7930WAT     H225373   4.418   1.358   4.884
 7931WAT      O25374   3.296   1.722   3.591
 7931WAT     H125375   3.332   1.782   3.525
 7931WAT     H225376   3.281   1.777   3.668
 7932WAT      O25377   4.676   1.111   3.679
 7932WAT     H125378   4.647   1.158   3.758
 7932WAT     H225379   4.755   1.065   3.706
 7933WAT      O25380   3.294   1.549   5.038
 7933WAT     H125381   3.305   1.455   5.024
 7933WAT     H225382   3.229   1.575   4.973
 7934WAT      O25383   4.093   1.376   5.178
 7934WAT     H125384   4.061   1.304   5.233
 7934WAT     H225385   4.026   1.444   5.186
 7935WAT      O25386   3.897   1.461   3.673
 7935WAT     H125387   3.896   1.534   3.611
 7935WAT     H225388   3.805   1.436   3.682
 7936WAT      O25389   3.457   0.983   3.747
 7936WAT     H125390   3.397   1.057   3.748
 7936WAT     H225391   3.505   0.992   3.664
 7937WAT      O25392   4.415   0.399   4.715
 7937WAT     H125393   4.451   0.317   4.747
 7937WAT     H225394   4.329   0.405   4.756
 7938WAT      O25395   4.751   0.295   3.795
 7938WAT     H125396   4.688   0.305   3.724
 7938WAT     H225397   4.702   0.317   3.874
 7939WAT      O25398   4.196   1.467   3.539
 7939WAT     H125399   4.206   1.447   3.446
 7939WAT     H225400   4.106   1.442   3.559
 7940WAT      O25401   3.948   0.523   3.937
 7940WAT     H125402   3.877   0.570   3.981
 7940WAT     H225403   3.977   0.457   4.000
 7941WAT      O25404   4.111   0.665   4.737
 7941WAT     H125405   4.160   0.712   4.803
 7941WAT     H225406   4.125   0.572   4.758
 7942WAT      O25407   4.351   0.195   4.081
 7942WAT     H125408   4.339   0.197   3.986
 7942WAT     H225409   4.446   0.200   4.093
 7943WAT      O25410   4.060   1.719   4.008
 7943WAT     H125411   4.085   1.715   3.916
 7943WAT     H225412   3.965   1.706   4.008
 7944WAT      O25413   3.768   0.354   3.675
 7944WAT     H125414   3.853   0.397   3.668
 7944WAT     H225415   3.732   0.385   3.757
 7945WAT      O25416   4.831   0.286   4.821
 7945WAT     H125417   4.781   0.360   4.855
 7945WAT     H225418   4.913   0.325   4.790
 7946WAT      O25419   4.661   0.811   4.166
 7946WAT     H125420   4.566   0.812   4.183
 7946WAT     H225421   4.692   0.732   4.210
 7947WAT      O25422   3.658   0.979   3.522
 7947WAT     H125423   3.735   0.968   3.578
 7947WAT     H225424   3.666   0.909   3.457
 7948WAT      O25425   3.528   0.722   3.590
 7948WAT     H125426   3.536   0.627   3.601
 7948WAT     H225427   3.617   0.755   3.601
 7949WAT      O25428   4.861   1.528   4.333
 7949WAT     H125429   4.873   1.610   4.381
 7949WAT     H225430   4.947   1.507   4.299
 7950WAT      O25431   3.608   1.737   4.301
 7950WAT     H125432   3.682   1.682   4.328
 7950WAT     H225433   3.646   1.824   4.287
 7951WAT      O25434   3.296   1.344   3.888
 7951WAT     H125435   3.204   1.368   3.887
 7951WAT     H225436   3.343   1.427   3.876
 7952WAT      O25437   3.509   1.656   5.219
 7952WAT     H125438   3.589   1.688   5.261
 7952WAT     H225439   3.457   1.620   5.292
 7953WAT      O25440   3.919   1.654   3.483
 7953WAT     H125441   3.998   1.683   3.438
 7953WAT     H225442   3.867   1.611   3.415
 7954WAT      O25443   4.392   1.266   5.214
 7954WAT     H125444   4.332   1.269   5.140
 7954WAT     H225445   4.362   1.193   5.268
 7955WAT      O25446   4.535   1.639   5.075
 7955WAT     H125447   4.630   1.631   5.070
 7955WAT     H225448   4.520   1.706   5.143
 7956WAT      O25449   4.824   1.577   3.625
 7956WAT     H125450   4.796   1.536   3.544
 7956WAT     H225451   4.804   1.670   3.613
 7957WAT      O25452   3.281   0.904   5.114
 7957WAT     H125453   3.331   0.846   5.171
 7957WAT     H225454   3.207   0.933   5.168
 7958WAT      O25455   3.971   1.177   3.469
 7958WAT     H125456   3.960   1.115   3.542
 7958WAT     H225457   3.954   1.124   3.391
 7959WAT      O25458   3.986   1.045   5.067
 7959WAT     H125459   3.909   1.102   5.059
 7959WAT     H225460   4.004   1.016   4.978
 7960WAT      O25461   4.295   1.083   3.530
 7960WAT     H125462   4.240   1.127   3.594
 7960WAT     H225463   4.357   1.032   3.582
 7961WAT      O25464   4.700   1.218   5.123
 7961WAT     H125465   4.774   1.252   5.073
 7961WAT     H225466   4.624   1.235   5.068
 7962WAT      O25467   3.484   0.719   5.203
 7962WAT     H125468   3.488   0.689   5.294
 7962WAT     H225469   3.569   0.759   5.187
 7963WAT      O25470   3.862   0.979   3.719
 7963WAT     H125471   3.904   0.962   3.804
 7963WAT     H225472   3.874   0.898   3.670
 7964WAT      O25473   3.678   0.577   5.000
 7964WAT     H125474   3.625   0.527   4.937
 7964WAT     H225475   3.745   0.619   4.947
 7965WAT      O25476   4.113   0.881   3.444
 7965WAT     H125477   4.165   0.809   3.407
 7965WAT     H225478   4.177   0.945   3.474
 7966WAT      O25479   4.568   1.023   4.976
 7966WAT     H125480   4.609   1.039   5.061
 7966WAT     H225481   4.474   1.036   4.993
 7967WAT      O25482   4.615   0.757   5.177
 7967WAT     H125483   4.673   0.682   5.168
 7967WAT     H225484   4.632   0.810   5.099
 7968WAT      O25485   3.727   0.273   5.008
 7968WAT     H125486   3.717   0.211   4.936
 7968WAT     H225487   3.669   0.346   4.985
 7969WAT      O25488   4.044   1.018   4.773
 7969WAT     H125489   4.086   1.103   4.756
 7969WAT     H225490   3.952   1.032   4.750
 7970WAT      O25491   4.277   0.792   4.912
 7970WAT     H125492   4.289   0.732   4.986
 7970WAT     H225493   4.363   0.795   4.870
 7971WAT      O25494   4.511   0.847   4.769
 7971WAT     H125495   4.459   0.899   4.709
 7971WAT     H225496   4.546   0.910   4.832
 7972WAT      O25497   3.751   0.586   3.414
 7972WAT     H125498   3.731   0.500   3.450
 7972WAT     H225499   3.734   0.577   3.320
 7973WAT      O25500   3.829   1.649   4.885
 7973WAT     H125501   3.775   1.721   4.853
 7973WAT     H225502   3.854   1.601   4.806
 7974WAT      O25503   3.954   0.446   5.038
 7974WAT     H125504   4.013   0.415   5.106
 7974WAT     H225505   3.872   0.399   5.053
 7975WAT      O25506   4.436   0.408   5.061
 7975WAT     H125507   4.367   0.341   5.054
 7975WAT     H225508   4.508   0.363   5.105
 7976WAT      O25509   3.631   0.296   3.413
 7976WAT     H125510   3.661   0.297   3.322
 7976WAT     H225511   3.705   0.261   3.462
 7977WAT      O25512   4.114   1.773   4.911
 7977WAT     H125513   4.107   1.863   4.942
 7977WAT     H225514   4.024   1.741   4.908
 7978WAT      O25515   4.169   1.689   3.673
 7978WAT     H125516   4.259   1.723   3.675
 7978WAT     H225517   4.172   1.617   3.610
 7979WAT      O25518   3.533   1.226   3.496
 7979WAT     H125519   3.577   1.281   3.562
 7979WAT     H225520   3.582   1.144   3.497
 7980WAT      O25521   3.255   1.505   4.241
 7980WAT     H125522   3.288   1.418   4.218
 7980WAT     H225523   3.298   1.526   4.324
 7981WAT      O25524   3.714   1.338   4.007
 7981WAT     H125525   3.684   1.326   4.097
 7981WAT     H225526   3.704   1.252   3.966
 7982WAT      O25527   3.304   1.592   4.515
 7982WAT     H125528   3.260   1.610   4.598
 7982WAT     H225529   3.360   1.668   4.501
 7983WAT      O25530   4.867   1.542   4.944
 7983WAT     H125531   4.807   1.548   4.869
 7983WAT     H225532   4.880   1.448   4.957
 7984WAT      O25533   4.991   1.316   3.477
 7984WAT     H125534   4.908   1.323   3.525
 7984WAT     H225535   5.009   1.405   3.447
 7985WAT      O25536   4.937   0.991   3.728
 7985WAT     H125537   5.013   1.048   3.738
 7985WAT     H225538   4.938   0.934   3.805
 7986WAT      O25539   3.287   0.843   4.151
 7986WAT     H125540   3.221   0.816   4.086
 7986WAT     H225541   3.371   0.832   4.106
 7987WAT      O25542   5.037   1.076   4.212
 7987WAT     H125543   5.075   0.998   4.172
 7987WAT     H225544   5.101   1.145   4.194
 7988WAT      O25545   4.736   1.215   4.754
 7988WAT     H125546   4.654   1.258   4.780
 7988WAT     H225547   4.776   1.276   4.692
 7989WAT      O25548   4.942   1.020   3.444
 7989WAT     H125549   4.969   1.111   3.431
 7989WAT     H225550   4.923   1.014   3.537
 7990WAT      O25551   4.582   0.323   3.573
 7990WAT     H125552   4.624   0.304   3.489
 7990WAT     H225553   4.551   0.237   3.604
 7991WAT      O25554   4.932   0.814   3.943
 7991WAT     H125555   4.894   0.737   3.900
 7991WAT     H225556   4.859   0.852   3.992
 7992WAT      O25557   3.391   0.882   4.605
 7992WAT     H125558   3.427   0.873   4.693
 7992WAT     H225559   3.334   0.805   4.595
 7993WAT      O25560   4.871   0.729   4.906
 7993WAT     H125561   4.848   0.706   4.816
 7993WAT     H225562   4.897   0.821   4.902
 7994WAT      O25563   3.346   0.573   4.995
 7994WAT     H125564   3.256   0.569   5.029
 7994WAT     H225565   3.400   0.593   5.072
 7995WAT      O25566   4.715   0.251   5.184
 7995WAT     H125567   4.802   0.252   5.222
 7995WAT     H225568   4.716   0.177   5.123
 7996WAT      O25569   3.208   0.564   3.745
 7996WAT     H125570   3.118   0.590   3.728
 7996WAT     H225571   3.257   0.591   3.667
 7997WAT      O25572   4.859   0.636   4.273
 7997WAT     H125573   4.912   0.587   4.210
 7997WAT     H225574   4.918   0.650   4.347
 7998WAT      O25575   4.877   0.645   4.625
 7998WAT     H125576   4.782   0.641   4.637
 7998WAT     H225577   4.895   0.736   4.602
 7999WAT      O25578   3.463   0.470   3.536
 7999WAT     H125579   3.533   0.428   3.488
 7999WAT     H225580   3.391   0.477   3.473
 8000WAT      O25581   4.808   0.562   3.867
 8000WAT     H125582   4.858   0.539   3.945
 8000WAT     H225583   4.788   0.478   3.825
 8001WAT      O25584   4.951   0.426   4.120
 8001WAT     H125585   4.940   0.410   4.214
 8001WAT     H225586   5.027   0.373   4.096
 8002WAT      O25587   5.040   0.209   3.444
 8002WAT     H125588   5.132   0.196   3.423
 8002WAT     H225589   5.038   0.217   3.540
 8003WAT      O25590   5.047   0.286   3.707
 8003WAT     H125591   4.968   0.279   3.760
 8003WAT     H225592   5.068   0.379   3.706
 8004WAT      O25593   4.742   1.690   4.106
 8004WAT     H125594   4.801   1.658   4.039
 8004WAT     H225595   4.767   1.643   4.185
 8005WAT      O25596   3.532   1.333   5.121
 8005WAT     H125597   3.528   1.296   5.209
 8005WAT     H225598   3.545   1.427   5.135
 8006WAT      O25599   3.902   1.489   4.681
 8006WAT     H125600   3.878   1.515   4.593
 8006WAT     H225601   3.996   1.506   4.687
 8007WAT      O25602   5.028   1.691   4.761
 8007WAT     H125603   4.979   1.730   4.690
 8007WAT     H225604   4.967   1.628   4.801
 8008WAT      O25605   3.516   1.628   4.833
 8008WAT     H125606   3.457   1.615   4.907
 8008WAT     H225607   3.515   1.544   4.787
 8009WAT      O25608   4.797   1.755   4.489
 8009WAT     H125609   4.751   1.830   4.452
 8009WAT     H225610   4.734   1.683   4.483
 8010WAT      O25611   3.479   1.364   4.728
 8010WAT     H125612   3.406   1.302   4.721
 8010WAT     H225613   3.485   1.404   4.641
 8011WAT      O25614   3.840   1.586   4.407
 8011WAT     H125615   3.891   1.525   4.354
 8011WAT     H225616   3.905   1.636   4.456
 8012WAT      O25617   4.114   1.675   4.489
 8012WAT     H125618   4.142   1.649   4.402
 8012WAT     H225619   4.165   1.620   4.548
 8013WAT      O25620   3.307   1.696   4.049
 8013WAT     H125621   3.291   1.633   4.119
 8013WAT     H225622   3.221   1.717   4.014
 8014WAT      O25623   4.024   0.291   4.098
 8014WAT     H125624   3.943   0.253   4.064
 8014WAT     H225625   4.074   0.215   4.129
 8015WAT      O25626   3.468   1.565   3.794
 8015WAT     H125627   3.416   1.603   3.723
 8015WAT     H225628   3.461   1.628   3.866
 8016WAT      O25629   4.120   1.767   5.226
 8016WAT     H125630   4.213   1.743   5.230
 8016WAT     H225631   4.119   1.850   5.178
 8017WAT      O25632   4.944   1.721   3.926
 8017WAT     H125633   4.961   1.653   3.861
 8017WAT     H225634   4.874   1.774   3.887
 8018WAT      O25635   3.728   1.760   3.681
 8018WAT     H125636   3.801   1.732   3.626
 8018WAT     H225637   3.754   1.736   3.770
 8019WAT      O25638   3.644   1.372   3.682
 8019WAT     H125639   3.581   1.419   3.736
 8019WAT     H225640   3.656   1.287   3.725
 8020WAT      O25641   4.777   1.690   5.208
 8020WAT     H125642   4.856   1.640   5.188
 8020WAT     H225643   4.806   1.758   5.269
 8021WAT      O25644   4.390   0.777   2.297
 8021WAT     H125645   4.382   0.685   2.270
 8021WAT     H225646   4.348   0.827   2.226
 8022WAT      O25647   4.203   0.955   2.485
 8022WAT     H125648   4.125   0.907   2.514
 8022WAT     H225649   4.268   0.887   2.467
 8023WAT      O25650   3.604   0.986   2.572
 8023WAT     H125651   3.521   0.960   2.612
 8023WAT     H225652   3.665   0.993   2.646
 8024WAT      O25653   4.605   1.395   2.363
 8024WAT     H125654   4.559   1.318   2.396
 8024WAT     H225655   4.686   1.398   2.413
 8025WAT      O25656   3.602   1.389   2.592
 8025WAT     H125657   3.633   1.300   2.574
 8025WAT     H225658   3.677   1.445   2.569
 8026WAT      O25659   3.445   0.482   1.951
 8026WAT     H125660   3.357   0.516   1.941
 8026WAT     H225661   3.474   0.462   1.862
 8027WAT      O25662   3.242   0.742   2.539
 8027WAT     H125663   3.299   0.665   2.539
 8027WAT     H225664   3.242   0.772   2.448
 8028WAT      O25665   4.228   1.624   2.325
 8028WAT     H125666   4.166   1.669   2.268
 8028WAT     H225667   4.313   1.639   2.285
 8029WAT      O25668   4.147   1.222   2.485
 8029WAT     H125669   4.140   1.128   2.469
 8029WAT     H225670   4.223   1.231   2.543
 8030WAT      O25671   3.366   0.283   2.718
 8030WAT     H125672   3.348   0.193   2.746
 8030WAT     H225673   3.326   0.337   2.785
 8031WAT      O25674   4.250   0.503   2.508
 8031WAT     H125675   4.288   0.416   2.497
 8031WAT     H225676   4.240   0.537   2.419
 8032WAT      O25677   3.663   0.340   2.054
 8032WAT     H125678   3.674   0.430   2.085
 8032WAT     H225679   3.572   0.335   2.025
 8033WAT      O25680   4.628   0.252   2.201
 8033WAT     H125681   4.710   0.203   2.206
 8033WAT     H225682   4.632   0.311   2.277
 8034WAT      O25683   3.428   0.532   2.579
 8034WAT     H125684   3.496   0.559   2.641
 8034WAT     H225685   3.396   0.448   2.612
 8035WAT      O25686   3.847   0.637   2.488
 8035WAT     H125687   3.898   0.687   2.552
 8035WAT     H225688   3.900   0.559   2.470
 8036WAT      O25689   5.057   0.454   2.858
 8036WAT     H125690   4.987   0.493   2.806
 8036WAT     H225691   5.084   0.524   2.918
 8037WAT      O25692   4.314   1.112   2.064
 8037WAT     H125693   4.252   1.159   2.008
 8037WAT     H225694   4.365   1.181   2.106
 8038WAT      O25695   3.800   1.065   2.732
 8038WAT     H125696   3.767   1.128   2.796
 8038WAT     H225697   3.818   1.118   2.654
 8039WAT      O25698   4.652   0.446   2.479
 8039WAT     H125699   4.581   0.475   2.537
 8039WAT     H225700   4.688   0.527   2.443
 8040WAT      O25701   3.644   0.272   2.715
 8040WAT     H125702   3.678   0.357   2.685
 8040WAT     H225703   3.550   0.287   2.727
 8041WAT      O25704   3.722   1.262   2.913
 8041WAT     H125705   3.783   1.329   2.885
 8041WAT     H225706   3.636   1.303   2.904
 8042WAT      O25707   3.251   1.181   1.801
 8042WAT     H125708   3.213   1.230   1.728
 8042WAT     H225709   3.277   1.248   1.865
 8043WAT      O25710   4.813   1.408   2.705
 8043WAT     H125711   4.745   1.475   2.704
 8043WAT     H225712   4.867   1.428   2.628
 8044WAT      O25713   4.959   0.391   2.518
 8044WAT     H125714   4.864   0.394   2.531
 8044WAT     H225715   4.991   0.472   2.556
 8045WAT      O25716   4.567   1.593   2.576
 8045WAT     H125717   4.568   1.552   2.490
 8045WAT     H225718   4.512   1.670   2.566
 8046WAT      O25719   4.696   1.265   2.085
 8046WAT     H125720   4.685   1.171   2.098
 8046WAT     H225721   4.696   1.301   2.174
 8047WAT      O25722   4.507   1.083   2.709
 8047WAT     H125723   4.549   1.062   2.626
 8047WAT     H225724   4.579   1.109   2.766
 8048WAT      O25725   4.251   0.827   2.021
 8048WAT     H125726   4.158   0.821   2.044
 8048WAT     H225727   4.266   0.921   2.009
 8049WAT      O25728   4.249   0.455   1.721
 8049WAT     H125729   4.155   0.471   1.729
 8049WAT     H225730   4.281   0.526   1.666
 8050WAT      O25731   4.902   0.923   2.718
 8050WAT     H125732   4.819   0.930   2.671
 8050WAT     H225733   4.961   0.981   2.672
 8051WAT      O25734   4.654   0.984   2.071
 8051WAT     H125735   4.592   0.950   2.007
 8051WAT     H225736   4.652   0.919   2.142
 8052WAT      O25737   4.598   0.601   2.813
 8052WAT     H125738   4.557   0.684   2.838
 8052WAT     H225739   4.525   0.543   2.794
 8053WAT      O25740   3.811   0.880   2.299
 8053WAT     H125741   3.771   0.809   2.250
 8053WAT     H225742   3.820   0.846   2.388
 8054WAT      O25743   3.858   1.249   2.515
 8054WAT     H125744   3.828   1.188   2.448
 8054WAT     H225745   3.953   1.253   2.504
 8055WAT      O25746   3.683   0.558   2.677
 8055WAT     H125747   3.738   0.568   2.600
 8055WAT     H225748   3.734   0.595   2.749
 8056WAT      O25749   4.667   1.606   2.882
 8056WAT     H125750   4.619   1.687   2.862
 8056WAT     H225751   4.599   1.541   2.897
 8057WAT      O25752   3.767   1.223   3.181
 8057WAT     H125753   3.678   1.245   3.205
 8057WAT     H225754   3.770   1.235   3.086
 8058WAT      O25755   4.471   0.908   1.772
 8058WAT     H125756   4.515   0.824   1.757
 8058WAT     H225757   4.543   0.971   1.781
 8059WAT      O25758   3.650   0.910   3.038
 8059WAT     H125759   3.636   0.997   3.075
 8059WAT     H225760   3.562   0.875   3.024
 8060WAT      O25761   4.282   1.401   2.169
 8060WAT     H125762   4.326   1.476   2.127
 8060WAT     H225763   4.276   1.426   2.261
 8061WAT      O25764   3.830   1.504   3.259
 8061WAT     H125765   3.827   1.544   3.172
 8061WAT     H225766   3.813   1.411   3.243
 8062WAT      O25767   3.481   0.770   2.049
 8062WAT     H125768   3.469   0.842   1.988
 8062WAT     H225769   3.450   0.693   2.001
 8063WAT      O25770   5.025   1.582   3.389
 8063WAT     H125771   5.073   1.630   3.457
 8063WAT     H225772   5.087   1.575   3.316
 8064WAT      O25773   3.245   1.087   2.630
 8064WAT     H125774   3.253   1.100   2.535
 8064WAT     H225775   3.307   1.016   2.649
 8065WAT      O25776   3.370   1.257   2.271
 8065WAT     H125777   3.329   1.271   2.185
 8065WAT     H225778   3.459   1.228   2.251
 8066WAT      O25779   4.965   1.301   3.105
 8066WAT     H125780   4.978   1.277   3.013
 8066WAT     H225781   4.969   1.218   3.152
 8067WAT      O25782   4.351   1.672   2.962
 8067WAT     H125783   4.403   1.663   3.042
 8067WAT     H225784   4.267   1.706   2.991
 8068WAT      O25785   4.549   1.700   1.904
 8068WAT     H125786   4.533   1.671   1.994
 8068WAT     H225787   4.532   1.623   1.851
 8069WAT      O25788   3.797   1.678   2.082
 8069WAT     H125789   3.779   1.586   2.061
 8069WAT     H225790   3.711   1.714   2.106
 8070WAT      O25791   4.519   1.451   1.760
 8070WAT     H125792   4.450   1.451   1.694
 8070WAT     H225793   4.593   1.409   1.717
 8071WAT      O25794   4.476   1.614   2.168
 8071WAT     H125795   4.521   1.536   2.199
 8071WAT     H225796   4.510   1.685   2.222
 8072WAT      O25797   4.950   0.507   3.201
 8072WAT     H125798   4.889   0.557   3.148
 8072WAT     H225799   4.918   0.417   3.195
 8073WAT      O25800   3.251   1.191   2.884
 8073WAT     H125801   3.267   1.144   2.802
 8073WAT     H225802   3.297   1.140   2.950
 8074WAT      O25803   4.157   0.391   2.948
 8074WAT     H125804   4.110   0.411   3.029
 8074WAT     H225805   4.116   0.309   2.917
 8075WAT      O25806   4.657   0.513   3.061
 8075WAT     H125807   4.572   0.483   3.093
 8075WAT     H225808   4.641   0.537   2.970
 8076WAT      O25809   4.366   0.663   3.271
 8076WAT     H125810   4.399   0.579   3.237
 8076WAT     H225811   4.445   0.715   3.285
 8077WAT      O25812   3.707   0.616   2.160
 8077WAT     H125813   3.684   0.595   2.251
 8077WAT     H225814   3.629   0.659   2.126
 8078WAT      O25815   4.430   0.617   2.020
 8078WAT     H125816   4.370   0.689   2.002
 8078WAT     H225817   4.485   0.611   1.942
 8079WAT      O25818   3.951   0.706   3.227
 8079WAT     H125819   3.942   0.612   3.212
 8079WAT     H225820   4.035   0.728   3.187
 8080WAT      O25821   4.291   0.480   2.223
 8080WAT     H125822   4.330   0.512   2.142
 8080WAT     H225823   4.327   0.393   2.235
 8081WAT      O25824   3.464   0.347   3.042
 8081WAT     H125825   3.425   0.432   3.063
 8081WAT     H225826   3.395   0.283   3.061
 8082WAT      O25827   4.122   0.356   3.349
 8082WAT     H125828   4.053   0.336   3.413
 8082WAT     H225829   4.196   0.384   3.402
 8083WAT      O25830   3.213   0.534   1.566
 8083WAT     H125831   3.205   0.628   1.581
 8083WAT     H225832   3.178   0.519   1.479
 8084WAT      O25833   4.349   0.740   2.633
 8084WAT     H125834   4.276   0.790   2.668
 8084WAT     H225835   4.310   0.658   2.603
 8085WAT      O25836   3.993   0.407   2.473
 8085WAT     H125837   3.993   0.363   2.388
 8085WAT     H225838   4.083   0.439   2.484
 8086WAT      O25839   3.578   0.395   2.369
 8086WAT     H125840   3.544   0.443   2.445
 8086WAT     H225841   3.502   0.350   2.333
 8087WAT      O25842   3.999   0.507   1.772
 8087WAT     H125843   4.011   0.503   1.867
 8087WAT     H225844   3.961   0.593   1.757
 8088WAT      O25845   4.396   0.285   2.574
 8088WAT     H125846   4.397   0.330   2.658
 8088WAT     H225847   4.371   0.195   2.595
 8089WAT      O25848   3.900   0.738   1.712
 8089WAT     H125849   3.844   0.693   1.649
 8089WAT     H225850   3.971   0.774   1.659
 8090WAT      O25851   3.408   1.128   3.100
 8090WAT     H125852   3.370   1.064   3.160
 8090WAT     H225853   3.439   1.199   3.157
 8091WAT      O25854   4.023   0.813   2.648
 8091WAT     H125855   4.060   0.766   2.722
 8091WAT     H225856   4.004   0.901   2.682
 8092WAT      O25857   3.310   0.288   2.261
 8092WAT     H125858   3.281   0.251   2.345
 8092WAT     H225859   3.303   0.214   2.199
 8093WAT      O25860   3.802   0.717   2.880
 8093WAT     H125861   3.772   0.805   2.902
 8093WAT     H225862   3.898   0.723   2.883
 8094WAT      O25863   3.655   1.138   1.939
 8094WAT     H125864   3.578   1.084   1.923
 8094WAT     H225865   3.728   1.086   1.906
 8095WAT      O25866   4.731   1.037   2.519
 8095WAT     H125867   4.803   1.087   2.480
 8095WAT     H225868   4.711   0.970   2.454
 8096WAT      O25869   4.277   0.177   1.933
 8096WAT     H125870   4.196   0.127   1.925
 8096WAT     H225871   4.258   0.261   1.891
 8097WAT      O25872   4.269   1.045   3.107
 8097WAT     H125873   4.262   0.952   3.082
 8097WAT     H225874   4.206   1.054   3.179
 8098WAT      O25875   4.548   0.614   1.763
 8098WAT     H125876   4.637   0.645   1.745
 8098WAT     H225877   4.545   0.527   1.723
 8099WAT      O25878   3.659   1.105   2.303
 8099WAT     H125879   3.711   1.024   2.298
 8099WAT     H225880   3.614   1.098   2.387
 8100WAT      O25881   4.148   1.231   1.830
 8100WAT     H125882   4.182   1.306   1.781
 8100WAT     H225883   4.065   1.263   1.867
 8101WAT      O25884   3.408   0.801   2.994
 8101WAT     H125885   3.372   0.868   3.053
 8101WAT     H225886   3.378   0.718   3.032
 8102WAT      O25887   3.728   0.847   3.283
 8102WAT     H125888   3.698   0.862   3.193
 8102WAT     H225889   3.805   0.791   3.274
 8103WAT      O25890   4.262   1.327   3.082
 8103WAT     H125891   4.264   1.234   3.061
 8103WAT     H225892   4.191   1.335   3.146
 8104WAT      O25893   4.776   0.745   1.709
 8104WAT     H125894   4.767   0.788   1.624
 8104WAT     H225895   4.847   0.791   1.753
 8105WAT      O25896   4.883   0.991   3.017
 8105WAT     H125897   4.811   1.050   2.997
 8105WAT     H225898   4.936   0.990   2.937
 8106WAT      O25899   4.878   1.431   1.982
 8106WAT     H125900   4.814   1.365   2.010
 8106WAT     H225901   4.840   1.471   1.905
 8107WAT      O25902   4.436   1.163   2.367
 8107WAT     H125903   4.472   1.104   2.301
 8107WAT     H225904   4.348   1.131   2.384
 8108WAT      O25905   4.045   1.239   2.108
 8108WAT     H125906   4.114   1.294   2.146
 8108WAT     H225907   3.966   1.294   2.111
 8109WAT      O25908   3.259   0.801   1.657
 8109WAT     H125909   3.346   0.829   1.685
 8109WAT     H225910   3.210   0.882   1.645
 8110WAT      O25911   3.975   0.940   2.069
 8110WAT     H125912   4.021   1.021   2.091
 8110WAT     H225913   3.940   0.908   2.152
 8111WAT      O25914   4.205   1.491   2.792
 8111WAT     H125915   4.270   1.512   2.859
 8111WAT     H225916   4.242   1.415   2.746
 8112WAT      O25917   4.333   1.291   2.664
 8112WAT     H125918   4.397   1.221   2.675
 8112WAT     H225919   4.385   1.369   2.645
 8113WAT      O25920   4.717   1.320   1.636
 8113WAT     H125921   4.695   1.248   1.695
 8113WAT     H225922   4.678   1.295   1.552
 8114WAT      O25923   4.510   1.371   2.984
 8114WAT     H125924   4.544   1.430   3.052
 8114WAT     H225925   4.418   1.358   3.007
 8115WAT      O25926   3.296   1.722   1.713
 8115WAT     H125927   3.332   1.782   1.648
 8115WAT     H225928   3.281   1.777   1.791
 8116WAT      O25929   4.676   1.111   1.802
 8116WAT     H125930   4.647   1.158   1.881
 8116WAT     H225931   4.755   1.065   1.829
 8117WAT      O25932   3.294   1.549   3.161
 8117WAT     H125933   3.305   1.455   3.147
 8117WAT     H225934   3.229   1.575   3.096
 8118WAT      O25935   4.093   1.376   3.301
 8118WAT     H125936   4.061   1.304   3.355
 8118WAT     H225937   4.026   1.444   3.308
 8119WAT      O25938   3.897   1.461   1.795
 8119WAT     H125939   3.896   1.534   1.734
 8119WAT     H225940   3.805   1.436   1.804
 8120WAT      O25941   3.457   0.983   1.870
 8120WAT     H125942   3.397   1.057   1.871
 8120WAT     H225943   3.505   0.992   1.787
 8121WAT      O25944   4.415   0.399   2.837
 8121WAT     H125945   4.451   0.317   2.870
 8121WAT     H225946   4.329   0.405   2.879
 8122WAT      O25947   4.751   0.295   1.918
 8122WAT     H125948   4.688   0.305   1.847
 8122WAT     H225949   4.702   0.317   1.997
 8123WAT      O25950   4.196   1.467   1.661
 8123WAT     H125951   4.206   1.447   1.568
 8123WAT     H225952   4.106   1.442   1.682
 8124WAT      O25953   3.948   0.523   2.060
 8124WAT     H125954   3.877   0.570   2.104
 8124WAT     H225955   3.977   0.457   2.123
 8125WAT      O25956   4.111   0.665   2.860
 8125WAT     H125957   4.160   0.712   2.926
 8125WAT     H225958   4.125   0.572   2.880
 8126WAT      O25959   4.351   0.195   2.204
 8126WAT     H125960   4.339   0.197   2.109
 8126WAT     H225961   4.446   0.200   2.216
 8127WAT      O25962   4.060   1.719   2.131
 8127WAT     H125963   4.085   1.715   2.039
 8127WAT     H225964   3.965   1.706   2.130
 8128WAT      O25965   3.768   0.354   1.797
 8128WAT     H125966   3.853   0.397   1.790
 8128WAT     H225967   3.732   0.385   1.880
 8129WAT      O25968   4.831   0.286   2.944
 8129WAT     H125969   4.781   0.360   2.978
 8129WAT     H225970   4.913   0.325   2.912
 8130WAT      O25971   4.661   0.811   2.288
 8130WAT     H125972   4.566   0.812   2.306
 8130WAT     H225973   4.692   0.732   2.333
 8131WAT      O25974   3.658   0.979   1.644
 8131WAT     H125975   3.735   0.968   1.701
 8131WAT     H225976   3.666   0.909   1.579
 8132WAT      O25977   3.528   0.722   1.713
 8132WAT     H125978   3.536   0.627   1.724
 8132WAT     H225979   3.617   0.755   1.723
 8133WAT      O25980   4.861   1.528   2.456
 8133WAT     H125981   4.873   1.610   2.503
 8133WAT     H225982   4.947   1.507   2.421
 8134WAT      O25983   3.608   1.737   2.423
 8134WAT     H125984   3.682   1.682   2.450
 8134WAT     H225985   3.646   1.824   2.409
 8135WAT      O25986   3.296   1.344   2.011
 8135WAT     H125987   3.204   1.368   2.010
 8135WAT     H225988   3.343   1.427   1.998
 8136WAT      O25989   3.509   1.656   3.342
 8136WAT     H125990   3.589   1.688   3.383
 8136WAT     H225991   3.457   1.620   3.414
 8137WAT      O25992   3.919   1.654   1.605
 8137WAT     H125993   3.998   1.683   1.560
 8137WAT     H225994   3.867   1.611   1.538
 8138WAT      O25995   4.392   1.266   3.337
 8138WAT     H125996   4.332   1.269   3.263
 8138WAT     H225997   4.362   1.193   3.390
 8139WAT      O25998   4.535   1.639   3.198
 8139WAT     H125999   4.630   1.631   3.193
 8139WAT     H226000   4.520   1.706   3.265
 8140WAT      O26001   4.824   1.577   1.748
 8140WAT     H126002   4.796   1.536   1.666
 8140WAT     H226003   4.804   1.670   1.736
 8141WAT      O26004   3.281   0.904   3.236
 8141WAT     H126005   3.331   0.846   3.294
 8141WAT     H226006   3.207   0.933   3.290
 8142WAT      O26007   3.971   1.177   1.592
 8142WAT     H126008   3.960   1.115   1.664
 8142WAT     H226009   3.954   1.124   1.513
 8143WAT      O26010   3.986   1.045   3.190
 8143WAT     H126011   3.909   1.102   3.181
 8143WAT     H226012   4.004   1.016   3.100
 8144WAT      O26013   4.295   1.083   1.652
 8144WAT     H126014   4.240   1.127   1.717
 8144WAT     H226015   4.357   1.032   1.705
 8145WAT      O26016   4.700   1.218   3.245
 8145WAT     H126017   4.774   1.252   3.195
 8145WAT     H226018   4.624   1.235   3.190
 8146WAT      O26019   3.484   0.719   3.326
 8146WAT     H126020   3.488   0.689   3.417
 8146WAT     H226021   3.569   0.759   3.310
 8147WAT      O26022   3.862   0.979   1.842
 8147WAT     H126023   3.904   0.962   1.926
 8147WAT     H226024   3.874   0.898   1.792
 8148WAT      O26025   3.678   0.577   3.123
 8148WAT     H126026   3.625   0.527   3.060
 8148WAT     H226027   3.745   0.619   3.069
 8149WAT      O26028   4.113   0.881   1.567
 8149WAT     H126029   4.165   0.809   1.530
 8149WAT     H226030   4.177   0.945   1.597
 8150WAT      O26031   4.568   1.023   3.099
 8150WAT     H126032   4.609   1.039   3.184
 8150WAT     H226033   4.474   1.036   3.115
 8151WAT      O26034   4.615   0.757   3.299
 8151WAT     H126035   4.673   0.682   3.291
 8151WAT     H226036   4.632   0.810   3.222
 8152WAT      O26037   3.727   0.273   3.131
 8152WAT     H126038   3.717   0.211   3.058
 8152WAT     H226039   3.669   0.346   3.108
 8153WAT      O26040   4.044   1.018   2.896
 8153WAT     H126041   4.086   1.103   2.879
 8153WAT     H226042   3.952   1.032   2.873
 8154WAT      O26043   4.277   0.792   3.034
 8154WAT     H126044   4.289   0.732   3.108
 8154WAT     H226045   4.363   0.795   2.992
 8155WAT      O26046   4.511   0.847   2.892
 8155WAT     H126047   4.459   0.899   2.832
 8155WAT     H226048   4.546   0.910   2.955
 8156WAT      O26049   3.751   0.586   1.536
 8156WAT     H126050   3.731   0.500   1.573
 8156WAT     H226051   3.734   0.577   1.443
 8157WAT      O26052   3.829   1.649   3.008
 8157WAT     H126053   3.775   1.721   2.976
 8157WAT     H226054   3.854   1.601   2.929
 8158WAT      O26055   3.954   0.446   3.160
 8158WAT     H126056   4.013   0.415   3.229
 8158WAT     H226057   3.872   0.399   3.176
 8159WAT      O26058   4.436   0.408   3.183
 8159WAT     H126059   4.367   0.341   3.177
 8159WAT     H226060   4.508   0.363   3.228
 8160WAT      O26061   3.631   0.296   1.535
 8160WAT     H126062   3.661   0.297   1.444
 8160WAT     H226063   3.705   0.261   1.585
 8161WAT      O26064   4.114   1.773   3.033
 8161WAT     H126065   4.107   1.863   3.064
 8161WAT     H226066   4.024   1.741   3.031
 8162WAT      O26067   4.169   1.689   1.796
 8162WAT     H126068   4.259   1.723   1.798
 8162WAT     H226069   4.172   1.617   1.733
 8163WAT      O26070   3.533   1.226   1.619
 8163WAT     H126071   3.577   1.281   1.684
 8163WAT     H226072   3.582   1.144   1.619
 8164WAT      O26073   3.255   1.505   2.364
 8164WAT     H126074   3.288   1.418   2.341
 8164WAT     H226075   3.298   1.526   2.447
 8165WAT      O26076   3.714   1.338   2.130
 8165WAT     H126077   3.684   1.326   2.220
 8165WAT     H226078   3.704   1.252   2.089
 8166WAT      O26079   3.304   1.592   2.638
 8166WAT     H126080   3.260   1.610   2.721
 8166WAT     H226081   3.360   1.668   2.623
 8167WAT      O26082   4.867   1.542   3.066
 8167WAT     H126083   4.807   1.548   2.992
 8167WAT     H226084   4.880   1.448   3.079
 8168WAT      O26085   4.991   1.316   1.600
 8168WAT     H126086   4.908   1.323   1.647
 8168WAT     H226087   5.009   1.405   1.570
 8169WAT      O26088   4.937   0.991   1.850
 8169WAT     H126089   5.013   1.048   1.861
 8169WAT     H226090   4.938   0.934   1.927
 8170WAT      O26091   3.287   0.843   2.273
 8170WAT     H126092   3.221   0.816   2.209
 8170WAT     H226093   3.371   0.832   2.228
 8171WAT      O26094   5.037   1.076   2.335
 8171WAT     H126095   5.075   0.998   2.294
 8171WAT     H226096   5.101   1.145   2.317
 8172WAT      O26097   4.736   1.215   2.876
 8172WAT     H126098   4.654   1.258   2.902
 8172WAT     H226099   4.776   1.276   2.815
 8173WAT      O26100   4.942   1.020   1.566
 8173WAT     H126101   4.969   1.111   1.553
 8173WAT     H226102   4.923   1.014   1.660
 8174WAT      O26103   4.582   0.323   1.696
 8174WAT     H126104   4.624   0.304   1.612
 8174WAT     H226105   4.551   0.237   1.727
 8175WAT      O26106   4.932   0.814   2.065
 8175WAT     H126107   4.894   0.737   2.022
 8175WAT     H226108   4.859   0.852   2.114
 8176WAT      O26109   3.391   0.882   2.727
 8176WAT     H126110   3.427   0.873   2.815
 8176WAT     H226111   3.334   0.805   2.718
 8177WAT      O26112   4.871   0.729   3.029
 8177WAT     H126113   4.848   0.706   2.939
 8177WAT     H226114   4.897   0.821   3.024
 8178WAT      O26115   3.346   0.573   3.118
 8178WAT     H126116   3.256   0.569   3.152
 8178WAT     H226117   3.400   0.593   3.195
 8179WAT      O26118   4.715   0.251   3.307
 8179WAT     H126119   4.802   0.252   3.345
 8179WAT     H226120   4.716   0.177   3.246
 8180WAT      O26121   3.208   0.564   1.868
 8180WAT     H126122   3.118   0.590   1.850
 8180WAT     H226123   3.257   0.591   1.790
 8181WAT      O26124   4.859   0.636   2.395
 8181WAT     H126125   4.912   0.587   2.332
 8181WAT     H226126   4.918   0.650   2.470
 8182WAT      O26127   4.877   0.645   2.748
 8182WAT     H126128   4.782   0.641   2.759
 8182WAT     H226129   4.895   0.736   2.724
 8183WAT      O26130   3.463   0.470   1.659
 8183WAT     H126131   3.533   0.428   1.610
 8183WAT     H226132   3.391   0.477   1.595
 8184WAT      O26133   4.808   0.562   1.989
 8184WAT     H126134   4.858   0.539   2.068
 8184WAT     H226135   4.788   0.478   1.948
 8185WAT      O26136   4.951   0.426   2.243
 8185WAT     H126137   4.940   0.410   2.337
 8185WAT     H226138   5.027   0.373   2.219
 8186WAT      O26139   5.040   0.209   1.567
 8186WAT     H126140   5.132   0.196   1.546
 8186WAT     H226141   5.038   0.217   1.662
 8187WAT      O26142   5.047   0.286   1.829
 8187WAT     H126143   4.968   0.279   1.882
 8187WAT     H226144   5.068   0.379   1.828
 8188WAT      O26145   4.742   1.690   2.229
 8188WAT     H126146   4.801   1.658   2.161
 8188WAT     H226147   4.767   1.643   2.308
 8189WAT      O26148   3.532   1.333   3.244
 8189WAT     H126149   3.528   1.296   3.332
 8189WAT     H226150   3.545   1.427   3.258
 8190WAT      O26151   3.902   1.489   2.804
 8190WAT     H126152   3.878   1.515   2.715
 8190WAT     H226153   3.996   1.506   2.809
 8191WAT      O26154   5.028   1.691   2.884
 8191WAT     H126155   4.979   1.730   2.812
 8191WAT     H226156   4.967   1.628   2.923
 8192WAT      O26157   3.516   1.628   2.956
 8192WAT     H126158   3.457   1.615   3.030
 8192WAT     H226159   3.515   1.544   2.909
 8193WAT      O26160   4.797   1.755   2.612
 8193WAT     H126161   4.751   1.830   2.574
 8193WAT     H226162   4.734   1.683   2.606
 8194WAT      O26163   3.479   1.364   2.851
 8194WAT     H126164   3.406   1.302   2.844
 8194WAT     H226165   3.485   1.404   2.764
 8195WAT      O26166   3.840   1.586   2.529
 8195WAT     H126167   3.891   1.525   2.477
 8195WAT     H226168   3.905   1.636   2.578
 8196WAT      O26169   4.114   1.675   2.612
 8196WAT     H126170   4.142   1.649   2.524
 8196WAT     H226171   4.165   1.620   2.671
 8197WAT      O26172   3.307   1.696   2.172
 8197WAT     H126173   3.291   1.633   2.242
 8197WAT     H226174   3.221   1.717   2.137
 8198WAT      O26175   4.024   0.291   2.221
 8198WAT     H126176   3.943   0.253   2.187
 8198WAT     H226177   4.074   0.215   2.251
 8199WAT      O26178   3.468   1.565   1.916
 8199WAT     H126179   3.416   1.603   1.846
 8199WAT     H226180   3.461   1.628   1.988
 8200WAT      O26181   4.120   1.767   3.349
 8200WAT     H126182   4.213   1.743   3.353
 8200WAT     H226183   4.119   1.850   3.300
 8201WAT      O26184   4.944   1.721   2.048
 8201WAT     H126185   4.961   1.653   1.984
 8201WAT     H226186   4.874   1.774   2.009
 8202WAT      O26187   3.728   1.760   1.804
 8202WAT     H126188   3.801   1.732   1.749
 8202WAT     H226189   3.754   1.736   1.893
 8203WAT      O26190   3.644   1.372   1.804
 8203WAT     H126191   3.581   1.419   1.859
 8203WAT     H226192   3.656   1.287   1.848
 8204WAT      O26193   4.777   1.690   3.331
 8204WAT     H126194   4.856   1.640   3.310
 8204WAT     H226195   4.806   1.758   3.392
 8205WAT      O26196   4.390   0.777   0.419
 8205WAT     H126197   4.382   0.685   0.392
 8205WAT     H226198   4.348   0.827   0.349
 8206WAT      O26199   4.203   0.955   0.607
 8206WAT     H126200   4.125   0.907   0.636
 8206WAT     H226201   4.268   0.887   0.590
 8207WAT      O26202   3.604   0.986   0.695
 8207WAT     H126203   3.521   0.960   0.735
 8207WAT     H226204   3.665   0.993   0.769
 8208WAT      O26205   4.605   1.395   0.485
 8208WAT     H126206   4.559   1.318   0.518
 8208WAT     H226207   4.686   1.398   0.536
 8209WAT      O26208   3.602   1.389   0.715
 8209WAT     H126209   3.633   1.300   0.697
 8209WAT     H226210   3.677   1.445   0.692
 8210WAT      O26211   3.242   0.742   0.662
 8210WAT     H126212   3.299   0.665   0.662
 8210WAT     H226213   3.242   0.772   0.571
 8211WAT      O26214   4.228   1.624   0.447
 8211WAT     H126215   4.166   1.669   0.390
 8211WAT     H226216   4.313   1.639   0.407
 8212WAT      O26217   4.147   1.222   0.608
 8212WAT     H126218   4.140   1.128   0.592
 8212WAT     H226219   4.223   1.231   0.665
 8213WAT      O26220   3.366   0.283   0.841
 8213WAT     H126221   3.348   0.193   0.869
 8213WAT     H226222   3.326   0.337   0.908
 8214WAT      O26223   4.250   0.503   0.631
 8214WAT     H126224   4.288   0.416   0.619
 8214WAT     H226225   4.240   0.537   0.542
 8215WAT      O26226   3.663   0.340   0.177
 8215WAT     H126227   3.674   0.430   0.208
 8215WAT     H226228   3.572   0.335   0.148
 8216WAT      O26229   4.628   0.252   0.324
 8216WAT     H126230   4.710   0.203   0.328
 8216WAT     H226231   4.632   0.311   0.399
 8217WAT      O26232   3.428   0.532   0.701
 8217WAT     H126233   3.496   0.559   0.763
 8217WAT     H226234   3.396   0.448   0.735
 8218WAT      O26235   3.847   0.637   0.610
 8218WAT     H126236   3.898   0.687   0.674
 8218WAT     H226237   3.900   0.559   0.592
 8219WAT      O26238   5.057   0.454   0.980
 8219WAT     H126239   4.987   0.493   0.929
 8219WAT     H226240   5.084   0.524   1.041
 8220WAT      O26241   3.800   1.065   0.854
 8220WAT     H126242   3.767   1.128   0.919
 8220WAT     H226243   3.818   1.118   0.776
 8221WAT      O26244   4.652   0.446   0.601
 8221WAT     H126245   4.581   0.475   0.659
 8221WAT     H226246   4.688   0.527   0.565
 8222WAT      O26247   3.644   0.272   0.837
 8222WAT     H126248   3.678   0.357   0.808
 8222WAT     H226249   3.550   0.287   0.849
 8223WAT      O26250   3.722   1.262   1.036
 8223WAT     H126251   3.783   1.329   1.008
 8223WAT     H226252   3.636   1.303   1.027
 8224WAT      O26253   4.813   1.408   0.827
 8224WAT     H126254   4.745   1.475   0.827
 8224WAT     H226255   4.867   1.428   0.751
 8225WAT      O26256   4.959   0.391   0.640
 8225WAT     H126257   4.864   0.394   0.653
 8225WAT     H226258   4.991   0.472   0.679
 8226WAT      O26259   4.567   1.593   0.699
 8226WAT     H126260   4.568   1.552   0.612
 8226WAT     H226261   4.512   1.670   0.689
 8227WAT      O26262   4.696   1.265   0.208
 8227WAT     H126263   4.685   1.171   0.220
 8227WAT     H226264   4.696   1.301   0.296
 8228WAT      O26265   4.507   1.083   0.832
 8228WAT     H126266   4.549   1.062   0.748
 8228WAT     H226267   4.579   1.109   0.889
 8229WAT      O26268   4.902   0.923   0.841
 8229WAT     H126269   4.819   0.930   0.793
 8229WAT     H226270   4.961   0.981   0.794
 8230WAT      O26271   4.598   0.601   0.935
 8230WAT     H126272   4.557   0.684   0.961
 8230WAT     H226273   4.525   0.543   0.916
 8231WAT      O26274   3.811   0.880   0.422
 8231WAT     H126275   3.771   0.809   0.372
 8231WAT     H226276   3.820   0.846   0.511
 8232WAT      O26277   3.858   1.249   0.638
 8232WAT     H126278   3.828   1.188   0.570
 8232WAT     H226279   3.953   1.253   0.627
 8233WAT      O26280   3.683   0.558   0.800
 8233WAT     H126281   3.738   0.568   0.722
 8233WAT     H226282   3.734   0.595   0.871
 8234WAT      O26283   4.667   1.606   1.004
 8234WAT     H126284   4.619   1.687   0.985
 8234WAT     H226285   4.599   1.541   1.020
 8235WAT      O26286   3.767   1.223   1.303
 8235WAT     H126287   3.678   1.245   1.328
 8235WAT     H226288   3.770   1.235   1.208
 8236WAT      O26289   3.650   0.910   1.161
 8236WAT     H126290   3.636   0.997   1.198
 8236WAT     H226291   3.562   0.875   1.146
 8237WAT      O26292   4.282   1.401   0.291
 8237WAT     H126293   4.326   1.476   0.250
 8237WAT     H226294   4.276   1.426   0.384
 8238WAT      O26295   3.830   1.504   1.382
 8238WAT     H126296   3.827   1.544   1.295
 8238WAT     H226297   3.813   1.411   1.365
 8239WAT      O26298   5.025   1.582   1.511
 8239WAT     H126299   5.073   1.630   1.579
 8239WAT     H226300   5.087   1.575   1.439
 8240WAT      O26301   3.245   1.087   0.752
 8240WAT     H126302   3.253   1.100   0.658
 8240WAT     H226303   3.307   1.016   0.772
 8241WAT      O26304   3.370   1.257   0.393
 8241WAT     H126305   3.329   1.271   0.308
 8241WAT     H226306   3.459   1.228   0.373
 8242WAT      O26307   4.965   1.301   1.227
 8242WAT     H126308   4.978   1.277   1.135
 8242WAT     H226309   4.969   1.218   1.274
 8243WAT      O26310   4.351   1.672   1.084
 8243WAT     H126311   4.403   1.663   1.164
 8243WAT     H226312   4.267   1.706   1.113
 8244WAT      O26313   3.797   1.678   0.205
 8244WAT     H126314   3.779   1.586   0.183
 8244WAT     H226315   3.711   1.714   0.229
 8245WAT      O26316   4.476   1.614   0.290
 8245WAT     H126317   4.521   1.536   0.322
 8245WAT     H226318   4.510   1.685   0.345
 8246WAT      O26319   4.950   0.507   1.324
 8246WAT     H126320   4.889   0.557   1.271
 8246WAT     H226321   4.918   0.417   1.318
 8247WAT      O26322   3.251   1.191   1.006
 8247WAT     H126323   3.267   1.144   0.925
 8247WAT     H226324   3.297   1.140   1.073
 8248WAT      O26325   4.157   0.391   1.070
 8248WAT     H126326   4.110   0.411   1.152
 8248WAT     H226327   4.116   0.309   1.040
 8249WAT      O26328   4.657   0.513   1.183
 8249WAT     H126329   4.572   0.483   1.215
 8249WAT     H226330   4.641   0.537   1.092
 8250WAT      O26331   4.366   0.663   1.393
 8250WAT     H126332   4.399   0.579   1.359
 8250WAT     H226333   4.445   0.715   1.408
 8251WAT      O26334   3.707   0.616   0.283
 8251WAT     H126335   3.684   0.595   0.373
 8251WAT     H226336   3.629   0.659   0.248
 8252WAT      O26337   3.951   0.706   1.349
 8252WAT     H126338   3.942   0.612   1.334
 8252WAT     H226339   4.035   0.728   1.310
 8253WAT      O26340   4.291   0.480   0.346
 8253WAT     H126341   4.330   0.512   0.264
 8253WAT     H226342   4.327   0.393   0.357
 8254WAT      O26343   3.464   0.347   1.165
 8254WAT     H126344   3.425   0.432   1.185
 8254WAT     H226345   3.395   0.283   1.184
 8255WAT      O26346   4.122   0.356   1.472
 8255WAT     H126347   4.053   0.336   1.535
 8255WAT     H226348   4.196   0.384   1.525
 8256WAT      O26349   4.349   0.740   0.755
 8256WAT     H126350   4.276   0.790   0.790
 8256WAT     H226351   4.310   0.658   0.725
 8257WAT      O26352   3.993   0.407   0.596
 8257WAT     H126353   3.993   0.363   0.511
 8257WAT     H226354   4.083   0.439   0.606
 8258WAT      O26355   3.578   0.395   0.492
 8258WAT     H126356   3.544   0.443   0.567
 8258WAT     H226357   3.502   0.350   0.456
 8259WAT      O26358   4.396   0.285   0.696
 8259WAT     H126359   4.397   0.330   0.781
 8259WAT     H226360   4.371   0.195   0.718
 8260WAT      O26361   3.408   1.128   1.222
 8260WAT     H126362   3.370   1.064   1.282
 8260WAT     H226363   3.439   1.199   1.279
 8261WAT      O26364   4.023   0.813   0.770
 8261WAT     H126365   4.060   0.766   0.845
 8261WAT     H226366   4.004   0.901   0.804
 8262WAT      O26367   3.310   0.288   0.383
 8262WAT     H126368   3.281   0.251   0.467
 8262WAT     H226369   3.303   0.214   0.322
 8263WAT      O26370   3.802   0.717   1.002
 8263WAT     H126371   3.772   0.805   1.025
 8263WAT     H226372   3.898   0.723   1.006
 8264WAT      O26373   4.731   1.037   0.641
 8264WAT     H126374   4.803   1.087   0.602
 8264WAT     H226375   4.711   0.970   0.577
 8265WAT      O26376   4.269   1.045   1.230
 8265WAT     H126377   4.262   0.952   1.204
 8265WAT     H226378   4.206   1.054   1.301
 8266WAT      O26379   3.659   1.105   0.426
 8266WAT     H126380   3.711   1.024   0.420
 8266WAT     H226381   3.614   1.098   0.510
 8267WAT      O26382   3.408   0.801   1.117
 8267WAT     H126383   3.372   0.868   1.176
 8267WAT     H226384   3.378   0.718   1.154
 8268WAT      O26385   3.728   0.847   1.405
 8268WAT     H126386   3.698   0.862   1.316
 8268WAT     H226387   3.805   0.791   1.396
 8269WAT      O26388   4.262   1.327   1.205
 8269WAT     H126389   4.264   1.234   1.183
 8269WAT     H226390   4.191   1.335   1.269
 8270WAT      O26391   4.883   0.991   1.140
 8270WAT     H126392   4.811   1.050   1.120
 8270WAT     H226393   4.936   0.990   1.060
 8271WAT      O26394   4.436   1.163   0.489
 8271WAT     H126395   4.472   1.104   0.423
 8271WAT     H226396   4.348   1.131   0.507
 8272WAT      O26397   4.045   1.239   0.230
 8272WAT     H126398   4.114   1.294   0.268
 8272WAT     H226399   3.966   1.294   0.234
 8273WAT      O26400   3.975   0.940   0.191
 8273WAT     H126401   4.021   1.021   0.214
 8273WAT     H226402   3.940   0.908   0.275
 8274WAT      O26403   4.205   1.491   0.914
 8274WAT     H126404   4.270   1.512   0.982
 8274WAT     H226405   4.242   1.415   0.869
 8275WAT      O26406   4.333   1.291   0.786
 8275WAT     H126407   4.397   1.221   0.797
 8275WAT     H226408   4.385   1.369   0.768
 8276WAT      O26409   4.510   1.371   1.106
 8276WAT     H126410   4.544   1.430   1.174
 8276WAT     H226411   4.418   1.358   1.129
 8277WAT      O26412   3.294   1.549   1.283
 8277WAT     H126413   3.305   1.455   1.269
 8277WAT     H226414   3.229   1.575   1.218
 8278WAT      O26415   4.093   1.376   1.423
 8278WAT     H126416   4.061   1.304   1.478
 8278WAT     H226417   4.026   1.444   1.431
 8279WAT      O26418   4.415   0.399   0.960
 8279WAT     H126419   4.451   0.317   0.992
 8279WAT     H226420   4.329   0.405   1.001
 8280WAT      O26421   3.948   0.523   0.182
 8280WAT     H126422   3.877   0.570   0.226
 8280WAT     H226423   3.977   0.457   0.246
 8281WAT      O26424   4.111   0.665   0.982
 8281WAT     H126425   4.160   0.712   1.049
 8281WAT     H226426   4.125   0.572   1.003
 8282WAT      O26427   4.351   0.195   0.326
 8282WAT     H126428   4.339   0.197   0.231
 8282WAT     H226429   4.446   0.200   0.338
 8283WAT      O26430   4.060   1.719   0.253
 8283WAT     H126431   4.085   1.715   0.161
 8283WAT     H226432   3.965   1.706   0.253
 8284WAT      O26433   4.831   0.286   1.066
 8284WAT     H126434   4.781   0.360   1.100
 8284WAT     H226435   4.913   0.325   1.035
 8285WAT      O26436   4.661   0.811   0.411
 8285WAT     H126437   4.566   0.812   0.428
 8285WAT     H226438   4.692   0.732   0.456
 8286WAT      O26439   4.861   1.528   0.579
 8286WAT     H126440   4.873   1.610   0.626
 8286WAT     H226441   4.947   1.507   0.544
 8287WAT      O26442   3.608   1.737   0.546
 8287WAT     H126443   3.682   1.682   0.573
 8287WAT     H226444   3.646   1.824   0.532
 8288WAT      O26445   3.509   1.656   1.465
 8288WAT     H126446   3.589   1.688   1.506
 8288WAT     H226447   3.457   1.620   1.537
 8289WAT      O26448   4.392   1.266   1.459
 8289WAT     H126449   4.332   1.269   1.385
 8289WAT     H226450   4.362   1.193   1.513
 8290WAT      O26451   4.535   1.639   1.320
 8290WAT     H126452   4.630   1.631   1.315
 8290WAT     H226453   4.520   1.706   1.388
 8291WAT      O26454   3.281   0.904   1.359
 8291WAT     H126455   3.331   0.846   1.416
 8291WAT     H226456   3.207   0.933   1.413
 8292WAT      O26457   3.986   1.045   1.312
 8292WAT     H126458   3.909   1.102   1.304
 8292WAT     H226459   4.004   1.016   1.223
 8293WAT      O26460   4.700   1.218   1.368
 8293WAT     H126461   4.774   1.252   1.318
 8293WAT     H226462   4.624   1.235   1.313
 8294WAT      O26463   3.484   0.719   1.448
 8294WAT     H126464   3.488   0.689   1.539
 8294WAT     H226465   3.569   0.759   1.432
 8295WAT      O26466   3.678   0.577   1.245
 8295WAT     H126467   3.625   0.527   1.182
 8295WAT     H226468   3.745   0.619   1.192
 8296WAT      O26469   4.568   1.023   1.222
 8296WAT     H126470   4.609   1.039   1.306
 8296WAT     H226471   4.474   1.036   1.238
 8297WAT      O26472   4.615   0.757   1.422
 8297WAT     H126473   4.673   0.682   1.413
 8297WAT     H226474   4.632   0.810   1.344
 8298WAT      O26475   3.727   0.273   1.253
 8298WAT     H126476   3.717   0.211   1.181
 8298WAT     H226477   3.669   0.346   1.230
 8299WAT      O26478   4.044   1.018   1.019
 8299WAT     H126479   4.086   1.103   1.001
 8299WAT     H226480   3.952   1.032   0.996
 8300WAT      O26481   4.277   0.792   1.157
 8300WAT     H126482   4.289   0.732   1.231
 8300WAT     H226483   4.363   0.795   1.115
 8301WAT      O26484   4.511   0.847   1.015
 8301WAT     H126485   4.459   0.899   0.954
 8301WAT     H226486   4.546   0.910   1.078
 8302WAT      O26487   3.829   1.649   1.130
 8302WAT     H126488   3.775   1.721   1.098
 8302WAT     H226489   3.854   1.601   1.051
 8303WAT      O26490   3.954   0.446   1.283
 8303WAT     H126491   4.013   0.415   1.351
 8303WAT     H226492   3.872   0.399   1.298
 8304WAT      O26493   4.436   0.408   1.306
 8304WAT     H126494   4.367   0.341   1.299
 8304WAT     H226495   4.508   0.363   1.350
 8305WAT      O26496   4.114   1.773   1.156
 8305WAT     H126497   4.107   1.863   1.187
 8305WAT     H226498   4.024   1.741   1.153
 8306WAT      O26499   3.255   1.505   0.486
 8306WAT     H126500   3.288   1.418   0.463
 8306WAT     H226501   3.298   1.526   0.569
 8307WAT      O26502   3.714   1.338   0.252
 8307WAT     H126503   3.684   1.326   0.342
 8307WAT     H226504   3.704   1.252   0.211
 8308WAT      O26505   3.304   1.592   0.760
 8308WAT     H126506   3.260   1.610   0.843
 8308WAT     H226507   3.360   1.668   0.746
 8309WAT      O26508   4.867   1.542   1.189
 8309WAT     H126509   4.807   1.548   1.115
 8309WAT     H226510   4.880   1.448   1.202
 8310WAT      O26511   3.287   0.843   0.396
 8310WAT     H126512   3.221   0.816   0.332
 8310WAT     H226513   3.371   0.832   0.351
 8311WAT      O26514   5.037   1.076   0.457
 8311WAT     H126515   5.075   0.998   0.417
 8311WAT     H226516   5.101   1.145   0.440
 8312WAT      O26517   4.736   1.215   0.999
 8312WAT     H126518   4.654   1.258   1.025
 8312WAT     H226519   4.776   1.276   0.937
 8313WAT      O26520   4.932   0.814   0.188
 8313WAT     H126521   4.894   0.737   0.145
 8313WAT     H226522   4.859   0.852   0.237
 8314WAT      O26523   3.391   0.882   0.850
 8314WAT     H126524   3.427   0.873   0.938
 8314WAT     H226525   3.334   0.805   0.840
 8315WAT      O26526   4.871   0.729   1.151
 8315WAT     H126527   4.848   0.706   1.061
 8315WAT     H226528   4.897   0.821   1.147
 8316WAT      O26529   3.346   0.573   1.241
 8316WAT     H126530   3.256   0.569   1.275
 8316WAT     H226531   3.400   0.593   1.317
 8317WAT      O26532   4.715   0.251   1.429
 8317WAT     H126533   4.802   0.252   1.467
 8317WAT     H226534   4.716   0.177   1.368
 8318WAT      O26535   4.859   0.636   0.518
 8318WAT     H126536   4.912   0.587   0.455
 8318WAT     H226537   4.918   0.650   0.592
 8319WAT      O26538   4.877   0.645   0.870
 8319WAT     H126539   4.782   0.641   0.882
 8319WAT     H226540   4.895   0.736   0.847
 8320WAT      O26541   4.951   0.426   0.365
 8320WAT     H126542   4.940   0.410   0.459
 8320WAT     H226543   5.027   0.373   0.341
 8321WAT      O26544   4.742   1.690   0.351
 8321WAT     H126545   4.801   1.658   0.284
 8321WAT     H226546   4.767   1.643   0.430
 8322WAT      O26547   3.532   1.333   1.366
 8322WAT     H126548   3.528   1.296   1.454
 8322WAT     H226549   3.545   1.427   1.380
 8323WAT      O26550   3.902   1.489   0.926
 8323WAT     H126551   3.878   1.515   0.838
 8323WAT     H226552   3.996   1.506   0.932
 8324WAT      O26553   5.028   1.691   1.006
 8324WAT     H126554   4.979   1.730   0.935
 8324WAT     H226555   4.967   1.628   1.046
 8325WAT      O26556   3.516   1.628   1.078
 8325WAT     H126557   3.457   1.615   1.152
 8325WAT     H226558   3.515   1.544   1.032
 8326WAT      O26559   4.797   1.755   0.734
 8326WAT     H126560   4.751   1.830   0.697
 8326WAT     H226561   4.734   1.683   0.728
 8327WAT      O26562   3.479   1.364   0.973
 8327WAT     H126563   3.406   1.302   0.967
 8327WAT     H226564   3.485   1.404   0.886
 8328WAT      O26565   3.840   1.586   0.652
 8328WAT     H126566   3.891   1.525   0.599
 8328WAT     H226567   3.905   1.636   0.701
 8329WAT      O26568   4.114   1.675   0.734
 8329WAT     H126569   4.142   1.649   0.647
 8329WAT     H226570   4.165   1.620   0.794
 8330WAT      O26571   3.307   1.696   0.294
 8330WAT     H126572   3.291   1.633   0.364
 8330WAT     H226573   3.221   1.717   0.259
 8331WAT      O26574   4.024   0.291   0.344
 8331WAT     H126575   3.943   0.253   0.310
 8331WAT     H226576   4.074   0.215   0.374
 8332WAT      O26577   4.120   1.767   1.471
 8332WAT     H126578   4.213   1.743   1.476
 8332WAT     H226579   4.119   1.850   1.423
 8333WAT      O26580   4.777   1.690   1.454
 8333WAT     H126581   4.856   1.640   1.433
 8333WAT     H226582   4.806   1.758   1.514
 8334WAT      O26583   2.512   8.287   6.051
 8334WAT     H126584   2.504   8.195   6.024
 8334WAT     H226585   2.471   8.336   5.981
 8335WAT      O26586   2.325   8.464   6.240
 8335WAT     H126587   2.248   8.416   6.269
 8335WAT     H226588   2.391   8.396   6.222
 8336WAT      O26589   1.727   8.496   6.327
 8336WAT     H126590   1.644   8.470   6.367
 8336WAT     H226591   1.788   8.503   6.401
 8337WAT      O26592   2.727   8.905   6.118
 8337WAT     H126593   2.681   8.828   6.150
 8337WAT     H226594   2.809   8.908   6.168
 8338WAT      O26595   1.725   8.899   6.347
 8338WAT     H126596   1.755   8.810   6.329
 8338WAT     H226597   1.799   8.955   6.324
 8339WAT      O26598   1.568   7.992   5.706
 8339WAT     H126599   1.479   8.026   5.696
 8339WAT     H226600   1.596   7.972   5.617
 8340WAT      O26601   1.364   8.252   6.294
 8340WAT     H126602   1.421   8.175   6.294
 8340WAT     H226603   1.364   8.282   6.203
 8341WAT      O26604   2.269   8.732   6.240
 8341WAT     H126605   2.263   8.638   6.224
 8341WAT     H226606   2.346   8.741   6.297
 8342WAT      O26607   1.489   7.792   6.473
 8342WAT     H126608   1.471   7.703   6.501
 8342WAT     H226609   1.448   7.847   6.540
 8343WAT      O26610   2.373   8.013   6.263
 8343WAT     H126611   2.410   7.925   6.252
 8343WAT     H226612   2.363   8.046   6.174
 8344WAT      O26613   1.786   7.850   5.809
 8344WAT     H126614   1.796   7.940   5.840
 8344WAT     H226615   1.695   7.845   5.780
 8345WAT      O26616   2.751   7.762   5.956
 8345WAT     H126617   2.833   7.713   5.960
 8345WAT     H226618   2.754   7.821   6.032
 8346WAT      O26619   1.550   8.042   6.334
 8346WAT     H126620   1.619   8.068   6.396
 8346WAT     H226621   1.519   7.958   6.367
 8347WAT      O26622   1.970   8.147   6.242
 8347WAT     H126623   2.020   8.197   6.306
 8347WAT     H226624   2.023   8.069   6.225
 8348WAT      O26625   2.437   8.622   5.819
 8348WAT     H126626   2.375   8.668   5.763
 8348WAT     H226627   2.488   8.691   5.861
 8349WAT      O26628   1.923   8.575   6.487
 8349WAT     H126629   1.890   8.637   6.551
 8349WAT     H226630   1.941   8.627   6.409
 8350WAT      O26631   2.774   7.956   6.234
 8350WAT     H126632   2.704   7.985   6.292
 8350WAT     H226633   2.811   8.037   6.198
 8351WAT      O26634   1.766   7.782   6.470
 8351WAT     H126635   1.800   7.866   6.440
 8351WAT     H226636   1.672   7.797   6.481
 8352WAT      O26637   1.374   8.691   5.556
 8352WAT     H126638   1.336   8.739   5.483
 8352WAT     H226639   1.399   8.758   5.619
 8353WAT      O26640   2.936   8.918   6.460
 8353WAT     H126641   2.868   8.985   6.459
 8353WAT     H226642   2.990   8.938   6.383
 8354WAT      O26643   3.081   7.901   6.273
 8354WAT     H126644   2.987   7.904   6.286
 8354WAT     H226645   3.114   7.982   6.311
 8355WAT      O26646   2.134   7.531   6.102
 8355WAT     H126647   2.165   7.475   6.031
 8355WAT     H226648   2.041   7.544   6.084
 8356WAT      O26649   2.819   8.775   5.840
 8356WAT     H126650   2.808   8.680   5.853
 8356WAT     H226651   2.819   8.811   5.929
 8357WAT      O26652   2.629   8.593   6.464
 8357WAT     H126653   2.671   8.571   6.381
 8357WAT     H226654   2.702   8.618   6.521
 8358WAT      O26655   2.373   8.337   5.776
 8358WAT     H126656   2.281   8.331   5.799
 8358WAT     H226657   2.389   8.431   5.764
 8359WAT      O26658   2.372   7.964   5.475
 8359WAT     H126659   2.278   7.980   5.484
 8359WAT     H226660   2.404   8.036   5.421
 8360WAT      O26661   3.024   8.433   6.473
 8360WAT     H126662   2.941   8.439   6.426
 8360WAT     H226663   3.084   8.491   6.426
 8361WAT      O26664   2.776   8.493   5.826
 8361WAT     H126665   2.714   8.460   5.761
 8361WAT     H226666   2.774   8.429   5.897
 8362WAT      O26667   2.720   8.111   6.568
 8362WAT     H126668   2.679   8.194   6.593
 8362WAT     H226669   2.647   8.053   6.549
 8363WAT      O26670   1.934   8.390   6.054
 8363WAT     H126671   1.893   8.319   6.004
 8363WAT     H226672   1.942   8.355   6.143
 8364WAT      O26673   1.981   8.758   6.270
 8364WAT     H126674   1.951   8.698   6.202
 8364WAT     H226675   2.076   8.762   6.259
 8365WAT      O26676   1.805   8.067   6.432
 8365WAT     H126677   1.860   8.078   6.354
 8365WAT     H226678   1.857   8.105   6.504
 8366WAT      O26679   2.594   8.417   5.527
 8366WAT     H126680   2.638   8.333   5.512
 8366WAT     H226681   2.665   8.481   5.535
 8367WAT      O26682   2.405   8.911   5.924
 8367WAT     H126683   2.449   8.985   5.882
 8367WAT     H226684   2.399   8.935   6.016
 8368WAT      O26685   2.952   7.543   5.358
 8368WAT     H126686   2.921   7.552   5.448
 8368WAT     H226687   3.028   7.600   5.353
 8369WAT      O26688   1.604   8.279   5.804
 8369WAT     H126689   1.592   8.352   5.743
 8369WAT     H226690   1.573   8.202   5.756
 8370WAT      O26691   1.368   8.596   6.385
 8370WAT     H126692   1.376   8.610   6.290
 8370WAT     H226693   1.429   8.526   6.404
 8371WAT      O26694   1.492   8.766   6.026
 8371WAT     H126695   1.451   8.781   5.940
 8371WAT     H226696   1.581   8.738   6.005
 8372WAT      O26697   2.642   8.961   5.515
 8372WAT     H126698   2.572   8.961   5.449
 8372WAT     H226699   2.716   8.918   5.472
 8373WAT      O26700   1.851   7.614   6.142
 8373WAT     H126701   1.806   7.692   6.109
 8373WAT     H226702   1.906   7.646   6.213
 8374WAT      O26703   2.162   7.576   5.630
 8374WAT     H126704   2.100   7.575   5.703
 8374WAT     H226705   2.153   7.489   5.591
 8375WAT      O26706   2.054   7.668   6.328
 8375WAT     H126707   2.084   7.759   6.320
 8375WAT     H226708   2.109   7.619   6.267
 8376WAT      O26709   1.830   8.126   5.915
 8376WAT     H126710   1.807   8.104   6.006
 8376WAT     H226711   1.752   8.169   5.881
 8377WAT      O26712   2.553   8.127   5.775
 8377WAT     H126713   2.493   8.199   5.757
 8377WAT     H226714   2.607   8.120   5.697
 8378WAT      O26715   2.413   7.990   5.978
 8378WAT     H126716   2.453   8.022   5.897
 8378WAT     H226717   2.449   7.902   5.989
 8379WAT      O26718   1.317   7.649   6.200
 8379WAT     H126719   1.288   7.706   6.272
 8379WAT     H226720   1.391   7.601   6.237
 8380WAT      O26721   1.336   8.043   5.321
 8380WAT     H126722   1.327   8.138   5.336
 8380WAT     H226723   1.300   8.029   5.233
 8381WAT      O26724   2.472   8.249   6.388
 8381WAT     H126725   2.399   8.300   6.422
 8381WAT     H226726   2.432   8.168   6.357
 8382WAT      O26727   2.116   7.917   6.228
 8382WAT     H126728   2.116   7.873   6.143
 8382WAT     H226729   2.205   7.949   6.239
 8383WAT      O26730   1.701   7.905   6.124
 8383WAT     H126731   1.667   7.953   6.200
 8383WAT     H226732   1.624   7.860   6.088
 8384WAT      O26733   2.122   8.017   5.527
 8384WAT     H126734   2.134   8.013   5.622
 8384WAT     H226735   2.083   8.103   5.512
 8385WAT      O26736   2.518   7.795   6.329
 8385WAT     H126737   2.520   7.840   6.413
 8385WAT     H226738   2.493   7.705   6.350
 8386WAT      O26739   2.023   8.248   5.467
 8386WAT     H126740   1.966   8.203   5.404
 8386WAT     H226741   2.094   8.284   5.414
 8387WAT      O26742   2.146   8.323   6.403
 8387WAT     H126743   2.182   8.275   6.477
 8387WAT     H226744   2.127   8.410   6.437
 8388WAT      O26745   1.432   7.797   6.016
 8388WAT     H126746   1.404   7.761   6.099
 8388WAT     H226747   1.426   7.724   5.954
 8389WAT      O26748   1.777   8.648   5.694
 8389WAT     H126749   1.700   8.594   5.678
 8389WAT     H226750   1.850   8.596   5.660
 8390WAT      O26751   2.853   8.547   6.273
 8390WAT     H126752   2.925   8.597   6.234
 8390WAT     H226753   2.833   8.479   6.209
 8391WAT      O26754   2.399   7.687   5.688
 8391WAT     H126755   2.318   7.637   5.680
 8391WAT     H226756   2.380   7.771   5.646
 8392WAT      O26757   2.671   8.124   5.517
 8392WAT     H126758   2.760   8.155   5.500
 8392WAT     H226759   2.668   8.036   5.478
 8393WAT      O26760   1.782   8.614   6.058
 8393WAT     H126761   1.834   8.534   6.053
 8393WAT     H226762   1.737   8.608   6.142
 8394WAT      O26763   2.271   8.741   5.585
 8394WAT     H126764   2.305   8.815   5.536
 8394WAT     H226765   2.188   8.772   5.622
 8395WAT      O26766   2.898   8.255   5.464
 8395WAT     H126767   2.890   8.298   5.379
 8395WAT     H226768   2.970   8.301   5.507
 8396WAT      O26769   3.001   8.940   5.737
 8396WAT     H126770   2.937   8.875   5.764
 8396WAT     H226771   2.962   8.981   5.659
 8397WAT      O26772   2.559   8.673   6.122
 8397WAT     H126773   2.594   8.613   6.056
 8397WAT     H226774   2.470   8.641   6.139
 8398WAT      O26775   2.167   8.749   5.862
 8398WAT     H126776   2.236   8.804   5.901
 8398WAT     H226777   2.089   8.804   5.866
 8399WAT      O26778   1.381   8.311   5.412
 8399WAT     H126779   1.468   8.339   5.440
 8399WAT     H226780   1.332   8.392   5.400
 8400WAT      O26781   2.098   8.450   5.824
 8400WAT     H126782   2.143   8.531   5.846
 8400WAT     H226783   2.063   8.418   5.907
 8401WAT      O26784   2.328   9.001   6.547
 8401WAT     H126785   2.392   9.021   6.614
 8401WAT     H226786   2.364   8.925   6.501
 8402WAT      O26787   1.688   7.484   5.871
 8402WAT     H126788   1.675   7.483   5.966
 8402WAT     H226789   1.605   7.518   5.836
 8403WAT      O26790   2.455   8.801   6.418
 8403WAT     H126791   2.520   8.731   6.430
 8403WAT     H226792   2.508   8.879   6.400
 8404WAT      O26793   2.840   8.829   5.391
 8404WAT     H126794   2.817   8.758   5.450
 8404WAT     H226795   2.801   8.805   5.307
 8405WAT      O26796   2.798   8.621   5.557
 8405WAT     H126797   2.769   8.667   5.636
 8405WAT     H226798   2.878   8.575   5.584
 8406WAT      O26799   2.020   8.970   5.550
 8406WAT     H126800   2.019   9.044   5.488
 8406WAT     H226801   1.928   8.946   5.559
 8407WAT      O26802   1.580   8.493   5.624
 8407WAT     H126803   1.519   8.567   5.625
 8407WAT     H226804   1.627   8.502   5.542
 8408WAT      O26805   2.537   7.909   6.592
 8408WAT     H126806   2.574   7.827   6.625
 8408WAT     H226807   2.451   7.915   6.634
 8409WAT      O26808   2.874   7.805   5.673
 8409WAT     H126809   2.811   7.815   5.601
 8409WAT     H226810   2.824   7.827   5.752
 8410WAT      O26811   2.318   8.977   5.416
 8410WAT     H126812   2.329   8.956   5.323
 8410WAT     H226813   2.228   8.951   5.437
 8411WAT      O26814   2.071   8.033   5.814
 8411WAT     H126815   2.000   8.079   5.859
 8411WAT     H226816   2.099   7.967   5.878
 8412WAT      O26817   2.474   7.705   5.958
 8412WAT     H126818   2.461   7.707   5.864
 8412WAT     H226819   2.569   7.710   5.970
 8413WAT      O26820   1.891   7.863   5.552
 8413WAT     H126821   1.976   7.907   5.545
 8413WAT     H226822   1.854   7.895   5.635
 8414WAT      O26823   2.783   8.321   6.043
 8414WAT     H126824   2.689   8.322   6.061
 8414WAT     H226825   2.815   8.242   6.088
 8415WAT      O26826   1.781   8.489   5.399
 8415WAT     H126827   1.858   8.478   5.456
 8415WAT     H226828   1.789   8.419   5.334
 8416WAT      O26829   1.650   8.232   5.468
 8416WAT     H126830   1.658   8.137   5.479
 8416WAT     H226831   1.740   8.265   5.478
 8417WAT      O26832   1.419   8.854   5.765
 8417WAT     H126833   1.326   8.878   5.764
 8417WAT     H226834   1.466   8.936   5.753
 8418WAT      O26835   2.093   8.686   5.347
 8418WAT     H126836   2.083   8.625   5.419
 8418WAT     H226837   2.077   8.634   5.268
 8419WAT      O26838   2.417   8.592   5.407
 8419WAT     H126839   2.362   8.637   5.472
 8419WAT     H226840   2.480   8.542   5.459
 8420WAT      O26841   1.984   8.488   5.597
 8420WAT     H126842   2.026   8.472   5.681
 8420WAT     H226843   1.997   8.407   5.547
 8421WAT      O26844   2.235   8.391   5.322
 8421WAT     H126845   2.287   8.319   5.285
 8421WAT     H226846   2.300   8.455   5.352
 8422WAT      O26847   2.126   7.639   6.589
 8422WAT     H126848   2.081   7.641   6.504
 8422WAT     H226849   2.062   7.599   6.648
 8423WAT      O26850   2.166   8.528   6.651
 8423WAT     H126851   2.208   8.613   6.634
 8423WAT     H226852   2.074   8.542   6.628
 8424WAT      O26853   1.874   8.096   5.291
 8424WAT     H126854   1.854   8.009   5.327
 8424WAT     H226855   1.857   8.087   5.198
 8425WAT      O26856   2.622   7.577   5.544
 8425WAT     H126857   2.650   7.492   5.580
 8425WAT     H226858   2.544   7.600   5.596
 8426WAT      O26859   1.754   7.806   5.290
 8426WAT     H126860   1.784   7.806   5.199
 8426WAT     H226861   1.827   7.771   5.340
 8427WAT      O26862   2.075   7.700   5.389
 8427WAT     H126863   2.041   7.632   5.331
 8427WAT     H226864   2.095   7.654   5.470
 8428WAT      O26865   1.656   8.736   5.373
 8428WAT     H126866   1.700   8.790   5.439
 8428WAT     H226867   1.704   8.654   5.374
 8429WAT      O26868   1.377   9.015   6.119
 8429WAT     H126869   1.410   8.928   6.095
 8429WAT     H226870   1.420   9.036   6.202
 8430WAT      O26871   1.837   8.848   5.885
 8430WAT     H126872   1.807   8.836   5.975
 8430WAT     H226873   1.826   8.762   5.844
 8431WAT      O26874   3.114   8.826   5.355
 8431WAT     H126875   3.031   8.833   5.402
 8431WAT     H226876   3.132   8.915   5.325
 8432WAT      O26877   3.059   8.501   5.605
 8432WAT     H126878   3.136   8.558   5.616
 8432WAT     H226879   3.061   8.444   5.682
 8433WAT      O26880   1.409   8.353   6.028
 8433WAT     H126881   1.344   8.326   5.964
 8433WAT     H226882   1.493   8.342   5.983
 8434WAT      O26883   3.160   8.586   6.090
 8434WAT     H126884   3.197   8.508   6.049
 8434WAT     H226885   3.224   8.655   6.072
 8435WAT      O26886   3.065   8.530   5.321
 8435WAT     H126887   3.092   8.621   5.308
 8435WAT     H226888   3.046   8.524   5.415
 8436WAT      O26889   2.704   7.832   5.450
 8436WAT     H126890   2.746   7.814   5.366
 8436WAT     H226891   2.674   7.747   5.482
 8437WAT      O26892   3.054   8.324   5.820
 8437WAT     H126893   3.017   8.247   5.777
 8437WAT     H226894   2.981   8.362   5.869
 8438WAT      O26895   1.513   8.391   6.482
 8438WAT     H126896   1.550   8.383   6.570
 8438WAT     H226897   1.456   8.315   6.472
 8439WAT      O26898   1.331   8.074   5.623
 8439WAT     H126899   1.240   8.100   5.605
 8439WAT     H226900   1.379   8.101   5.545
 8440WAT      O26901   2.982   8.146   6.150
 8440WAT     H126902   3.034   8.097   6.087
 8440WAT     H226903   3.040   8.160   6.225
 8441WAT      O26904   3.000   8.155   6.503
 8441WAT     H126905   2.905   8.151   6.514
 8441WAT     H226906   3.018   8.246   6.479
 8442WAT      O26907   1.585   7.980   5.414
 8442WAT     H126908   1.656   7.937   5.365
 8442WAT     H226909   1.513   7.986   5.350
 8443WAT      O26910   1.550   7.585   5.318
 8443WAT     H126911   1.622   7.639   5.349
 8443WAT     H226912   1.577   7.558   5.230
 8444WAT      O26913   2.931   8.072   5.744
 8444WAT     H126914   2.980   8.049   5.823
 8444WAT     H226915   2.911   7.988   5.703
 8445WAT      O26916   1.519   7.510   6.308
 8445WAT     H126917   1.584   7.455   6.264
 8445WAT     H226918   1.561   7.535   6.390
 8446WAT      O26919   3.074   7.935   5.998
 8446WAT     H126920   3.063   7.920   6.091
 8446WAT     H226921   3.150   7.883   5.973
 8447WAT      O26922   3.163   7.719   5.322
 8447WAT     H126923   3.255   7.705   5.301
 8447WAT     H226924   3.160   7.727   5.417
 8448WAT      O26925   3.170   7.796   5.584
 8448WAT     H126926   3.090   7.789   5.637
 8448WAT     H226927   3.190   7.889   5.583
 8449WAT      O26928   2.025   8.998   6.559
 8449WAT     H126929   2.001   9.025   6.470
 8449WAT     H226930   2.119   9.015   6.564
 8450WAT      O26931   2.583   7.467   6.531
 8450WAT     H126932   2.496   7.500   6.511
 8450WAT     H226933   2.572   7.419   6.613
 8451WAT      O26934   1.602   8.874   6.606
 8451WAT     H126935   1.529   8.812   6.599
 8451WAT     H226936   1.608   8.913   6.519
 8452WAT      O26937   2.358   7.558   6.425
 8452WAT     H126938   2.280   7.606   6.453
 8452WAT     H226939   2.329   7.468   6.414
 8453WAT      O26940   2.813   7.629   6.229
 8453WAT     H126941   2.857   7.623   6.144
 8453WAT     H226942   2.786   7.720   6.236
 8454WAT      O26943   2.999   7.592   6.030
 8454WAT     H126944   2.993   7.497   6.016
 8454WAT     H226945   3.077   7.603   6.085
 8455WAT      O26946   1.492   7.589   5.677
 8455WAT     H126947   1.568   7.600   5.620
 8455WAT     H226948   1.446   7.673   5.672
 8456WAT      O26949   2.146   7.800   5.976
 8456WAT     H126950   2.065   7.763   5.942
 8456WAT     H226951   2.197   7.725   6.006
 8457WAT      O26952   2.597   7.467   6.100
 8457WAT     H126953   2.657   7.524   6.147
 8457WAT     H226954   2.523   7.523   6.077
 8458WAT      O26955   2.911   7.507   5.627
 8458WAT     H126956   2.931   7.597   5.654
 8458WAT     H226957   2.832   7.484   5.676
 8459WAT      O26958   1.730   7.642   5.531
 8459WAT     H126959   1.782   7.563   5.518
 8459WAT     H226960   1.793   7.709   5.554
 8460WAT      O26961   1.949   7.615   5.836
 8460WAT     H126962   1.886   7.545   5.853
 8460WAT     H226963   1.895   7.691   5.815
 8461WAT      O26964   1.767   8.882   5.559
 8461WAT     H126965   1.704   8.928   5.614
 8461WAT     H226966   1.778   8.797   5.602
 8462WAT      O26967   2.512   8.287   4.174
 8462WAT     H126968   2.504   8.195   4.147
 8462WAT     H226969   2.471   8.336   4.103
 8463WAT      O26970   2.325   8.464   4.362
 8463WAT     H126971   2.248   8.416   4.391
 8463WAT     H226972   2.391   8.396   4.345
 8464WAT      O26973   1.727   8.496   4.450
 8464WAT     H126974   1.644   8.470   4.490
 8464WAT     H226975   1.788   8.503   4.523
 8465WAT      O26976   2.727   8.905   4.240
 8465WAT     H126977   2.681   8.828   4.273
 8465WAT     H226978   2.809   8.908   4.291
 8466WAT      O26979   1.725   8.899   4.469
 8466WAT     H126980   1.755   8.810   4.452
 8466WAT     H226981   1.799   8.955   4.447
 8467WAT      O26982   1.568   7.992   3.828
 8467WAT     H126983   1.479   8.026   3.818
 8467WAT     H226984   1.596   7.972   3.739
 8468WAT      O26985   1.364   8.252   4.417
 8468WAT     H126986   1.421   8.175   4.417
 8468WAT     H226987   1.364   8.282   4.326
 8469WAT      O26988   2.269   8.732   4.363
 8469WAT     H126989   2.263   8.638   4.347
 8469WAT     H226990   2.346   8.741   4.420
 8470WAT      O26991   1.489   7.792   4.595
 8470WAT     H126992   1.471   7.703   4.623
 8470WAT     H226993   1.448   7.847   4.663
 8471WAT      O26994   2.373   8.013   4.386
 8471WAT     H126995   2.410   7.925   4.374
 8471WAT     H226996   2.363   8.046   4.296
 8472WAT      O26997   1.786   7.850   3.932
 8472WAT     H126998   1.796   7.940   3.962
 8472WAT     H226999   1.695   7.845   3.903
 8473WAT      O27000   2.751   7.762   4.079
 8473WAT     H127001   2.833   7.713   4.083
 8473WAT     H227002   2.754   7.821   4.154
 8474WAT      O27003   1.550   8.042   4.456
 8474WAT     H127004   1.619   8.068   4.518
 8474WAT     H227005   1.519   7.958   4.490
 8475WAT      O27006   1.970   8.147   4.365
 8475WAT     H127007   2.020   8.197   4.429
 8475WAT     H227008   2.023   8.069   4.347
 8476WAT      O27009   3.180   7.964   4.735
 8476WAT     H127010   3.109   8.003   4.683
 8476WAT     H227011   3.206   8.033   4.795
 8477WAT      O27012   1.798   7.611   4.792
 8477WAT     H127013   1.798   7.662   4.711
 8477WAT     H227014   1.715   7.563   4.789
 8478WAT      O27015   2.437   8.622   3.941
 8478WAT     H127016   2.375   8.668   3.885
 8478WAT     H227017   2.488   8.691   3.983
 8479WAT      O27018   1.923   8.575   4.609
 8479WAT     H127019   1.890   8.637   4.674
 8479WAT     H227020   1.941   8.627   4.531
 8480WAT      O27021   2.774   7.956   4.356
 8480WAT     H127022   2.704   7.985   4.414
 8480WAT     H227023   2.811   8.037   4.320
 8481WAT      O27024   1.766   7.782   4.592
 8481WAT     H127025   1.800   7.866   4.563
 8481WAT     H227026   1.672   7.797   4.604
 8482WAT      O27027   1.844   8.772   4.791
 8482WAT     H127028   1.906   8.839   4.763
 8482WAT     H227029   1.758   8.812   4.782
 8483WAT      O27030   1.374   8.691   3.679
 8483WAT     H127031   1.336   8.739   3.606
 8483WAT     H227032   1.399   8.758   3.742
 8484WAT      O27033   2.936   8.918   4.582
 8484WAT     H127034   2.868   8.985   4.582
 8484WAT     H227035   2.990   8.938   4.506
 8485WAT      O27036   3.081   7.901   4.395
 8485WAT     H127037   2.987   7.904   4.408
 8485WAT     H227038   3.114   7.982   4.434
 8486WAT      O27039   2.134   7.531   4.225
 8486WAT     H127040   2.165   7.475   4.153
 8486WAT     H227041   2.041   7.544   4.206
 8487WAT      O27042   2.819   8.775   3.963
 8487WAT     H127043   2.808   8.680   3.975
 8487WAT     H227044   2.819   8.811   4.051
 8488WAT      O27045   2.629   8.593   4.587
 8488WAT     H127046   2.671   8.571   4.503
 8488WAT     H227047   2.702   8.618   4.644
 8489WAT      O27048   2.373   8.337   3.898
 8489WAT     H127049   2.281   8.331   3.921
 8489WAT     H227050   2.389   8.431   3.887
 8490WAT      O27051   2.372   7.964   3.598
 8490WAT     H127052   2.278   7.980   3.607
 8490WAT     H227053   2.404   8.036   3.543
 8491WAT      O27054   3.024   8.433   4.596
 8491WAT     H127055   2.941   8.439   4.548
 8491WAT     H227056   3.084   8.491   4.549
 8492WAT      O27057   2.776   8.493   3.949
 8492WAT     H127058   2.714   8.460   3.884
 8492WAT     H227059   2.774   8.429   4.019
 8493WAT      O27060   2.720   8.111   4.690
 8493WAT     H127061   2.679   8.194   4.716
 8493WAT     H227062   2.647   8.053   4.671
 8494WAT      O27063   1.934   8.390   4.177
 8494WAT     H127064   1.893   8.319   4.127
 8494WAT     H227065   1.942   8.355   4.265
 8495WAT      O27066   1.981   8.758   4.393
 8495WAT     H127067   1.951   8.698   4.325
 8495WAT     H227068   2.076   8.762   4.382
 8496WAT      O27069   1.805   8.067   4.555
 8496WAT     H127070   1.860   8.078   4.477
 8496WAT     H227071   1.857   8.105   4.626
 8497WAT      O27072   1.890   8.732   5.058
 8497WAT     H127073   1.800   8.755   5.083
 8497WAT     H227074   1.892   8.745   4.963
 8498WAT      O27075   2.594   8.417   3.649
 8498WAT     H127076   2.638   8.333   3.635
 8498WAT     H227077   2.665   8.481   3.658
 8499WAT      O27078   1.773   8.419   4.916
 8499WAT     H127079   1.759   8.507   4.952
 8499WAT     H227080   1.684   8.385   4.901
 8500WAT      O27081   2.405   8.911   4.046
 8500WAT     H127082   2.449   8.985   4.005
 8500WAT     H227083   2.399   8.935   4.139
 8501WAT      O27084   1.952   9.014   5.136
 8501WAT     H127085   1.949   9.054   5.050
 8501WAT     H227086   1.936   8.921   5.120
 8502WAT      O27087   2.952   7.543   3.481
 8502WAT     H127088   2.921   7.552   3.571
 8502WAT     H227089   3.028   7.600   3.476
 8503WAT      O27090   1.604   8.279   3.927
 8503WAT     H127091   1.592   8.352   3.865
 8503WAT     H227092   1.573   8.202   3.879
 8504WAT      O27093   1.368   8.596   4.507
 8504WAT     H127094   1.376   8.610   4.413
 8504WAT     H227095   1.429   8.526   4.527
 8505WAT      O27096   1.492   8.766   4.148
 8505WAT     H127097   1.451   8.781   4.063
 8505WAT     H227098   1.581   8.738   4.128
 8506WAT      O27099   3.088   8.811   4.982
 8506WAT     H127100   3.100   8.787   4.890
 8506WAT     H227101   3.092   8.728   5.029
 8507WAT      O27102   2.642   8.961   3.638
 8507WAT     H127103   2.572   8.961   3.572
 8507WAT     H227104   2.716   8.918   3.595
 8508WAT      O27105   3.073   8.016   5.079
 8508WAT     H127106   3.012   8.067   5.026
 8508WAT     H227107   3.041   7.926   5.073
 8509WAT      O27108   1.373   8.701   4.761
 8509WAT     H127109   1.390   8.654   4.679
 8509WAT     H227110   1.420   8.650   4.828
 8510WAT      O27111   1.851   7.614   4.265
 8510WAT     H127112   1.806   7.692   4.232
 8510WAT     H227113   1.906   7.646   4.336
 8511WAT      O27114   2.279   7.900   4.825
 8511WAT     H127115   2.233   7.921   4.906
 8511WAT     H227116   2.239   7.819   4.795
 8512WAT      O27117   2.779   8.022   4.938
 8512WAT     H127118   2.694   7.992   4.970
 8512WAT     H227119   2.763   8.047   4.847
 8513WAT      O27120   2.489   8.172   5.148
 8513WAT     H127121   2.521   8.089   5.114
 8513WAT     H227122   2.568   8.225   5.163
 8514WAT      O27123   2.162   7.576   3.753
 8514WAT     H127124   2.100   7.575   3.825
 8514WAT     H227125   2.153   7.489   3.713
 8515WAT      O27126   2.054   7.668   4.451
 8515WAT     H127127   2.084   7.759   4.443
 8515WAT     H227128   2.109   7.619   4.389
 8516WAT      O27129   1.830   8.126   4.038
 8516WAT     H127130   1.807   8.104   4.128
 8516WAT     H227131   1.752   8.169   4.003
 8517WAT      O27132   2.553   8.127   3.898
 8517WAT     H127133   2.493   8.199   3.879
 8517WAT     H227134   2.607   8.120   3.819
 8518WAT      O27135   2.074   8.216   5.104
 8518WAT     H127136   2.064   8.122   5.089
 8518WAT     H227137   2.158   8.238   5.065
 8519WAT      O27138   2.413   7.990   4.101
 8519WAT     H127139   2.453   8.022   4.019
 8519WAT     H227140   2.449   7.902   4.112
 8520WAT      O27141   1.587   7.857   4.920
 8520WAT     H127142   1.547   7.942   4.940
 8520WAT     H227143   1.518   7.793   4.939
 8521WAT      O27144   2.244   7.865   5.227
 8521WAT     H127145   2.175   7.846   5.290
 8521WAT     H227146   2.319   7.894   5.280
 8522WAT      O27147   1.317   7.649   4.323
 8522WAT     H127148   1.288   7.706   4.394
 8522WAT     H227149   1.391   7.601   4.359
 8523WAT      O27150   1.336   8.043   3.444
 8523WAT     H127151   1.327   8.138   3.458
 8523WAT     H227152   1.300   8.029   3.356
 8524WAT      O27153   2.472   8.249   4.510
 8524WAT     H127154   2.399   8.300   4.545
 8524WAT     H227155   2.432   8.168   4.480
 8525WAT      O27156   2.116   7.917   4.351
 8525WAT     H127157   2.116   7.873   4.266
 8525WAT     H227158   2.205   7.949   4.361
 8526WAT      O27159   1.701   7.905   4.247
 8526WAT     H127160   1.667   7.953   4.322
 8526WAT     H227161   1.624   7.860   4.211
 8527WAT      O27162   2.122   8.017   3.650
 8527WAT     H127163   2.134   8.013   3.745
 8527WAT     H227164   2.083   8.103   3.634
 8528WAT      O27165   2.518   7.795   4.451
 8528WAT     H127166   2.520   7.840   4.536
 8528WAT     H227167   2.493   7.705   4.473
 8529WAT      O27168   2.023   8.248   3.590
 8529WAT     H127169   1.966   8.203   3.527
 8529WAT     H227170   2.094   8.284   3.536
 8530WAT      O27171   2.861   7.536   5.035
 8530WAT     H127172   2.893   7.463   5.088
 8530WAT     H227173   2.864   7.504   4.945
 8531WAT      O27174   1.531   8.638   4.977
 8531WAT     H127175   1.492   8.574   5.037
 8531WAT     H227176   1.562   8.708   5.034
 8532WAT      O27177   2.146   8.323   4.525
 8532WAT     H127178   2.182   8.275   4.600
 8532WAT     H227179   2.127   8.410   4.559
 8533WAT      O27180   1.432   7.797   4.138
 8533WAT     H127181   1.404   7.761   4.222
 8533WAT     H227182   1.426   7.724   4.077
 8534WAT      O27183   1.925   8.227   4.757
 8534WAT     H127184   1.894   8.315   4.780
 8534WAT     H227185   2.020   8.233   4.761
 8535WAT      O27186   1.777   8.648   3.817
 8535WAT     H127187   1.700   8.594   3.801
 8535WAT     H227188   1.850   8.596   3.783
 8536WAT      O27189   2.853   8.547   4.396
 8536WAT     H127190   2.925   8.597   4.357
 8536WAT     H227191   2.833   8.479   4.332
 8537WAT      O27192   2.399   7.687   3.810
 8537WAT     H127193   2.318   7.637   3.803
 8537WAT     H227194   2.380   7.771   3.769
 8538WAT      O27195   2.392   8.554   4.985
 8538WAT     H127196   2.385   8.462   4.959
 8538WAT     H227197   2.329   8.564   5.056
 8539WAT      O27198   2.671   8.124   3.640
 8539WAT     H127199   2.760   8.155   3.622
 8539WAT     H227200   2.668   8.036   3.601
 8540WAT      O27201   1.782   8.614   4.181
 8540WAT     H127202   1.834   8.534   4.175
 8540WAT     H227203   1.737   8.608   4.265
 8541WAT      O27204   2.271   8.741   3.708
 8541WAT     H127205   2.305   8.815   3.658
 8541WAT     H227206   2.188   8.772   3.744
 8542WAT      O27207   1.530   8.311   4.872
 8542WAT     H127208   1.494   8.377   4.931
 8542WAT     H227209   1.501   8.228   4.909
 8543WAT      O27210   1.850   8.357   5.160
 8543WAT     H127211   1.820   8.371   5.071
 8543WAT     H227212   1.928   8.301   5.151
 8544WAT      O27213   2.385   8.836   4.960
 8544WAT     H127214   2.386   8.743   4.938
 8544WAT     H227215   2.314   8.845   5.024
 8545WAT      O27216   2.898   8.255   3.587
 8545WAT     H127217   2.890   8.298   3.502
 8545WAT     H227218   2.970   8.301   3.630
 8546WAT      O27219   3.006   8.501   4.894
 8546WAT     H127220   2.933   8.560   4.875
 8546WAT     H227221   3.059   8.500   4.815
 8547WAT      O27222   3.001   8.940   3.860
 8547WAT     H127223   2.937   8.875   3.887
 8547WAT     H227224   2.962   8.981   3.782
 8548WAT      O27225   2.559   8.673   4.244
 8548WAT     H127226   2.594   8.613   4.178
 8548WAT     H227227   2.470   8.641   4.261
 8549WAT      O27228   2.167   8.749   3.985
 8549WAT     H127229   2.236   8.804   4.023
 8549WAT     H227230   2.089   8.804   3.989
 8550WAT      O27231   1.381   8.311   3.534
 8550WAT     H127232   1.468   8.339   3.563
 8550WAT     H227233   1.332   8.392   3.523
 8551WAT      O27234   2.098   8.450   3.946
 8551WAT     H127235   2.143   8.531   3.969
 8551WAT     H227236   2.063   8.418   4.029
 8552WAT      O27237   2.328   9.001   4.669
 8552WAT     H127238   2.392   9.021   4.737
 8552WAT     H227239   2.364   8.925   4.624
 8553WAT      O27240   1.688   7.484   3.993
 8553WAT     H127241   1.675   7.483   4.088
 8553WAT     H227242   1.605   7.518   3.958
 8554WAT      O27243   2.455   8.801   4.541
 8554WAT     H127244   2.520   8.731   4.552
 8554WAT     H227245   2.508   8.879   4.523
 8555WAT      O27246   2.840   8.829   3.513
 8555WAT     H127247   2.817   8.758   3.573
 8555WAT     H227248   2.801   8.805   3.430
 8556WAT      O27249   2.633   8.881   4.861
 8556WAT     H127250   2.666   8.940   4.929
 8556WAT     H227251   2.541   8.868   4.884
 8557WAT      O27252   1.388   7.660   4.940
 8557WAT     H127253   1.316   7.680   5.000
 8557WAT     H227254   1.430   7.582   4.977
 8558WAT      O27255   2.798   8.621   3.679
 8558WAT     H127256   2.769   8.667   3.758
 8558WAT     H227257   2.878   8.575   3.706
 8559WAT      O27258   1.417   9.059   5.038
 8559WAT     H127259   1.427   8.965   5.024
 8559WAT     H227260   1.351   9.085   4.973
 8560WAT      O27261   2.216   8.886   5.178
 8560WAT     H127262   2.184   8.814   5.233
 8560WAT     H227263   2.148   8.953   5.186
 8561WAT      O27264   2.020   8.970   3.673
 8561WAT     H127265   2.019   9.044   3.611
 8561WAT     H227266   1.928   8.946   3.682
 8562WAT      O27267   1.580   8.493   3.747
 8562WAT     H127268   1.519   8.567   3.748
 8562WAT     H227269   1.627   8.502   3.664
 8563WAT      O27270   2.537   7.909   4.715
 8563WAT     H127271   2.574   7.827   4.747
 8563WAT     H227272   2.451   7.915   4.756
 8564WAT      O27273   2.874   7.805   3.795
 8564WAT     H127274   2.811   7.815   3.724
 8564WAT     H227275   2.824   7.827   3.874
 8565WAT      O27276   2.318   8.977   3.539
 8565WAT     H127277   2.329   8.956   3.446
 8565WAT     H227278   2.228   8.951   3.559
 8566WAT      O27279   2.071   8.033   3.937
 8566WAT     H127280   2.000   8.079   3.981
 8566WAT     H227281   2.099   7.967   4.000
 8567WAT      O27282   2.233   8.175   4.737
 8567WAT     H127283   2.283   8.222   4.803
 8567WAT     H227284   2.247   8.082   4.758
 8568WAT      O27285   2.474   7.705   4.081
 8568WAT     H127286   2.461   7.707   3.986
 8568WAT     H227287   2.569   7.710   4.093
 8569WAT      O27288   1.891   7.863   3.675
 8569WAT     H127289   1.976   7.907   3.668
 8569WAT     H227290   1.854   7.895   3.757
 8570WAT      O27291   2.954   7.796   4.821
 8570WAT     H127292   2.904   7.870   4.855
 8570WAT     H227293   3.035   7.835   4.790
 8571WAT      O27294   2.783   8.321   4.166
 8571WAT     H127295   2.689   8.322   4.183
 8571WAT     H227296   2.815   8.242   4.210
 8572WAT      O27297   1.781   8.489   3.522
 8572WAT     H127298   1.858   8.478   3.578
 8572WAT     H227299   1.789   8.419   3.457
 8573WAT      O27300   1.650   8.232   3.590
 8573WAT     H127301   1.658   8.137   3.601
 8573WAT     H227302   1.740   8.265   3.601
 8574WAT      O27303   1.419   8.854   3.888
 8574WAT     H127304   1.326   8.878   3.887
 8574WAT     H227305   1.466   8.936   3.876
 8575WAT      O27306   2.515   8.776   5.214
 8575WAT     H127307   2.454   8.778   5.140
 8575WAT     H227308   2.484   8.703   5.268
 8576WAT      O27309   1.403   8.414   5.114
 8576WAT     H127310   1.453   8.356   5.171
 8576WAT     H227311   1.329   8.443   5.168
 8577WAT      O27312   2.093   8.686   3.469
 8577WAT     H127313   2.083   8.625   3.542
 8577WAT     H227314   2.077   8.634   3.391
 8578WAT      O27315   2.108   8.555   5.067
 8578WAT     H127316   2.032   8.612   5.059
 8578WAT     H227317   2.127   8.526   4.978
 8579WAT      O27318   2.417   8.592   3.530
 8579WAT     H127319   2.362   8.637   3.594
 8579WAT     H227320   2.480   8.542   3.582
 8580WAT      O27321   2.823   8.728   5.123
 8580WAT     H127322   2.897   8.762   5.073
 8580WAT     H227323   2.746   8.745   5.068
 8581WAT      O27324   1.606   8.228   5.203
 8581WAT     H127325   1.610   8.199   5.294
 8581WAT     H227326   1.692   8.268   5.187
 8582WAT      O27327   1.984   8.488   3.719
 8582WAT     H127328   2.026   8.472   3.804
 8582WAT     H227329   1.997   8.407   3.670
 8583WAT      O27330   1.800   8.086   5.000
 8583WAT     H127331   1.747   8.037   4.937
 8583WAT     H227332   1.867   8.129   4.947
 8584WAT      O27333   2.235   8.391   3.444
 8584WAT     H127334   2.287   8.319   3.407
 8584WAT     H227335   2.300   8.455   3.474
 8585WAT      O27336   2.690   8.533   4.976
 8585WAT     H127337   2.732   8.548   5.061
 8585WAT     H227338   2.597   8.546   4.993
 8586WAT      O27339   2.737   8.267   5.177
 8586WAT     H127340   2.796   8.192   5.168
 8586WAT     H227341   2.755   8.320   5.099
 8587WAT      O27342   1.849   7.783   5.008
 8587WAT     H127343   1.840   7.721   4.936
 8587WAT     H227344   1.791   7.856   4.985
 8588WAT      O27345   2.126   7.639   4.711
 8588WAT     H127346   2.081   7.641   4.627
 8588WAT     H227347   2.062   7.599   4.771
 8589WAT      O27348   2.166   8.528   4.773
 8589WAT     H127349   2.208   8.613   4.756
 8589WAT     H227350   2.074   8.542   4.750
 8590WAT      O27351   2.400   8.301   4.912
 8590WAT     H127352   2.412   8.242   4.986
 8590WAT     H227353   2.486   8.305   4.870
 8591WAT      O27354   2.634   8.357   4.769
 8591WAT     H127355   2.581   8.409   4.709
 8591WAT     H227356   2.668   8.420   4.832
 8592WAT      O27357   1.874   8.096   3.414
 8592WAT     H127358   1.854   8.009   3.450
 8592WAT     H227359   1.857   8.087   3.320
 8593WAT      O27360   2.077   7.956   5.038
 8593WAT     H127361   2.136   7.925   5.106
 8593WAT     H227362   1.995   7.908   5.053
 8594WAT      O27363   2.559   7.917   5.061
 8594WAT     H127364   2.490   7.851   5.054
 8594WAT     H227365   2.631   7.873   5.105
 8595WAT      O27366   2.622   7.577   3.667
 8595WAT     H127367   2.650   7.492   3.702
 8595WAT     H227368   2.544   7.600   3.718
 8596WAT      O27369   1.754   7.806   3.413
 8596WAT     H127370   1.784   7.806   3.322
 8596WAT     H227371   1.827   7.771   3.462
 8597WAT      O27372   2.075   7.700   3.511
 8597WAT     H127373   2.041   7.632   3.453
 8597WAT     H227374   2.095   7.654   3.593
 8598WAT      O27375   1.656   8.736   3.496
 8598WAT     H127376   1.700   8.790   3.562
 8598WAT     H227377   1.704   8.654   3.497
 8599WAT      O27378   1.377   9.015   4.241
 8599WAT     H127379   1.410   8.928   4.218
 8599WAT     H227380   1.420   9.036   4.324
 8600WAT      O27381   1.837   8.848   4.007
 8600WAT     H127382   1.807   8.836   4.097
 8600WAT     H227383   1.826   8.762   3.966
 8601WAT      O27384   2.990   9.052   4.944
 8601WAT     H127385   2.930   9.058   4.869
 8601WAT     H227386   3.003   8.958   4.957
 8602WAT      O27387   3.114   8.826   3.477
 8602WAT     H127388   3.031   8.833   3.525
 8602WAT     H227389   3.132   8.915   3.447
 8603WAT      O27390   3.059   8.501   3.728
 8603WAT     H127391   3.136   8.558   3.738
 8603WAT     H227392   3.061   8.444   3.805
 8604WAT      O27393   1.409   8.353   4.151
 8604WAT     H127394   1.344   8.326   4.086
 8604WAT     H227395   1.493   8.342   4.106
 8605WAT      O27396   3.160   8.586   4.212
 8605WAT     H127397   3.197   8.508   4.172
 8605WAT     H227398   3.224   8.655   4.194
 8606WAT      O27399   2.858   8.724   4.754
 8606WAT     H127400   2.777   8.767   4.780
 8606WAT     H227401   2.899   8.786   4.692
 8607WAT      O27402   3.065   8.530   3.444
 8607WAT     H127403   3.092   8.621   3.431
 8607WAT     H227404   3.046   8.524   3.537
 8608WAT      O27405   2.704   7.832   3.573
 8608WAT     H127406   2.746   7.814   3.489
 8608WAT     H227407   2.674   7.747   3.604
 8609WAT      O27408   3.054   8.324   3.943
 8609WAT     H127409   3.017   8.247   3.900
 8609WAT     H227410   2.981   8.362   3.992
 8610WAT      O27411   1.513   8.391   4.605
 8610WAT     H127412   1.550   8.383   4.693
 8610WAT     H227413   1.456   8.315   4.595
 8611WAT      O27414   2.993   8.238   4.906
 8611WAT     H127415   2.970   8.215   4.816
 8611WAT     H227416   3.019   8.330   4.902
 8612WAT      O27417   1.468   8.083   4.995
 8612WAT     H127418   1.379   8.079   5.029
 8612WAT     H227419   1.522   8.102   5.072
 8613WAT      O27420   2.837   7.761   5.184
 8613WAT     H127421   2.925   7.762   5.222
 8613WAT     H227422   2.838   7.687   5.123
 8614WAT      O27423   1.331   8.074   3.745
 8614WAT     H127424   1.240   8.100   3.728
 8614WAT     H227425   1.379   8.101   3.667
 8615WAT      O27426   2.982   8.146   4.273
 8615WAT     H127427   3.034   8.097   4.210
 8615WAT     H227428   3.040   8.160   4.347
 8616WAT      O27429   3.000   8.155   4.625
 8616WAT     H127430   2.905   8.151   4.637
 8616WAT     H227431   3.018   8.246   4.602
 8617WAT      O27432   1.585   7.980   3.536
 8617WAT     H127433   1.656   7.937   3.488
 8617WAT     H227434   1.513   7.986   3.473
 8618WAT      O27435   1.550   7.585   3.440
 8618WAT     H127436   1.622   7.639   3.472
 8618WAT     H227437   1.577   7.558   3.353
 8619WAT      O27438   2.931   8.072   3.867
 8619WAT     H127439   2.980   8.049   3.945
 8619WAT     H227440   2.911   7.988   3.825
 8620WAT      O27441   1.519   7.510   4.430
 8620WAT     H127442   1.584   7.455   4.386
 8620WAT     H227443   1.561   7.535   4.512
 8621WAT      O27444   3.074   7.935   4.120
 8621WAT     H127445   3.063   7.920   4.214
 8621WAT     H227446   3.150   7.883   4.096
 8622WAT      O27447   2.908   7.529   4.766
 8622WAT     H127448   2.972   7.591   4.803
 8622WAT     H227449   2.923   7.533   4.672
 8623WAT      O27450   3.163   7.719   3.444
 8623WAT     H127451   3.255   7.705   3.423
 8623WAT     H227452   3.160   7.727   3.540
 8624WAT      O27453   3.170   7.796   3.707
 8624WAT     H127454   3.090   7.789   3.760
 8624WAT     H227455   3.190   7.889   3.706
 8625WAT      O27456   1.494   7.526   4.705
 8625WAT     H127457   1.459   7.571   4.781
 8625WAT     H227458   1.461   7.436   4.713
 8626WAT      O27459   1.655   8.843   5.121
 8626WAT     H127460   1.650   8.806   5.209
 8626WAT     H227461   1.668   8.937   5.135
 8627WAT      O27462   2.025   8.998   4.681
 8627WAT     H127463   2.001   9.025   4.593
 8627WAT     H227464   2.119   9.015   4.687
 8628WAT      O27465   2.245   7.645   5.057
 8628WAT     H127466   2.239   7.704   5.132
 8628WAT     H227467   2.339   7.634   5.042
 8629WAT      O27468   2.509   7.610   5.021
 8629WAT     H127469   2.570   7.642   4.955
 8629WAT     H227470   2.564   7.562   5.083
 8630WAT      O27471   1.561   7.478   5.032
 8630WAT     H127472   1.616   7.460   4.956
 8630WAT     H227473   1.568   7.399   5.086
 8631WAT      O27474   2.583   7.467   4.653
 8631WAT     H127475   2.496   7.500   4.633
 8631WAT     H227476   2.572   7.419   4.736
 8632WAT      O27477   2.674   7.687   4.792
 8632WAT     H127478   2.641   7.606   4.754
 8632WAT     H227479   2.769   7.683   4.779
 8633WAT      O27480   1.602   8.874   4.728
 8633WAT     H127481   1.529   8.812   4.721
 8633WAT     H227482   1.608   8.913   4.641
 8634WAT      O27483   2.358   7.558   4.547
 8634WAT     H127484   2.280   7.606   4.575
 8634WAT     H227485   2.329   7.468   4.536
 8635WAT      O27486   2.813   7.629   4.352
 8635WAT     H127487   2.857   7.623   4.267
 8635WAT     H227488   2.786   7.720   4.359
 8636WAT      O27489   2.999   7.592   4.153
 8636WAT     H127490   2.993   7.497   4.138
 8636WAT     H227491   3.077   7.603   4.207
 8637WAT      O27492   1.492   7.589   3.799
 8637WAT     H127493   1.568   7.600   3.742
 8637WAT     H227494   1.446   7.673   3.795
 8638WAT      O27495   2.146   7.800   4.098
 8638WAT     H127496   2.065   7.763   4.064
 8638WAT     H227497   2.197   7.725   4.129
 8639WAT      O27498   2.597   7.467   4.222
 8639WAT     H127499   2.657   7.524   4.270
 8639WAT     H227500   2.523   7.523   4.200
 8640WAT      O27501   2.911   7.507   3.750
 8640WAT     H127502   2.931   7.597   3.776
 8640WAT     H227503   2.832   7.484   3.799
 8641WAT      O27504   1.730   7.642   3.653
 8641WAT     H127505   1.782   7.563   3.641
 8641WAT     H227506   1.793   7.709   3.677
 8642WAT      O27507   1.949   7.615   3.959
 8642WAT     H127508   1.886   7.545   3.976
 8642WAT     H227509   1.895   7.691   3.937
 8643WAT      O27510   1.961   7.543   5.202
 8643WAT     H127511   1.933   7.593   5.126
 8643WAT     H227512   2.000   7.463   5.166
 8644WAT      O27513   1.767   8.882   3.682
 8644WAT     H127514   1.704   8.928   3.736
 8644WAT     H227515   1.778   8.797   3.725
 8645WAT      O27516   2.622   7.485   5.260
 8645WAT     H127517   2.610   7.517   5.350
 8645WAT     H227518   2.703   7.525   5.231
 8646WAT      O27519   2.512   8.287   2.297
 8646WAT     H127520   2.504   8.195   2.270
 8646WAT     H227521   2.471   8.336   2.226
 8647WAT      O27522   2.325   8.464   2.485
 8647WAT     H127523   2.248   8.416   2.514
 8647WAT     H227524   2.391   8.396   2.467
 8648WAT      O27525   1.727   8.496   2.572
 8648WAT     H127526   1.644   8.470   2.612
 8648WAT     H227527   1.788   8.503   2.646
 8649WAT      O27528   2.727   8.905   2.363
 8649WAT     H127529   2.681   8.828   2.396
 8649WAT     H227530   2.809   8.908   2.413
 8650WAT      O27531   1.725   8.899   2.592
 8650WAT     H127532   1.755   8.810   2.574
 8650WAT     H227533   1.799   8.955   2.569
 8651WAT      O27534   1.568   7.992   1.951
 8651WAT     H127535   1.479   8.026   1.941
 8651WAT     H227536   1.596   7.972   1.862
 8652WAT      O27537   1.364   8.252   2.539
 8652WAT     H127538   1.421   8.175   2.539
 8652WAT     H227539   1.364   8.282   2.448
 8653WAT      O27540   2.269   8.732   2.485
 8653WAT     H127541   2.263   8.638   2.469
 8653WAT     H227542   2.346   8.741   2.543
 8654WAT      O27543   1.489   7.792   2.718
 8654WAT     H127544   1.471   7.703   2.746
 8654WAT     H227545   1.448   7.847   2.785
 8655WAT      O27546   2.751   7.762   2.201
 8655WAT     H127547   2.833   7.713   2.206
 8655WAT     H227548   2.754   7.821   2.277
 8656WAT      O27549   1.550   8.042   2.579
 8656WAT     H127550   1.619   8.068   2.641
 8656WAT     H227551   1.519   7.958   2.612
 8657WAT      O27552   1.970   8.147   2.488
 8657WAT     H127553   2.020   8.197   2.552
 8657WAT     H227554   2.023   8.069   2.470
 8658WAT      O27555   3.180   7.964   2.858
 8658WAT     H127556   3.109   8.003   2.806
 8658WAT     H227557   3.206   8.033   2.918
 8659WAT      O27558   1.798   7.611   2.914
 8659WAT     H127559   1.798   7.662   2.834
 8659WAT     H227560   1.715   7.563   2.912
 8660WAT      O27561   2.437   8.622   2.064
 8660WAT     H127562   2.375   8.668   2.008
 8660WAT     H227563   2.488   8.691   2.106
 8661WAT      O27564   1.923   8.575   2.732
 8661WAT     H127565   1.890   8.637   2.796
 8661WAT     H227566   1.941   8.627   2.654
 8662WAT      O27567   1.766   7.782   2.715
 8662WAT     H127568   1.800   7.866   2.685
 8662WAT     H227569   1.672   7.797   2.727
 8663WAT      O27570   1.844   8.772   2.913
 8663WAT     H127571   1.906   8.839   2.885
 8663WAT     H227572   1.758   8.812   2.904
 8664WAT      O27573   1.374   8.691   1.801
 8664WAT     H127574   1.336   8.739   1.728
 8664WAT     H227575   1.399   8.758   1.865
 8665WAT      O27576   2.936   8.918   2.705
 8665WAT     H127577   2.868   8.985   2.704
 8665WAT     H227578   2.990   8.938   2.628
 8666WAT      O27579   3.081   7.901   2.518
 8666WAT     H127580   2.987   7.904   2.531
 8666WAT     H227581   3.114   7.982   2.556
 8667WAT      O27582   2.819   8.775   2.085
 8667WAT     H127583   2.808   8.680   2.098
 8667WAT     H227584   2.819   8.811   2.174
 8668WAT      O27585   2.629   8.593   2.709
 8668WAT     H127586   2.671   8.571   2.626
 8668WAT     H227587   2.702   8.618   2.766
 8669WAT      O27588   2.373   8.337   2.021
 8669WAT     H127589   2.281   8.331   2.044
 8669WAT     H227590   2.389   8.431   2.009
 8670WAT      O27591   2.372   7.964   1.721
 8670WAT     H127592   2.278   7.980   1.729
 8670WAT     H227593   2.404   8.036   1.666
 8671WAT      O27594   3.024   8.433   2.718
 8671WAT     H127595   2.941   8.439   2.671
 8671WAT     H227596   3.084   8.491   2.672
 8672WAT      O27597   2.776   8.493   2.071
 8672WAT     H127598   2.714   8.460   2.007
 8672WAT     H227599   2.774   8.429   2.142
 8673WAT      O27600   2.720   8.111   2.813
 8673WAT     H127601   2.679   8.194   2.838
 8673WAT     H227602   2.647   8.053   2.794
 8674WAT      O27603   1.934   8.390   2.299
 8674WAT     H127604   1.893   8.319   2.250
 8674WAT     H227605   1.942   8.355   2.388
 8675WAT      O27606   1.981   8.758   2.515
 8675WAT     H127607   1.951   8.698   2.448
 8675WAT     H227608   2.076   8.762   2.504
 8676WAT      O27609   1.805   8.067   2.677
 8676WAT     H127610   1.860   8.078   2.600
 8676WAT     H227611   1.857   8.105   2.749
 8677WAT      O27612   1.890   8.732   3.181
 8677WAT     H127613   1.800   8.755   3.205
 8677WAT     H227614   1.892   8.745   3.086
 8678WAT      O27615   2.594   8.417   1.772
 8678WAT     H127616   2.638   8.333   1.757
 8678WAT     H227617   2.665   8.481   1.781
 8679WAT      O27618   1.773   8.419   3.038
 8679WAT     H127619   1.759   8.507   3.075
 8679WAT     H227620   1.684   8.385   3.024
 8680WAT      O27621   2.405   8.911   2.169
 8680WAT     H127622   2.449   8.985   2.127
 8680WAT     H227623   2.399   8.935   2.261
 8681WAT      O27624   1.952   9.014   3.259
 8681WAT     H127625   1.949   9.054   3.172
 8681WAT     H227626   1.936   8.921   3.243
 8682WAT      O27627   2.952   7.543   1.603
 8682WAT     H127628   2.921   7.552   1.693
 8682WAT     H227629   3.028   7.600   1.598
 8683WAT      O27630   1.604   8.279   2.049
 8683WAT     H127631   1.592   8.352   1.988
 8683WAT     H227632   1.573   8.202   2.001
 8684WAT      O27633   1.368   8.596   2.630
 8684WAT     H127634   1.376   8.610   2.535
 8684WAT     H227635   1.429   8.526   2.649
 8685WAT      O27636   1.492   8.766   2.271
 8685WAT     H127637   1.451   8.781   2.185
 8685WAT     H227638   1.581   8.738   2.251
 8686WAT      O27639   3.088   8.811   3.105
 8686WAT     H127640   3.100   8.787   3.013
 8686WAT     H227641   3.092   8.728   3.152
 8687WAT      O27642   2.642   8.961   1.760
 8687WAT     H127643   2.572   8.961   1.694
 8687WAT     H227644   2.716   8.918   1.717
 8688WAT      O27645   3.073   8.016   3.201
 8688WAT     H127646   3.012   8.067   3.148
 8688WAT     H227647   3.041   7.926   3.195
 8689WAT      O27648   1.373   8.701   2.884
 8689WAT     H127649   1.390   8.654   2.802
 8689WAT     H227650   1.420   8.650   2.950
 8690WAT      O27651   2.279   7.900   2.948
 8690WAT     H127652   2.233   7.921   3.029
 8690WAT     H227653   2.239   7.819   2.917
 8691WAT      O27654   2.779   8.022   3.061
 8691WAT     H127655   2.694   7.992   3.093
 8691WAT     H227656   2.763   8.047   2.970
 8692WAT      O27657   2.489   8.172   3.271
 8692WAT     H127658   2.521   8.089   3.237
 8692WAT     H227659   2.568   8.225   3.285
 8693WAT      O27660   1.830   8.126   2.160
 8693WAT     H127661   1.807   8.104   2.251
 8693WAT     H227662   1.752   8.169   2.126
 8694WAT      O27663   2.553   8.127   2.020
 8694WAT     H127664   2.493   8.199   2.002
 8694WAT     H227665   2.607   8.120   1.942
 8695WAT      O27666   2.074   8.216   3.227
 8695WAT     H127667   2.064   8.122   3.212
 8695WAT     H227668   2.158   8.238   3.187
 8696WAT      O27669   2.413   7.990   2.223
 8696WAT     H127670   2.453   8.022   2.142
 8696WAT     H227671   2.449   7.902   2.235
 8697WAT      O27672   1.587   7.857   3.042
 8697WAT     H127673   1.547   7.942   3.063
 8697WAT     H227674   1.518   7.793   3.061
 8698WAT      O27675   2.244   7.865   3.349
 8698WAT     H127676   2.175   7.846   3.413
 8698WAT     H227677   2.319   7.894   3.402
 8699WAT      O27678   1.317   7.649   2.445
 8699WAT     H127679   1.288   7.706   2.517
 8699WAT     H227680   1.391   7.601   2.482
 8700WAT      O27681   1.336   8.043   1.566
 8700WAT     H127682   1.327   8.138   1.581
 8700WAT     H227683   1.300   8.029   1.479
 8701WAT      O27684   2.472   8.249   2.633
 8701WAT     H127685   2.399   8.300   2.668
 8701WAT     H227686   2.432   8.168   2.603
 8702WAT      O27687   1.701   7.905   2.369
 8702WAT     H127688   1.667   7.953   2.445
 8702WAT     H227689   1.624   7.860   2.333
 8703WAT      O27690   2.122   8.017   1.772
 8703WAT     H127691   2.134   8.013   1.867
 8703WAT     H227692   2.083   8.103   1.757
 8704WAT      O27693   2.023   8.248   1.712
 8704WAT     H127694   1.966   8.203   1.649
 8704WAT     H227695   2.094   8.284   1.659
 8705WAT      O27696   1.531   8.638   3.100
 8705WAT     H127697   1.492   8.574   3.160
 8705WAT     H227698   1.562   8.708   3.157
 8706WAT      O27699   2.146   8.323   2.648
 8706WAT     H127700   2.182   8.275   2.722
 8706WAT     H227701   2.127   8.410   2.682
 8707WAT      O27702   1.925   8.227   2.880
 8707WAT     H127703   1.894   8.315   2.902
 8707WAT     H227704   2.020   8.233   2.883
 8708WAT      O27705   1.777   8.648   1.939
 8708WAT     H127706   1.700   8.594   1.923
 8708WAT     H227707   1.850   8.596   1.906
 8709WAT      O27708   2.853   8.547   2.519
 8709WAT     H127709   2.925   8.597   2.480
 8709WAT     H227710   2.833   8.479   2.454
 8710WAT      O27711   2.392   8.554   3.107
 8710WAT     H127712   2.385   8.462   3.082
 8710WAT     H227713   2.329   8.564   3.179
 8711WAT      O27714   2.671   8.124   1.763
 8711WAT     H127715   2.760   8.155   1.745
 8711WAT     H227716   2.668   8.036   1.723
 8712WAT      O27717   1.782   8.614   2.303
 8712WAT     H127718   1.834   8.534   2.298
 8712WAT     H227719   1.737   8.608   2.387
 8713WAT      O27720   2.271   8.741   1.830
 8713WAT     H127721   2.305   8.815   1.781
 8713WAT     H227722   2.188   8.772   1.867
 8714WAT      O27723   1.530   8.311   2.994
 8714WAT     H127724   1.494   8.377   3.053
 8714WAT     H227725   1.501   8.228   3.032
 8715WAT      O27726   1.850   8.357   3.283
 8715WAT     H127727   1.820   8.371   3.193
 8715WAT     H227728   1.928   8.301   3.274
 8716WAT      O27729   2.385   8.836   3.082
 8716WAT     H127730   2.386   8.743   3.061
 8716WAT     H227731   2.314   8.845   3.146
 8717WAT      O27732   2.898   8.255   1.709
 8717WAT     H127733   2.890   8.298   1.624
 8717WAT     H227734   2.970   8.301   1.753
 8718WAT      O27735   3.006   8.501   3.017
 8718WAT     H127736   2.933   8.560   2.997
 8718WAT     H227737   3.059   8.500   2.937
 8719WAT      O27738   3.001   8.940   1.982
 8719WAT     H127739   2.937   8.875   2.010
 8719WAT     H227740   2.962   8.981   1.905
 8720WAT      O27741   2.559   8.673   2.367
 8720WAT     H127742   2.594   8.613   2.301
 8720WAT     H227743   2.470   8.641   2.384
 8721WAT      O27744   2.167   8.749   2.108
 8721WAT     H127745   2.236   8.804   2.146
 8721WAT     H227746   2.089   8.804   2.111
 8722WAT      O27747   1.381   8.311   1.657
 8722WAT     H127748   1.468   8.339   1.685
 8722WAT     H227749   1.332   8.392   1.645
 8723WAT      O27750   2.098   8.450   2.069
 8723WAT     H127751   2.143   8.531   2.091
 8723WAT     H227752   2.063   8.418   2.152
 8724WAT      O27753   2.328   9.001   2.792
 8724WAT     H127754   2.392   9.021   2.859
 8724WAT     H227755   2.364   8.925   2.746
 8725WAT      O27756   2.455   8.801   2.664
 8725WAT     H127757   2.520   8.731   2.675
 8725WAT     H227758   2.508   8.879   2.645
 8726WAT      O27759   2.840   8.829   1.636
 8726WAT     H127760   2.817   8.758   1.695
 8726WAT     H227761   2.801   8.805   1.552
 8727WAT      O27762   2.633   8.881   2.984
 8727WAT     H127763   2.666   8.940   3.052
 8727WAT     H227764   2.541   8.868   3.007
 8728WAT      O27765   1.388   7.660   3.062
 8728WAT     H127766   1.316   7.680   3.123
 8728WAT     H227767   1.430   7.582   3.099
 8729WAT      O27768   2.798   8.621   1.802
 8729WAT     H127769   2.769   8.667   1.881
 8729WAT     H227770   2.878   8.575   1.829
 8730WAT      O27771   1.417   9.059   3.161
 8730WAT     H127772   1.427   8.965   3.147
 8730WAT     H227773   1.351   9.085   3.096
 8731WAT      O27774   2.216   8.886   3.301
 8731WAT     H127775   2.184   8.814   3.355
 8731WAT     H227776   2.148   8.953   3.308
 8732WAT      O27777   2.020   8.970   1.795
 8732WAT     H127778   2.019   9.044   1.734
 8732WAT     H227779   1.928   8.946   1.804
 8733WAT      O27780   1.580   8.493   1.870
 8733WAT     H127781   1.519   8.567   1.871
 8733WAT     H227782   1.627   8.502   1.787
 8734WAT      O27783   2.874   7.805   1.918
 8734WAT     H127784   2.811   7.815   1.847
 8734WAT     H227785   2.824   7.827   1.997
 8735WAT      O27786   2.318   8.977   1.661
 8735WAT     H127787   2.329   8.956   1.568
 8735WAT     H227788   2.228   8.951   1.682
 8736WAT      O27789   2.071   8.033   2.060
 8736WAT     H127790   2.000   8.079   2.104
 8736WAT     H227791   2.099   7.967   2.123
 8737WAT      O27792   2.233   8.175   2.860
 8737WAT     H127793   2.283   8.222   2.926
 8737WAT     H227794   2.247   8.082   2.880
 8738WAT      O27795   2.954   7.796   2.944
 8738WAT     H127796   2.904   7.870   2.978
 8738WAT     H227797   3.035   7.835   2.912
 8739WAT      O27798   2.783   8.321   2.288
 8739WAT     H127799   2.689   8.322   2.306
 8739WAT     H227800   2.815   8.242   2.333
 8740WAT      O27801   1.781   8.489   1.644
 8740WAT     H127802   1.858   8.478   1.701
 8740WAT     H227803   1.789   8.419   1.579
 8741WAT      O27804   1.650   8.232   1.713
 8741WAT     H127805   1.658   8.137   1.724
 8741WAT     H227806   1.740   8.265   1.723
 8742WAT      O27807   1.419   8.854   2.011
 8742WAT     H127808   1.326   8.878   2.010
 8742WAT     H227809   1.466   8.936   1.998
 8743WAT      O27810   2.515   8.776   3.337
 8743WAT     H127811   2.454   8.778   3.263
 8743WAT     H227812   2.484   8.703   3.390
 8744WAT      O27813   1.403   8.414   3.236
 8744WAT     H127814   1.453   8.356   3.294
 8744WAT     H227815   1.329   8.443   3.290
 8745WAT      O27816   2.093   8.686   1.592
 8745WAT     H127817   2.083   8.625   1.664
 8745WAT     H227818   2.077   8.634   1.513
 8746WAT      O27819   2.108   8.555   3.190
 8746WAT     H127820   2.032   8.612   3.181
 8746WAT     H227821   2.127   8.526   3.100
 8747WAT      O27822   2.417   8.592   1.652
 8747WAT     H127823   2.362   8.637   1.717
 8747WAT     H227824   2.480   8.542   1.705
 8748WAT      O27825   2.823   8.728   3.245
 8748WAT     H127826   2.897   8.762   3.195
 8748WAT     H227827   2.746   8.745   3.190
 8749WAT      O27828   1.606   8.228   3.326
 8749WAT     H127829   1.610   8.199   3.417
 8749WAT     H227830   1.692   8.268   3.310
 8750WAT      O27831   1.984   8.488   1.842
 8750WAT     H127832   2.026   8.472   1.926
 8750WAT     H227833   1.997   8.407   1.792
 8751WAT      O27834   1.800   8.086   3.123
 8751WAT     H127835   1.747   8.037   3.060
 8751WAT     H227836   1.867   8.129   3.069
 8752WAT      O27837   2.235   8.391   1.567
 8752WAT     H127838   2.287   8.319   1.530
 8752WAT     H227839   2.300   8.455   1.597
 8753WAT      O27840   2.690   8.533   3.099
 8753WAT     H127841   2.732   8.548   3.184
 8753WAT     H227842   2.597   8.546   3.115
 8754WAT      O27843   2.737   8.267   3.299
 8754WAT     H127844   2.796   8.192   3.291
 8754WAT     H227845   2.755   8.320   3.222
 8755WAT      O27846   1.849   7.783   3.131
 8755WAT     H127847   1.840   7.721   3.058
 8755WAT     H227848   1.791   7.856   3.108
 8756WAT      O27849   2.126   7.639   2.834
 8756WAT     H127850   2.081   7.641   2.749
 8756WAT     H227851   2.062   7.599   2.894
 8757WAT      O27852   2.166   8.528   2.896
 8757WAT     H127853   2.208   8.613   2.879
 8757WAT     H227854   2.074   8.542   2.873
 8758WAT      O27855   2.400   8.301   3.034
 8758WAT     H127856   2.412   8.242   3.108
 8758WAT     H227857   2.486   8.305   2.992
 8759WAT      O27858   2.634   8.357   2.892
 8759WAT     H127859   2.581   8.409   2.832
 8759WAT     H227860   2.668   8.420   2.955
 8760WAT      O27861   1.874   8.096   1.536
 8760WAT     H127862   1.854   8.009   1.573
 8760WAT     H227863   1.857   8.087   1.443
 8761WAT      O27864   2.077   7.956   3.160
 8761WAT     H127865   2.136   7.925   3.229
 8761WAT     H227866   1.995   7.908   3.176
 8762WAT      O27867   2.559   7.917   3.183
 8762WAT     H127868   2.490   7.851   3.177
 8762WAT     H227869   2.631   7.873   3.228
 8763WAT      O27870   2.622   7.577   1.789
 8763WAT     H127871   2.650   7.492   1.825
 8763WAT     H227872   2.544   7.600   1.841
 8764WAT      O27873   1.656   8.736   1.619
 8764WAT     H127874   1.700   8.790   1.684
 8764WAT     H227875   1.704   8.654   1.619
 8765WAT      O27876   1.377   9.015   2.364
 8765WAT     H127877   1.410   8.928   2.341
 8765WAT     H227878   1.420   9.036   2.447
 8766WAT      O27879   1.837   8.848   2.130
 8766WAT     H127880   1.807   8.836   2.220
 8766WAT     H227881   1.826   8.762   2.089
 8767WAT      O27882   2.990   9.052   3.066
 8767WAT     H127883   2.930   9.058   2.992
 8767WAT     H227884   3.003   8.958   3.079
 8768WAT      O27885   3.114   8.826   1.600
 8768WAT     H127886   3.031   8.833   1.647
 8768WAT     H227887   3.132   8.915   1.570
 8769WAT      O27888   3.059   8.501   1.850
 8769WAT     H127889   3.136   8.558   1.861
 8769WAT     H227890   3.061   8.444   1.927
 8770WAT      O27891   1.409   8.353   2.273
 8770WAT     H127892   1.344   8.326   2.209
 8770WAT     H227893   1.493   8.342   2.228
 8771WAT      O27894   3.160   8.586   2.335
 8771WAT     H127895   3.197   8.508   2.294
 8771WAT     H227896   3.224   8.655   2.317
 8772WAT      O27897   2.858   8.724   2.876
 8772WAT     H127898   2.777   8.767   2.902
 8772WAT     H227899   2.899   8.786   2.815
 8773WAT      O27900   3.065   8.530   1.566
 8773WAT     H127901   3.092   8.621   1.553
 8773WAT     H227902   3.046   8.524   1.660
 8774WAT      O27903   2.704   7.832   1.696
 8774WAT     H127904   2.746   7.814   1.612
 8774WAT     H227905   2.674   7.747   1.727
 8775WAT      O27906   3.054   8.324   2.065
 8775WAT     H127907   3.017   8.247   2.022
 8775WAT     H227908   2.981   8.362   2.114
 8776WAT      O27909   1.513   8.391   2.727
 8776WAT     H127910   1.550   8.383   2.815
 8776WAT     H227911   1.456   8.315   2.718
 8777WAT      O27912   2.993   8.238   3.029
 8777WAT     H127913   2.970   8.215   2.939
 8777WAT     H227914   3.019   8.330   3.024
 8778WAT      O27915   1.468   8.083   3.118
 8778WAT     H127916   1.379   8.079   3.152
 8778WAT     H227917   1.522   8.102   3.195
 8779WAT      O27918   2.837   7.761   3.307
 8779WAT     H127919   2.925   7.762   3.345
 8779WAT     H227920   2.838   7.687   3.246
 8780WAT      O27921   1.331   8.074   1.868
 8780WAT     H127922   1.240   8.100   1.850
 8780WAT     H227923   1.379   8.101   1.790
 8781WAT      O27924   2.982   8.146   2.395
 8781WAT     H127925   3.034   8.097   2.332
 8781WAT     H227926   3.040   8.160   2.470
 8782WAT      O27927   3.000   8.155   2.748
 8782WAT     H127928   2.905   8.151   2.759
 8782WAT     H227929   3.018   8.246   2.724
 8783WAT      O27930   1.585   7.980   1.659
 8783WAT     H127931   1.656   7.937   1.610
 8783WAT     H227932   1.513   7.986   1.595
 8784WAT      O27933   1.550   7.585   1.563
 8784WAT     H127934   1.622   7.639   1.594
 8784WAT     H227935   1.577   7.558   1.475
 8785WAT      O27936   2.931   8.072   1.989
 8785WAT     H127937   2.980   8.049   2.068
 8785WAT     H227938   2.911   7.988   1.948
 8786WAT      O27939   3.074   7.935   2.243
 8786WAT     H127940   3.063   7.920   2.337
 8786WAT     H227941   3.150   7.883   2.219
 8787WAT      O27942   3.163   7.719   1.567
 8787WAT     H127943   3.255   7.705   1.546
 8787WAT     H227944   3.160   7.727   1.662
 8788WAT      O27945   3.170   7.796   1.829
 8788WAT     H127946   3.090   7.789   1.882
 8788WAT     H227947   3.190   7.889   1.828
 8789WAT      O27948   1.655   8.843   3.244
 8789WAT     H127949   1.650   8.806   3.332
 8789WAT     H227950   1.668   8.937   3.258
 8790WAT      O27951   2.025   8.998   2.804
 8790WAT     H127952   2.001   9.025   2.715
 8790WAT     H227953   2.119   9.015   2.809
 8791WAT      O27954   2.245   7.645   3.179
 8791WAT     H127955   2.239   7.704   3.254
 8791WAT     H227956   2.339   7.634   3.165
 8792WAT      O27957   2.509   7.610   3.143
 8792WAT     H127958   2.570   7.642   3.077
 8792WAT     H227959   2.564   7.562   3.205
 8793WAT      O27960   1.561   7.478   3.155
 8793WAT     H127961   1.616   7.460   3.078
 8793WAT     H227962   1.568   7.399   3.208
 8794WAT      O27963   1.602   8.874   2.851
 8794WAT     H127964   1.529   8.812   2.844
 8794WAT     H227965   1.608   8.913   2.764
 8795WAT      O27966   2.911   7.507   1.872
 8795WAT     H127967   2.931   7.597   1.899
 8795WAT     H227968   2.832   7.484   1.922
 8796WAT      O27969   1.961   7.543   3.325
 8796WAT     H127970   1.933   7.593   3.249
 8796WAT     H227971   2.000   7.463   3.288
 8797WAT      O27972   1.767   8.882   1.804
 8797WAT     H127973   1.704   8.928   1.859
 8797WAT     H227974   1.778   8.797   1.848
 8798WAT      O27975   2.622   7.485   3.383
 8798WAT     H127976   2.610   7.517   3.472
 8798WAT     H227977   2.703   7.525   3.353
 8799WAT      O27978   2.512   8.287   0.419
 8799WAT     H127979   2.504   8.195   0.392
 8799WAT     H227980   2.471   8.336   0.349
 8800WAT      O27981   2.325   8.464   0.607
 8800WAT     H127982   2.248   8.416   0.636
 8800WAT     H227983   2.391   8.396   0.590
 8801WAT      O27984   1.727   8.496   0.695
 8801WAT     H127985   1.644   8.470   0.735
 8801WAT     H227986   1.788   8.503   0.769
 8802WAT      O27987   2.727   8.905   0.485
 8802WAT     H127988   2.681   8.828   0.518
 8802WAT     H227989   2.809   8.908   0.536
 8803WAT      O27990   1.725   8.899   0.715
 8803WAT     H127991   1.755   8.810   0.697
 8803WAT     H227992   1.799   8.955   0.692
 8804WAT      O27993   1.364   8.252   0.662
 8804WAT     H127994   1.421   8.175   0.662
 8804WAT     H227995   1.364   8.282   0.571
 8805WAT      O27996   2.269   8.732   0.608
 8805WAT     H127997   2.263   8.638   0.592
 8805WAT     H227998   2.346   8.741   0.665
 8806WAT      O27999   1.489   7.792   0.841
 8806WAT     H128000   1.471   7.703   0.869
 8806WAT     H228001   1.448   7.847   0.908
 8807WAT      O28002   2.373   8.013   0.631
 8807WAT     H128003   2.410   7.925   0.619
 8807WAT     H228004   2.363   8.046   0.542
 8808WAT      O28005   1.786   7.850   0.177
 8808WAT     H128006   1.796   7.940   0.208
 8808WAT     H228007   1.695   7.845   0.148
 8809WAT      O28008   2.751   7.762   0.324
 8809WAT     H128009   2.833   7.713   0.328
 8809WAT     H228010   2.754   7.821   0.399
 8810WAT      O28011   1.550   8.042   0.701
 8810WAT     H128012   1.619   8.068   0.763
 8810WAT     H228013   1.519   7.958   0.735
 8811WAT      O28014   1.970   8.147   0.610
 8811WAT     H128015   2.020   8.197   0.674
 8811WAT     H228016   2.023   8.069   0.592
 8812WAT      O28017   3.180   7.964   0.980
 8812WAT     H128018   3.109   8.003   0.929
 8812WAT     H228019   3.206   8.033   1.041
 8813WAT      O28020   1.798   7.611   1.037
 8813WAT     H128021   1.798   7.662   0.956
 8813WAT     H228022   1.715   7.563   1.034
 8814WAT      O28023   1.923   8.575   0.854
 8814WAT     H128024   1.890   8.637   0.919
 8814WAT     H228025   1.941   8.627   0.776
 8815WAT      O28026   2.774   7.956   0.601
 8815WAT     H128027   2.704   7.985   0.659
 8815WAT     H228028   2.811   8.037   0.565
 8816WAT      O28029   1.766   7.782   0.837
 8816WAT     H128030   1.800   7.866   0.808
 8816WAT     H228031   1.672   7.797   0.849
 8817WAT      O28032   1.844   8.772   1.036
 8817WAT     H128033   1.906   8.839   1.008
 8817WAT     H228034   1.758   8.812   1.027
 8818WAT      O28035   2.936   8.918   0.827
 8818WAT     H128036   2.868   8.985   0.827
 8818WAT     H228037   2.990   8.938   0.751
 8819WAT      O28038   3.081   7.901   0.640
 8819WAT     H128039   2.987   7.904   0.653
 8819WAT     H228040   3.114   7.982   0.679
 8820WAT      O28041   2.134   7.531   0.470
 8820WAT     H128042   2.165   7.475   0.398
 8820WAT     H228043   2.041   7.544   0.452
 8821WAT      O28044   2.819   8.775   0.208
 8821WAT     H128045   2.808   8.680   0.220
 8821WAT     H228046   2.819   8.811   0.296
 8822WAT      O28047   2.629   8.593   0.832
 8822WAT     H128048   2.671   8.571   0.748
 8822WAT     H228049   2.702   8.618   0.889
 8823WAT      O28050   3.024   8.433   0.841
 8823WAT     H128051   2.941   8.439   0.793
 8823WAT     H228052   3.084   8.491   0.794
 8824WAT      O28053   2.720   8.111   0.935
 8824WAT     H128054   2.679   8.194   0.961
 8824WAT     H228055   2.647   8.053   0.916
 8825WAT      O28056   1.934   8.390   0.422
 8825WAT     H128057   1.893   8.319   0.372
 8825WAT     H228058   1.942   8.355   0.511
 8826WAT      O28059   1.981   8.758   0.638
 8826WAT     H128060   1.951   8.698   0.570
 8826WAT     H228061   2.076   8.762   0.627
 8827WAT      O28062   1.805   8.067   0.800
 8827WAT     H128063   1.860   8.078   0.722
 8827WAT     H228064   1.857   8.105   0.871
 8828WAT      O28065   1.890   8.732   1.303
 8828WAT     H128066   1.800   8.755   1.328
 8828WAT     H228067   1.892   8.745   1.208
 8829WAT      O28068   1.773   8.419   1.161
 8829WAT     H128069   1.759   8.507   1.198
 8829WAT     H228070   1.684   8.385   1.146
 8830WAT      O28071   2.405   8.911   0.291
 8830WAT     H128072   2.449   8.985   0.250
 8830WAT     H228073   2.399   8.935   0.384
 8831WAT      O28074   1.952   9.014   1.382
 8831WAT     H128075   1.949   9.054   1.295
 8831WAT     H228076   1.936   8.921   1.365
 8832WAT      O28077   1.368   8.596   0.752
 8832WAT     H128078   1.376   8.610   0.658
 8832WAT     H228079   1.429   8.526   0.772
 8833WAT      O28080   1.492   8.766   0.393
 8833WAT     H128081   1.451   8.781   0.308
 8833WAT     H228082   1.581   8.738   0.373
 8834WAT      O28083   3.088   8.811   1.227
 8834WAT     H128084   3.100   8.787   1.135
 8834WAT     H228085   3.092   8.728   1.274
 8835WAT      O28086   3.073   8.016   1.324
 8835WAT     H128087   3.012   8.067   1.271
 8835WAT     H228088   3.041   7.926   1.318
 8836WAT      O28089   1.373   8.701   1.006
 8836WAT     H128090   1.390   8.654   0.925
 8836WAT     H228091   1.420   8.650   1.073
 8837WAT      O28092   1.851   7.614   0.510
 8837WAT     H128093   1.806   7.692   0.477
 8837WAT     H228094   1.906   7.646   0.581
 8838WAT      O28095   2.279   7.900   1.070
 8838WAT     H128096   2.233   7.921   1.152
 8838WAT     H228097   2.239   7.819   1.040
 8839WAT      O28098   2.779   8.022   1.183
 8839WAT     H128099   2.694   7.992   1.215
 8839WAT     H228100   2.763   8.047   1.092
 8840WAT      O28101   2.489   8.172   1.393
 8840WAT     H128102   2.521   8.089   1.359
 8840WAT     H228103   2.568   8.225   1.408
 8841WAT      O28104   2.054   7.668   0.696
 8841WAT     H128105   2.084   7.759   0.688
 8841WAT     H228106   2.109   7.619   0.634
 8842WAT      O28107   1.830   8.126   0.283
 8842WAT     H128108   1.807   8.104   0.373
 8842WAT     H228109   1.752   8.169   0.248
 8843WAT      O28110   2.074   8.216   1.349
 8843WAT     H128111   2.064   8.122   1.334
 8843WAT     H228112   2.158   8.238   1.310
 8844WAT      O28113   2.413   7.990   0.346
 8844WAT     H128114   2.453   8.022   0.264
 8844WAT     H228115   2.449   7.902   0.357
 8845WAT      O28116   1.587   7.857   1.165
 8845WAT     H128117   1.547   7.942   1.185
 8845WAT     H228118   1.518   7.793   1.184
 8846WAT      O28119   1.317   7.649   0.568
 8846WAT     H128120   1.288   7.706   0.639
 8846WAT     H228121   1.391   7.601   0.604
 8847WAT      O28122   2.472   8.249   0.755
 8847WAT     H128123   2.399   8.300   0.790
 8847WAT     H228124   2.432   8.168   0.725
 8848WAT      O28125   2.116   7.917   0.596
 8848WAT     H128126   2.116   7.873   0.511
 8848WAT     H228127   2.205   7.949   0.606
 8849WAT      O28128   1.701   7.905   0.492
 8849WAT     H128129   1.667   7.953   0.567
 8849WAT     H228130   1.624   7.860   0.456
 8850WAT      O28131   2.518   7.795   0.696
 8850WAT     H128132   2.520   7.840   0.781
 8850WAT     H228133   2.493   7.705   0.718
 8851WAT      O28134   2.861   7.536   1.280
 8851WAT     H128135   2.893   7.463   1.333
 8851WAT     H228136   2.864   7.504   1.190
 8852WAT      O28137   1.531   8.638   1.222
 8852WAT     H128138   1.492   8.574   1.282
 8852WAT     H228139   1.562   8.708   1.279
 8853WAT      O28140   2.146   8.323   0.770
 8853WAT     H128141   2.182   8.275   0.845
 8853WAT     H228142   2.127   8.410   0.804
 8854WAT      O28143   1.432   7.797   0.383
 8854WAT     H128144   1.404   7.761   0.467
 8854WAT     H228145   1.426   7.724   0.322
 8855WAT      O28146   1.925   8.227   1.002
 8855WAT     H128147   1.894   8.315   1.025
 8855WAT     H228148   2.020   8.233   1.006
 8856WAT      O28149   2.853   8.547   0.641
 8856WAT     H128150   2.925   8.597   0.602
 8856WAT     H228151   2.833   8.479   0.577
 8857WAT      O28152   2.392   8.554   1.230
 8857WAT     H128153   2.385   8.462   1.204
 8857WAT     H228154   2.329   8.564   1.301
 8858WAT      O28155   1.782   8.614   0.426
 8858WAT     H128156   1.834   8.534   0.420
 8858WAT     H228157   1.737   8.608   0.510
 8859WAT      O28158   1.530   8.311   1.117
 8859WAT     H128159   1.494   8.377   1.176
 8859WAT     H228160   1.501   8.228   1.154
 8860WAT      O28161   1.850   8.357   1.405
 8860WAT     H128162   1.820   8.371   1.316
 8860WAT     H228163   1.928   8.301   1.396
 8861WAT      O28164   2.385   8.836   1.205
 8861WAT     H128165   2.386   8.743   1.183
 8861WAT     H228166   2.314   8.845   1.269
 8862WAT      O28167   3.006   8.501   1.140
 8862WAT     H128168   2.933   8.560   1.120
 8862WAT     H228169   3.059   8.500   1.060
 8863WAT      O28170   2.559   8.673   0.489
 8863WAT     H128171   2.594   8.613   0.423
 8863WAT     H228172   2.470   8.641   0.507
 8864WAT      O28173   2.167   8.749   0.230
 8864WAT     H128174   2.236   8.804   0.268
 8864WAT     H228175   2.089   8.804   0.234
 8865WAT      O28176   2.098   8.450   0.191
 8865WAT     H128177   2.143   8.531   0.214
 8865WAT     H228178   2.063   8.418   0.275
 8866WAT      O28179   2.328   9.001   0.914
 8866WAT     H128180   2.392   9.021   0.982
 8866WAT     H228181   2.364   8.925   0.869
 8867WAT      O28182   1.688   7.484   0.239
 8867WAT     H128183   1.675   7.483   0.333
 8867WAT     H228184   1.605   7.518   0.204
 8868WAT      O28185   2.455   8.801   0.786
 8868WAT     H128186   2.520   8.731   0.797
 8868WAT     H228187   2.508   8.879   0.768
 8869WAT      O28188   2.633   8.881   1.106
 8869WAT     H128189   2.666   8.940   1.174
 8869WAT     H228190   2.541   8.868   1.129
 8870WAT      O28191   1.388   7.660   1.185
 8870WAT     H128192   1.316   7.680   1.245
 8870WAT     H228193   1.430   7.582   1.222
 8871WAT      O28194   1.417   9.059   1.283
 8871WAT     H128195   1.427   8.965   1.269
 8871WAT     H228196   1.351   9.085   1.218
 8872WAT      O28197   2.216   8.886   1.423
 8872WAT     H128198   2.184   8.814   1.478
 8872WAT     H228199   2.148   8.953   1.431
 8873WAT      O28200   2.537   7.909   0.960
 8873WAT     H128201   2.574   7.827   0.992
 8873WAT     H228202   2.451   7.915   1.001
 8874WAT      O28203   2.071   8.033   0.182
 8874WAT     H128204   2.000   8.079   0.226
 8874WAT     H228205   2.099   7.967   0.246
 8875WAT      O28206   2.233   8.175   0.982
 8875WAT     H128207   2.283   8.222   1.049
 8875WAT     H228208   2.247   8.082   1.003
 8876WAT      O28209   2.474   7.705   0.326
 8876WAT     H128210   2.461   7.707   0.231
 8876WAT     H228211   2.569   7.710   0.338
 8877WAT      O28212   2.954   7.796   1.066
 8877WAT     H128213   2.904   7.870   1.100
 8877WAT     H228214   3.035   7.835   1.035
 8878WAT      O28215   2.783   8.321   0.411
 8878WAT     H128216   2.689   8.322   0.428
 8878WAT     H228217   2.815   8.242   0.456
 8879WAT      O28218   2.515   8.776   1.459
 8879WAT     H128219   2.454   8.778   1.385
 8879WAT     H228220   2.484   8.703   1.513
 8880WAT      O28221   1.403   8.414   1.359
 8880WAT     H128222   1.453   8.356   1.416
 8880WAT     H228223   1.329   8.443   1.413
 8881WAT      O28224   2.108   8.555   1.312
 8881WAT     H128225   2.032   8.612   1.304
 8881WAT     H228226   2.127   8.526   1.223
 8882WAT      O28227   2.823   8.728   1.368
 8882WAT     H128228   2.897   8.762   1.318
 8882WAT     H228229   2.746   8.745   1.313
 8883WAT      O28230   1.606   8.228   1.448
 8883WAT     H128231   1.610   8.199   1.539
 8883WAT     H228232   1.692   8.268   1.432
 8884WAT      O28233   1.800   8.086   1.245
 8884WAT     H128234   1.747   8.037   1.182
 8884WAT     H228235   1.867   8.129   1.192
 8885WAT      O28236   2.690   8.533   1.222
 8885WAT     H128237   2.732   8.548   1.306
 8885WAT     H228238   2.597   8.546   1.238
 8886WAT      O28239   2.737   8.267   1.422
 8886WAT     H128240   2.796   8.192   1.413
 8886WAT     H228241   2.755   8.320   1.344
 8887WAT      O28242   1.849   7.783   1.253
 8887WAT     H128243   1.840   7.721   1.181
 8887WAT     H228244   1.791   7.856   1.230
 8888WAT      O28245   2.126   7.639   0.956
 8888WAT     H128246   2.081   7.641   0.872
 8888WAT     H228247   2.062   7.599   1.016
 8889WAT      O28248   2.166   8.528   1.019
 8889WAT     H128249   2.208   8.613   1.001
 8889WAT     H228250   2.074   8.542   0.996
 8890WAT      O28251   2.400   8.301   1.157
 8890WAT     H128252   2.412   8.242   1.231
 8890WAT     H228253   2.486   8.305   1.115
 8891WAT      O28254   2.634   8.357   1.015
 8891WAT     H128255   2.581   8.409   0.954
 8891WAT     H228256   2.668   8.420   1.078
 8892WAT      O28257   2.077   7.956   1.283
 8892WAT     H128258   2.136   7.925   1.351
 8892WAT     H228259   1.995   7.908   1.298
 8893WAT      O28260   2.559   7.917   1.306
 8893WAT     H128261   2.490   7.851   1.299
 8893WAT     H228262   2.631   7.873   1.350
 8894WAT      O28263   1.377   9.015   0.486
 8894WAT     H128264   1.410   8.928   0.463
 8894WAT     H228265   1.420   9.036   0.569
 8895WAT      O28266   1.837   8.848   0.252
 8895WAT     H128267   1.807   8.836   0.342
 8895WAT     H228268   1.826   8.762   0.211
 8896WAT      O28269   2.990   9.052   1.189
 8896WAT     H128270   2.930   9.058   1.115
 8896WAT     H228271   3.003   8.958   1.202
 8897WAT      O28272   1.409   8.353   0.396
 8897WAT     H128273   1.344   8.326   0.332
 8897WAT     H228274   1.493   8.342   0.351
 8898WAT      O28275   3.160   8.586   0.457
 8898WAT     H128276   3.197   8.508   0.417
 8898WAT     H228277   3.224   8.655   0.440
 8899WAT      O28278   2.858   8.724   0.999
 8899WAT     H128279   2.777   8.767   1.025
 8899WAT     H228280   2.899   8.786   0.937
 8900WAT      O28281   3.054   8.324   0.188
 8900WAT     H128282   3.017   8.247   0.145
 8900WAT     H228283   2.981   8.362   0.237
 8901WAT      O28284   1.513   8.391   0.850
 8901WAT     H128285   1.550   8.383   0.938
 8901WAT     H228286   1.456   8.315   0.840
 8902WAT      O28287   2.993   8.238   1.151
 8902WAT     H128288   2.970   8.215   1.061
 8902WAT     H228289   3.019   8.330   1.147
 8903WAT      O28290   1.468   8.083   1.241
 8903WAT     H128291   1.379   8.079   1.275
 8903WAT     H228292   1.522   8.102   1.317
 8904WAT      O28293   2.837   7.761   1.429
 8904WAT     H128294   2.925   7.762   1.467
 8904WAT     H228295   2.838   7.687   1.368
 8905WAT      O28296   2.982   8.146   0.518
 8905WAT     H128297   3.034   8.097   0.455
 8905WAT     H228298   3.040   8.160   0.592
 8906WAT      O28299   3.000   8.155   0.870
 8906WAT     H128300   2.905   8.151   0.882
 8906WAT     H228301   3.018   8.246   0.847
 8907WAT      O28302   1.519   7.510   0.675
 8907WAT     H128303   1.584   7.455   0.631
 8907WAT     H228304   1.561   7.535   0.758
 8908WAT      O28305   3.074   7.935   0.365
 8908WAT     H128306   3.063   7.920   0.459
 8908WAT     H228307   3.150   7.883   0.341
 8909WAT      O28308   2.908   7.529   1.011
 8909WAT     H128309   2.972   7.591   1.048
 8909WAT     H228310   2.923   7.533   0.917
 8910WAT      O28311   1.494   7.526   0.950
 8910WAT     H128312   1.459   7.571   1.026
 8910WAT     H228313   1.461   7.436   0.958
 8911WAT      O28314   1.655   8.843   1.366
 8911WAT     H128315   1.650   8.806   1.454
 8911WAT     H228316   1.668   8.937   1.380
 8912WAT      O28317   2.025   8.998   0.926
 8912WAT     H128318   2.001   9.025   0.838
 8912WAT     H228319   2.119   9.015   0.932
 8913WAT      O28320   2.509   7.610   1.266
 8913WAT     H128321   2.570   7.642   1.200
 8913WAT     H228322   2.564   7.562   1.328
 8914WAT      O28323   1.561   7.478   1.277
 8914WAT     H128324   1.616   7.460   1.201
 8914WAT     H228325   1.568   7.399   1.331
 8915WAT      O28326   2.583   7.467   0.899
 8915WAT     H128327   2.496   7.500   0.878
 8915WAT     H228328   2.572   7.419   0.981
 8916WAT      O28329   2.674   7.687   1.037
 8916WAT     H128330   2.641   7.606   0.999
 8916WAT     H228331   2.769   7.683   1.025
 8917WAT      O28332   1.602   8.874   0.973
 8917WAT     H128333   1.529   8.812   0.967
 8917WAT     H228334   1.608   8.913   0.886
 8918WAT      O28335   2.358   7.558   0.792
 8918WAT     H128336   2.280   7.606   0.820
 8918WAT     H228337   2.329   7.468   0.782
 8919WAT      O28338   2.813   7.629   0.597
 8919WAT     H128339   2.857   7.623   0.512
 8919WAT     H228340   2.786   7.720   0.604
 8920WAT      O28341   2.999   7.592   0.398
 8920WAT     H128342   2.993   7.497   0.383
 8920WAT     H228343   3.077   7.603   0.453
 8921WAT      O28344   2.146   7.800   0.344
 8921WAT     H128345   2.065   7.763   0.310
 8921WAT     H228346   2.197   7.725   0.374
 8922WAT      O28347   2.597   7.467   0.467
 8922WAT     H128348   2.657   7.524   0.515
 8922WAT     H228349   2.523   7.523   0.445
 8923WAT      O28350   1.949   7.615   0.204
 8923WAT     H128351   1.886   7.545   0.221
 8923WAT     H228352   1.895   7.691   0.182
 8924WAT      O28353   2.622   7.485   1.505
 8924WAT     H128354   2.610   7.517   1.595
 8924WAT     H228355   2.703   7.525   1.476
 8925WAT      O28356   2.512   6.409   6.051
 8925WAT     H128357   2.504   6.318   6.024
 8925WAT     H228358   2.471   6.459   5.981
 8926WAT      O28359   2.325   6.587   6.240
 8926WAT     H128360   2.248   6.539   6.269
 8926WAT     H228361   2.391   6.519   6.222
 8927WAT      O28362   1.727   6.618   6.327
 8927WAT     H128363   1.644   6.593   6.367
 8927WAT     H228364   1.788   6.625   6.401
 8928WAT      O28365   2.727   7.028   6.118
 8928WAT     H128366   2.681   6.950   6.150
 8928WAT     H228367   2.809   7.030   6.168
 8929WAT      O28368   1.725   7.022   6.347
 8929WAT     H128369   1.755   6.933   6.329
 8929WAT     H228370   1.799   7.077   6.324
 8930WAT      O28371   1.568   6.114   5.706
 8930WAT     H128372   1.479   6.148   5.696
 8930WAT     H228373   1.596   6.094   5.617
 8931WAT      O28374   1.364   6.374   6.294
 8931WAT     H128375   1.421   6.297   6.294
 8931WAT     H228376   1.364   6.404   6.203
 8932WAT      O28377   2.350   7.256   6.080
 8932WAT     H128378   2.288   7.302   6.023
 8932WAT     H228379   2.436   7.272   6.039
 8933WAT      O28380   2.269   6.855   6.240
 8933WAT     H128381   2.263   6.760   6.224
 8933WAT     H228382   2.346   6.864   6.297
 8934WAT      O28383   1.489   5.915   6.473
 8934WAT     H128384   1.471   5.825   6.501
 8934WAT     H228385   1.448   5.970   6.540
 8935WAT      O28386   2.373   6.135   6.263
 8935WAT     H128387   2.410   6.048   6.252
 8935WAT     H228388   2.363   6.169   6.174
 8936WAT      O28389   1.786   5.972   5.809
 8936WAT     H128390   1.796   6.063   5.840
 8936WAT     H228391   1.695   5.968   5.780
 8937WAT      O28392   2.751   5.885   5.956
 8937WAT     H128393   2.833   5.836   5.960
 8937WAT     H228394   2.754   5.944   6.032
 8938WAT      O28395   1.550   6.165   6.334
 8938WAT     H128396   1.619   6.191   6.396
 8938WAT     H228397   1.519   6.081   6.367
 8939WAT      O28398   1.970   6.269   6.242
 8939WAT     H128399   2.020   6.319   6.306
 8939WAT     H228400   2.023   6.192   6.225
 8940WAT      O28401   2.437   6.745   5.819
 8940WAT     H128402   2.375   6.791   5.763
 8940WAT     H228403   2.488   6.814   5.861
 8941WAT      O28404   1.923   6.697   6.487
 8941WAT     H128405   1.890   6.760   6.551
 8941WAT     H228406   1.941   6.750   6.409
 8942WAT      O28407   2.774   6.079   6.234
 8942WAT     H128408   2.704   6.108   6.292
 8942WAT     H228409   2.811   6.160   6.198
 8943WAT      O28410   1.766   5.904   6.470
 8943WAT     H128411   1.800   5.989   6.440
 8943WAT     H228412   1.672   5.919   6.481
 8944WAT      O28413   1.374   6.813   5.556
 8944WAT     H128414   1.336   6.862   5.483
 8944WAT     H228415   1.399   6.880   5.619
 8945WAT      O28416   2.936   7.040   6.460
 8945WAT     H128417   2.868   7.107   6.459
 8945WAT     H228418   2.990   7.060   6.383
 8946WAT      O28419   3.081   6.023   6.273
 8946WAT     H128420   2.987   6.027   6.286
 8946WAT     H228421   3.114   6.105   6.311
 8947WAT      O28422   2.134   5.653   6.102
 8947WAT     H128423   2.165   5.598   6.031
 8947WAT     H228424   2.041   5.667   6.084
 8948WAT      O28425   2.690   7.225   6.331
 8948WAT     H128426   2.691   7.185   6.244
 8948WAT     H228427   2.634   7.302   6.321
 8949WAT      O28428   2.819   6.897   5.840
 8949WAT     H128429   2.808   6.803   5.853
 8949WAT     H228430   2.819   6.933   5.929
 8950WAT      O28431   2.629   6.715   6.464
 8950WAT     H128432   2.671   6.694   6.381
 8950WAT     H228433   2.702   6.741   6.521
 8951WAT      O28434   2.373   6.460   5.776
 8951WAT     H128435   2.281   6.453   5.799
 8951WAT     H228436   2.389   6.554   5.764
 8952WAT      O28437   2.372   6.087   5.475
 8952WAT     H128438   2.278   6.103   5.484
 8952WAT     H228439   2.404   6.159   5.421
 8953WAT      O28440   3.024   6.555   6.473
 8953WAT     H128441   2.941   6.562   6.426
 8953WAT     H228442   3.084   6.614   6.426
 8954WAT      O28443   2.776   6.616   5.826
 8954WAT     H128444   2.714   6.582   5.761
 8954WAT     H228445   2.774   6.552   5.897
 8955WAT      O28446   2.720   6.234   6.568
 8955WAT     H128447   2.679   6.316   6.593
 8955WAT     H228448   2.647   6.175   6.549
 8956WAT      O28449   1.934   6.512   6.054
 8956WAT     H128450   1.893   6.441   6.004
 8956WAT     H228451   1.942   6.478   6.143
 8957WAT      O28452   1.981   6.881   6.270
 8957WAT     H128453   1.951   6.821   6.202
 8957WAT     H228454   2.076   6.885   6.259
 8958WAT      O28455   1.805   6.190   6.432
 8958WAT     H128456   1.860   6.201   6.354
 8958WAT     H228457   1.857   6.227   6.504
 8959WAT      O28458   2.789   7.238   6.637
 8959WAT     H128459   2.742   7.319   6.617
 8959WAT     H228460   2.721   7.173   6.652
 8960WAT      O28461   2.594   6.540   5.527
 8960WAT     H128462   2.638   6.456   5.512
 8960WAT     H228463   2.665   6.603   5.535
 8961WAT      O28464   2.405   7.034   5.924
 8961WAT     H128465   2.449   7.108   5.882
 8961WAT     H228466   2.399   7.058   6.016
 8962WAT      O28467   2.952   5.665   5.358
 8962WAT     H128468   2.921   5.675   5.448
 8962WAT     H228469   3.028   5.723   5.353
 8963WAT      O28470   1.604   6.402   5.804
 8963WAT     H128471   1.592   6.474   5.743
 8963WAT     H228472   1.573   6.325   5.756
 8964WAT      O28473   1.368   6.719   6.385
 8964WAT     H128474   1.376   6.732   6.290
 8964WAT     H228475   1.429   6.648   6.404
 8965WAT      O28476   1.492   6.889   6.026
 8965WAT     H128477   1.451   6.903   5.940
 8965WAT     H228478   1.581   6.861   6.005
 8966WAT      O28479   2.672   7.332   5.659
 8966WAT     H128480   2.656   7.303   5.749
 8966WAT     H228481   2.655   7.255   5.606
 8967WAT      O28482   1.919   7.310   5.837
 8967WAT     H128483   1.902   7.219   5.816
 8967WAT     H228484   1.834   7.346   5.861
 8968WAT      O28485   2.642   7.083   5.515
 8968WAT     H128486   2.572   7.083   5.449
 8968WAT     H228487   2.716   7.041   5.472
 8969WAT      O28488   2.598   7.246   5.923
 8969WAT     H128489   2.644   7.168   5.954
 8969WAT     H228490   2.632   7.317   5.977
 8970WAT      O28491   1.851   5.736   6.142
 8970WAT     H128492   1.806   5.814   6.109
 8970WAT     H228493   1.906   5.768   6.213
 8971WAT      O28494   2.162   5.698   5.630
 8971WAT     H128495   2.100   5.698   5.703
 8971WAT     H228496   2.153   5.612   5.591
 8972WAT      O28497   2.054   5.791   6.328
 8972WAT     H128498   2.084   5.881   6.320
 8972WAT     H228499   2.109   5.742   6.267
 8973WAT      O28500   1.830   6.249   5.915
 8973WAT     H128501   1.807   6.227   6.006
 8973WAT     H228502   1.752   6.292   5.881
 8974WAT      O28503   2.553   6.249   5.775
 8974WAT     H128504   2.493   6.322   5.757
 8974WAT     H228505   2.607   6.243   5.697
 8975WAT      O28506   2.413   6.113   5.978
 8975WAT     H128507   2.453   6.145   5.897
 8975WAT     H228508   2.449   6.025   5.989
 8976WAT      O28509   1.317   5.772   6.200
 8976WAT     H128510   1.288   5.829   6.272
 8976WAT     H228511   1.391   5.724   6.237
 8977WAT      O28512   1.336   6.166   5.321
 8977WAT     H128513   1.327   6.260   5.336
 8977WAT     H228514   1.300   6.152   5.233
 8978WAT      O28515   2.472   6.372   6.388
 8978WAT     H128516   2.399   6.423   6.422
 8978WAT     H228517   2.432   6.290   6.357
 8979WAT      O28518   2.116   6.039   6.228
 8979WAT     H128519   2.116   5.995   6.143
 8979WAT     H228520   2.205   6.072   6.239
 8980WAT      O28521   1.701   6.028   6.124
 8980WAT     H128522   1.667   6.075   6.200
 8980WAT     H228523   1.624   5.982   6.088
 8981WAT      O28524   2.122   6.140   5.527
 8981WAT     H128525   2.134   6.135   5.622
 8981WAT     H228526   2.083   6.226   5.512
 8982WAT      O28527   2.518   5.917   6.329
 8982WAT     H128528   2.520   5.962   6.413
 8982WAT     H228529   2.493   5.827   6.350
 8983WAT      O28530   2.023   6.371   5.467
 8983WAT     H128531   1.966   6.326   5.404
 8983WAT     H228532   2.094   6.406   5.414
 8984WAT      O28533   2.146   6.445   6.403
 8984WAT     H128534   2.182   6.398   6.477
 8984WAT     H228535   2.127   6.533   6.437
 8985WAT      O28536   1.432   5.920   6.016
 8985WAT     H128537   1.404   5.883   6.099
 8985WAT     H228538   1.426   5.847   5.954
 8986WAT      O28539   1.777   6.770   5.694
 8986WAT     H128540   1.700   6.716   5.678
 8986WAT     H228541   1.850   6.718   5.660
 8987WAT      O28542   2.853   6.670   6.273
 8987WAT     H128543   2.925   6.719   6.234
 8987WAT     H228544   2.833   6.602   6.209
 8988WAT      O28545   2.399   5.809   5.688
 8988WAT     H128546   2.318   5.759   5.680
 8988WAT     H228547   2.380   5.893   5.646
 8989WAT      O28548   2.671   6.246   5.517
 8989WAT     H128549   2.760   6.278   5.500
 8989WAT     H228550   2.668   6.159   5.478
 8990WAT      O28551   1.782   6.737   6.058
 8990WAT     H128552   1.834   6.657   6.053
 8990WAT     H228553   1.737   6.731   6.142
 8991WAT      O28554   2.271   6.864   5.585
 8991WAT     H128555   2.305   6.938   5.536
 8991WAT     H228556   2.188   6.895   5.622
 8992WAT      O28557   2.898   6.377   5.464
 8992WAT     H128558   2.890   6.421   5.379
 8992WAT     H228559   2.970   6.423   5.507
 8993WAT      O28560   3.001   7.063   5.737
 8993WAT     H128561   2.937   6.997   5.764
 8993WAT     H228562   2.962   7.103   5.659
 8994WAT      O28563   2.559   6.796   6.122
 8994WAT     H128564   2.594   6.736   6.056
 8994WAT     H228565   2.470   6.763   6.139
 8995WAT      O28566   2.167   6.872   5.862
 8995WAT     H128567   2.236   6.926   5.901
 8995WAT     H228568   2.089   6.926   5.866
 8996WAT      O28569   1.381   6.433   5.412
 8996WAT     H128570   1.468   6.462   5.440
 8996WAT     H228571   1.332   6.515   5.400
 8997WAT      O28572   2.098   6.572   5.824
 8997WAT     H128573   2.143   6.653   5.846
 8997WAT     H228574   2.063   6.540   5.907
 8998WAT      O28575   2.328   7.123   6.547
 8998WAT     H128576   2.392   7.144   6.614
 8998WAT     H228577   2.364   7.047   6.501
 8999WAT      O28578   1.688   5.607   5.871
 8999WAT     H128579   1.675   5.606   5.966
 8999WAT     H228580   1.605   5.640   5.836
 9000WAT      O28581   2.455   6.924   6.418
 9000WAT     H128582   2.520   6.853   6.430
 9000WAT     H228583   2.508   7.002   6.400
 9001WAT      O28584   2.840   6.952   5.391
 9001WAT     H128585   2.817   6.880   5.450
 9001WAT     H228586   2.801   6.927   5.307
 9002WAT      O28587   1.418   7.355   5.468
 9002WAT     H128588   1.454   7.415   5.403
 9002WAT     H228589   1.404   7.409   5.546
 9003WAT      O28590   2.798   6.744   5.557
 9003WAT     H128591   2.769   6.790   5.636
 9003WAT     H228592   2.878   6.698   5.584
 9004WAT      O28593   2.020   7.093   5.550
 9004WAT     H128594   2.019   7.166   5.488
 9004WAT     H228595   1.928   7.068   5.559
 9005WAT      O28596   1.580   6.615   5.624
 9005WAT     H128597   1.519   6.689   5.625
 9005WAT     H228598   1.627   6.624   5.542
 9006WAT      O28599   2.537   6.032   6.592
 9006WAT     H128600   2.574   5.950   6.625
 9006WAT     H228601   2.451   6.038   6.634
 9007WAT      O28602   2.874   5.927   5.673
 9007WAT     H128603   2.811   5.938   5.601
 9007WAT     H228604   2.824   5.949   5.752
 9008WAT      O28605   2.318   7.099   5.416
 9008WAT     H128606   2.329   7.079   5.323
 9008WAT     H228607   2.228   7.074   5.437
 9009WAT      O28608   2.071   6.155   5.814
 9009WAT     H128609   2.000   6.202   5.859
 9009WAT     H228610   2.099   6.089   5.878
 9010WAT      O28611   2.474   5.828   5.958
 9010WAT     H128612   2.461   5.829   5.864
 9010WAT     H228613   2.569   5.832   5.970
 9011WAT      O28614   2.183   7.351   5.886
 9011WAT     H128615   2.208   7.347   5.793
 9011WAT     H228616   2.088   7.338   5.885
 9012WAT      O28617   1.891   5.986   5.552
 9012WAT     H128618   1.976   6.030   5.545
 9012WAT     H228619   1.854   6.017   5.635
 9013WAT      O28620   2.783   6.443   6.043
 9013WAT     H128621   2.689   6.445   6.061
 9013WAT     H228622   2.815   6.364   6.088
 9014WAT      O28623   1.781   6.611   5.399
 9014WAT     H128624   1.858   6.600   5.456
 9014WAT     H228625   1.789   6.542   5.334
 9015WAT      O28626   1.650   6.355   5.468
 9015WAT     H128627   1.658   6.260   5.479
 9015WAT     H228628   1.740   6.388   5.478
 9016WAT      O28629   2.983   7.160   6.211
 9016WAT     H128630   2.996   7.242   6.258
 9016WAT     H228631   3.070   7.139   6.176
 9017WAT      O28632   1.731   7.369   6.178
 9017WAT     H128633   1.804   7.315   6.205
 9017WAT     H228634   1.769   7.456   6.164
 9018WAT      O28635   1.419   6.976   5.765
 9018WAT     H128636   1.326   7.000   5.764
 9018WAT     H228637   1.466   7.059   5.753
 9019WAT      O28638   2.042   7.287   5.360
 9019WAT     H128639   2.121   7.316   5.315
 9019WAT     H228640   1.990   7.244   5.292
 9020WAT      O28641   2.947   7.209   5.503
 9020WAT     H128642   2.918   7.168   5.421
 9020WAT     H228643   2.927   7.302   5.491
 9021WAT      O28644   2.093   6.809   5.347
 9021WAT     H128645   2.083   6.747   5.419
 9021WAT     H228646   2.077   6.756   5.268
 9022WAT      O28647   2.417   6.715   5.407
 9022WAT     H128648   2.362   6.760   5.472
 9022WAT     H228649   2.480   6.665   5.459
 9023WAT      O28650   1.984   6.611   5.597
 9023WAT     H128651   2.026   6.594   5.681
 9023WAT     H228652   1.997   6.530   5.547
 9024WAT      O28653   2.235   6.513   5.322
 9024WAT     H128654   2.287   6.442   5.285
 9024WAT     H228655   2.300   6.577   5.352
 9025WAT      O28656   2.126   5.761   6.589
 9025WAT     H128657   2.081   5.763   6.504
 9025WAT     H228658   2.062   5.721   6.648
 9026WAT      O28659   2.166   6.651   6.651
 9026WAT     H128660   2.208   6.735   6.634
 9026WAT     H228661   2.074   6.665   6.628
 9027WAT      O28662   1.874   6.218   5.291
 9027WAT     H128663   1.854   6.132   5.327
 9027WAT     H228664   1.857   6.210   5.198
 9028WAT      O28665   2.622   5.699   5.544
 9028WAT     H128666   2.650   5.615   5.580
 9028WAT     H228667   2.544   5.723   5.596
 9029WAT      O28668   1.754   5.928   5.290
 9029WAT     H128669   1.784   5.929   5.199
 9029WAT     H228670   1.827   5.893   5.340
 9030WAT      O28671   2.075   5.823   5.389
 9030WAT     H128672   2.041   5.755   5.331
 9030WAT     H228673   2.095   5.777   5.470
 9031WAT      O28674   2.292   7.321   5.551
 9031WAT     H128675   2.381   7.355   5.553
 9031WAT     H228676   2.295   7.249   5.488
 9032WAT      O28677   1.656   6.859   5.373
 9032WAT     H128678   1.700   6.913   5.439
 9032WAT     H228679   1.704   6.776   5.374
 9033WAT      O28680   1.377   7.138   6.119
 9033WAT     H128681   1.410   7.051   6.095
 9033WAT     H228682   1.420   7.158   6.202
 9034WAT      O28683   1.837   6.971   5.885
 9034WAT     H128684   1.807   6.958   5.975
 9034WAT     H228685   1.826   6.885   5.844
 9035WAT      O28686   1.426   7.224   6.392
 9035WAT     H128687   1.382   7.242   6.476
 9035WAT     H228688   1.483   7.300   6.378
 9036WAT      O28689   3.114   6.949   5.355
 9036WAT     H128690   3.031   6.955   5.402
 9036WAT     H228691   3.132   7.038   5.325
 9037WAT      O28692   3.059   6.623   5.605
 9037WAT     H128693   3.136   6.680   5.616
 9037WAT     H228694   3.061   6.566   5.682
 9038WAT      O28695   1.409   6.475   6.028
 9038WAT     H128696   1.344   6.449   5.964
 9038WAT     H228697   1.493   6.465   5.983
 9039WAT      O28698   3.160   6.709   6.090
 9039WAT     H128699   3.197   6.630   6.049
 9039WAT     H228700   3.224   6.778   6.072
 9040WAT      O28701   3.065   6.652   5.321
 9040WAT     H128702   3.092   6.743   5.308
 9040WAT     H228703   3.046   6.646   5.415
 9041WAT      O28704   2.704   5.955   5.450
 9041WAT     H128705   2.746   5.936   5.366
 9041WAT     H228706   2.674   5.870   5.482
 9042WAT      O28707   3.054   6.446   5.820
 9042WAT     H128708   3.017   6.369   5.777
 9042WAT     H228709   2.981   6.484   5.869
 9043WAT      O28710   1.513   6.514   6.482
 9043WAT     H128711   1.550   6.505   6.570
 9043WAT     H228712   1.456   6.438   6.472
 9044WAT      O28713   1.331   6.196   5.623
 9044WAT     H128714   1.240   6.223   5.605
 9044WAT     H228715   1.379   6.224   5.545
 9045WAT      O28716   2.982   6.269   6.150
 9045WAT     H128717   3.034   6.219   6.087
 9045WAT     H228718   3.040   6.282   6.225
 9046WAT      O28719   3.000   6.277   6.503
 9046WAT     H128720   2.905   6.274   6.514
 9046WAT     H228721   3.018   6.368   6.479
 9047WAT      O28722   1.585   6.102   5.414
 9047WAT     H128723   1.656   6.060   5.365
 9047WAT     H228724   1.513   6.109   5.350
 9048WAT      O28725   1.550   5.708   5.318
 9048WAT     H128726   1.622   5.762   5.349
 9048WAT     H228727   1.577   5.680   5.230
 9049WAT      O28728   2.931   6.194   5.744
 9049WAT     H128729   2.980   6.171   5.823
 9049WAT     H228730   2.911   6.111   5.703
 9050WAT      O28731   1.519   5.633   6.308
 9050WAT     H128732   1.584   5.578   6.264
 9050WAT     H228733   1.561   5.658   6.390
 9051WAT      O28734   3.074   6.058   5.998
 9051WAT     H128735   3.063   6.043   6.091
 9051WAT     H228736   3.150   6.005   5.973
 9052WAT      O28737   3.163   5.841   5.322
 9052WAT     H128738   3.255   5.828   5.301
 9052WAT     H228739   3.160   5.849   5.417
 9053WAT      O28740   3.170   5.918   5.584
 9053WAT     H128741   3.090   5.912   5.637
 9053WAT     H228742   3.190   6.012   5.583
 9054WAT      O28743   2.864   7.322   5.984
 9054WAT     H128744   2.924   7.290   5.916
 9054WAT     H228745   2.890   7.275   6.063
 9055WAT      O28746   2.025   7.121   6.559
 9055WAT     H128747   2.001   7.148   6.470
 9055WAT     H228748   2.119   7.138   6.564
 9056WAT      O28749   2.583   5.589   6.531
 9056WAT     H128750   2.496   5.623   6.511
 9056WAT     H228751   2.572   5.542   6.613
 9057WAT      O28752   2.919   7.387   6.367
 9057WAT     H128753   2.873   7.462   6.329
 9057WAT     H228754   2.856   7.315   6.361
 9058WAT      O28755   1.602   6.997   6.606
 9058WAT     H128756   1.529   6.935   6.599
 9058WAT     H228757   1.608   7.036   6.519
 9059WAT      O28758   1.962   7.218   6.284
 9059WAT     H128759   2.014   7.157   6.232
 9059WAT     H228760   2.027   7.268   6.333
 9060WAT      O28761   2.236   7.307   6.367
 9060WAT     H128762   2.265   7.282   6.279
 9060WAT     H228763   2.287   7.252   6.426
 9061WAT      O28764   2.358   5.681   6.425
 9061WAT     H128765   2.280   5.728   6.453
 9061WAT     H228766   2.329   5.591   6.414
 9062WAT      O28767   2.813   5.751   6.229
 9062WAT     H128768   2.857   5.746   6.144
 9062WAT     H228769   2.786   5.843   6.236
 9063WAT      O28770   2.999   5.714   6.030
 9063WAT     H128771   2.993   5.620   6.016
 9063WAT     H228772   3.077   5.725   6.085
 9064WAT      O28773   1.430   7.328   5.927
 9064WAT     H128774   1.413   7.265   5.996
 9064WAT     H228775   1.343   7.349   5.892
 9065WAT      O28776   1.492   5.711   5.677
 9065WAT     H128777   1.568   5.723   5.620
 9065WAT     H228778   1.446   5.795   5.672
 9066WAT      O28779   2.146   5.923   5.976
 9066WAT     H128780   2.065   5.885   5.942
 9066WAT     H228781   2.197   5.847   6.006
 9067WAT      O28782   2.597   5.589   6.100
 9067WAT     H128783   2.657   5.646   6.147
 9067WAT     H228784   2.523   5.646   6.077
 9068WAT      O28785   2.911   5.629   5.627
 9068WAT     H128786   2.931   5.719   5.654
 9068WAT     H228787   2.832   5.606   5.676
 9069WAT      O28788   1.591   7.198   5.671
 9069WAT     H128789   1.538   7.236   5.601
 9069WAT     H228790   1.583   7.260   5.743
 9070WAT      O28791   1.730   5.764   5.531
 9070WAT     H128792   1.782   5.685   5.518
 9070WAT     H228793   1.793   5.832   5.554
 9071WAT      O28794   1.949   5.738   5.836
 9071WAT     H128795   1.886   5.668   5.853
 9071WAT     H228796   1.895   5.814   5.815
 9072WAT      O28797   3.066   7.354   5.803
 9072WAT     H128798   3.084   7.285   5.739
 9072WAT     H228799   2.997   7.406   5.764
 9073WAT      O28800   1.851   7.392   5.559
 9073WAT     H128801   1.924   7.364   5.504
 9073WAT     H228802   1.876   7.369   5.648
 9074WAT      O28803   1.767   7.004   5.559
 9074WAT     H128804   1.704   7.051   5.614
 9074WAT     H228805   1.778   6.920   5.602
 9075WAT      O28806   2.512   6.409   4.174
 9075WAT     H128807   2.504   6.318   4.147
 9075WAT     H228808   2.471   6.459   4.103
 9076WAT      O28809   2.325   6.587   4.362
 9076WAT     H128810   2.248   6.539   4.391
 9076WAT     H228811   2.391   6.519   4.345
 9077WAT      O28812   1.727   6.618   4.450
 9077WAT     H128813   1.644   6.593   4.490
 9077WAT     H228814   1.788   6.625   4.523
 9078WAT      O28815   2.727   7.028   4.240
 9078WAT     H128816   2.681   6.950   4.273
 9078WAT     H228817   2.809   7.030   4.291
 9079WAT      O28818   1.725   7.022   4.469
 9079WAT     H128819   1.755   6.933   4.452
 9079WAT     H228820   1.799   7.077   4.447
 9080WAT      O28821   1.568   6.114   3.828
 9080WAT     H128822   1.479   6.148   3.818
 9080WAT     H228823   1.596   6.094   3.739
 9081WAT      O28824   1.364   6.374   4.417
 9081WAT     H128825   1.421   6.297   4.417
 9081WAT     H228826   1.364   6.404   4.326
 9082WAT      O28827   2.350   7.256   4.202
 9082WAT     H128828   2.288   7.302   4.145
 9082WAT     H228829   2.436   7.272   4.162
 9083WAT      O28830   2.269   6.855   4.363
 9083WAT     H128831   2.263   6.760   4.347
 9083WAT     H228832   2.346   6.864   4.420
 9084WAT      O28833   1.489   5.915   4.595
 9084WAT     H128834   1.471   5.825   4.623
 9084WAT     H228835   1.448   5.970   4.663
 9085WAT      O28836   2.373   6.135   4.386
 9085WAT     H128837   2.410   6.048   4.374
 9085WAT     H228838   2.363   6.169   4.296
 9086WAT      O28839   1.786   5.972   3.932
 9086WAT     H128840   1.796   6.063   3.962
 9086WAT     H228841   1.695   5.968   3.903
 9087WAT      O28842   1.550   6.165   4.456
 9087WAT     H128843   1.619   6.191   4.518
 9087WAT     H228844   1.519   6.081   4.490
 9088WAT      O28845   1.970   6.269   4.365
 9088WAT     H128846   2.020   6.319   4.429
 9088WAT     H228847   2.023   6.192   4.347
 9089WAT      O28848   3.180   6.086   4.735
 9089WAT     H128849   3.109   6.125   4.683
 9089WAT     H228850   3.206   6.156   4.795
 9090WAT      O28851   1.798   5.733   4.792
 9090WAT     H128852   1.798   5.785   4.711
 9090WAT     H228853   1.715   5.686   4.789
 9091WAT      O28854   2.437   6.745   3.941
 9091WAT     H128855   2.375   6.791   3.885
 9091WAT     H228856   2.488   6.814   3.983
 9092WAT      O28857   1.923   6.697   4.609
 9092WAT     H128858   1.890   6.760   4.674
 9092WAT     H228859   1.941   6.750   4.531
 9093WAT      O28860   2.774   6.079   4.356
 9093WAT     H128861   2.704   6.108   4.414
 9093WAT     H228862   2.811   6.160   4.320
 9094WAT      O28863   1.766   5.904   4.592
 9094WAT     H128864   1.800   5.989   4.563
 9094WAT     H228865   1.672   5.919   4.604
 9095WAT      O28866   1.844   6.894   4.791
 9095WAT     H128867   1.906   6.962   4.763
 9095WAT     H228868   1.758   6.935   4.782
 9096WAT      O28869   1.374   6.813   3.679
 9096WAT     H128870   1.336   6.862   3.606
 9096WAT     H228871   1.399   6.880   3.742
 9097WAT      O28872   2.936   7.040   4.582
 9097WAT     H128873   2.868   7.107   4.582
 9097WAT     H228874   2.990   7.060   4.506
 9098WAT      O28875   2.134   5.653   4.225
 9098WAT     H128876   2.165   5.598   4.153
 9098WAT     H228877   2.041   5.667   4.206
 9099WAT      O28878   2.690   7.225   4.454
 9099WAT     H128879   2.691   7.185   4.367
 9099WAT     H228880   2.634   7.302   4.443
 9100WAT      O28881   2.819   6.897   3.963
 9100WAT     H128882   2.808   6.803   3.975
 9100WAT     H228883   2.819   6.933   4.051
 9101WAT      O28884   2.629   6.715   4.587
 9101WAT     H128885   2.671   6.694   4.503
 9101WAT     H228886   2.702   6.741   4.644
 9102WAT      O28887   2.373   6.460   3.898
 9102WAT     H128888   2.281   6.453   3.921
 9102WAT     H228889   2.389   6.554   3.887
 9103WAT      O28890   3.024   6.555   4.596
 9103WAT     H128891   2.941   6.562   4.548
 9103WAT     H228892   3.084   6.614   4.549
 9104WAT      O28893   2.776   6.616   3.949
 9104WAT     H128894   2.714   6.582   3.884
 9104WAT     H228895   2.774   6.552   4.019
 9105WAT      O28896   2.720   6.234   4.690
 9105WAT     H128897   2.679   6.316   4.716
 9105WAT     H228898   2.647   6.175   4.671
 9106WAT      O28899   1.934   6.512   4.177
 9106WAT     H128900   1.893   6.441   4.127
 9106WAT     H228901   1.942   6.478   4.265
 9107WAT      O28902   1.981   6.881   4.393
 9107WAT     H128903   1.951   6.821   4.325
 9107WAT     H228904   2.076   6.885   4.382
 9108WAT      O28905   1.805   6.190   4.555
 9108WAT     H128906   1.860   6.201   4.477
 9108WAT     H228907   1.857   6.227   4.626
 9109WAT      O28908   2.789   7.238   4.759
 9109WAT     H128909   2.742   7.319   4.740
 9109WAT     H228910   2.721   7.173   4.774
 9110WAT      O28911   1.890   6.855   5.058
 9110WAT     H128912   1.800   6.877   5.083
 9110WAT     H228913   1.892   6.867   4.963
 9111WAT      O28914   2.594   6.540   3.649
 9111WAT     H128915   2.638   6.456   3.635
 9111WAT     H228916   2.665   6.603   3.658
 9112WAT      O28917   1.773   6.542   4.916
 9112WAT     H128918   1.759   6.629   4.952
 9112WAT     H228919   1.684   6.508   4.901
 9113WAT      O28920   2.405   7.034   4.046
 9113WAT     H128921   2.449   7.108   4.005
 9113WAT     H228922   2.399   7.058   4.139
 9114WAT      O28923   1.952   7.136   5.136
 9114WAT     H128924   1.949   7.177   5.050
 9114WAT     H228925   1.936   7.043   5.120
 9115WAT      O28926   1.604   6.402   3.927
 9115WAT     H128927   1.592   6.474   3.865
 9115WAT     H228928   1.573   6.325   3.879
 9116WAT      O28929   3.147   7.214   5.266
 9116WAT     H128930   3.195   7.262   5.334
 9116WAT     H228931   3.210   7.208   5.194
 9117WAT      O28932   1.368   6.719   4.507
 9117WAT     H128933   1.376   6.732   4.413
 9117WAT     H228934   1.429   6.648   4.527
 9118WAT      O28935   1.492   6.889   4.148
 9118WAT     H128936   1.451   6.903   4.063
 9118WAT     H228937   1.581   6.861   4.128
 9119WAT      O28938   3.088   6.934   4.982
 9119WAT     H128939   3.100   6.910   4.890
 9119WAT     H228940   3.092   6.850   5.029
 9120WAT      O28941   2.474   7.304   4.839
 9120WAT     H128942   2.525   7.295   4.919
 9120WAT     H228943   2.390   7.339   4.868
 9121WAT      O28944   2.672   7.332   3.782
 9121WAT     H128945   2.656   7.303   3.872
 9121WAT     H228946   2.655   7.255   3.728
 9122WAT      O28947   1.919   7.310   3.960
 9122WAT     H128948   1.902   7.219   3.938
 9122WAT     H228949   1.834   7.346   3.984
 9123WAT      O28950   2.642   7.083   3.638
 9123WAT     H128951   2.572   7.083   3.572
 9123WAT     H228952   2.716   7.041   3.595
 9124WAT      O28953   2.598   7.246   4.045
 9124WAT     H128954   2.644   7.168   4.077
 9124WAT     H228955   2.632   7.317   4.100
 9125WAT      O28956   3.073   6.139   5.079
 9125WAT     H128957   3.012   6.190   5.026
 9125WAT     H228958   3.041   6.049   5.073
 9126WAT      O28959   1.373   6.823   4.761
 9126WAT     H128960   1.390   6.776   4.679
 9126WAT     H228961   1.420   6.772   4.828
 9127WAT      O28962   1.851   5.736   4.265
 9127WAT     H128963   1.806   5.814   4.232
 9127WAT     H228964   1.906   5.768   4.336
 9128WAT      O28965   2.279   6.023   4.825
 9128WAT     H128966   2.233   6.044   4.906
 9128WAT     H228967   2.239   5.941   4.795
 9129WAT      O28968   2.779   6.145   4.938
 9129WAT     H128969   2.694   6.115   4.970
 9129WAT     H228970   2.763   6.169   4.847
 9130WAT      O28971   2.489   6.295   5.148
 9130WAT     H128972   2.521   6.212   5.114
 9130WAT     H228973   2.568   6.347   5.163
 9131WAT      O28974   2.162   5.698   3.753
 9131WAT     H128975   2.100   5.698   3.825
 9131WAT     H228976   2.153   5.612   3.713
 9132WAT      O28977   2.054   5.791   4.451
 9132WAT     H128978   2.084   5.881   4.443
 9132WAT     H228979   2.109   5.742   4.389
 9133WAT      O28980   1.830   6.249   4.038
 9133WAT     H128981   1.807   6.227   4.128
 9133WAT     H228982   1.752   6.292   4.003
 9134WAT      O28983   2.074   6.338   5.104
 9134WAT     H128984   2.064   6.244   5.089
 9134WAT     H228985   2.158   6.361   5.065
 9135WAT      O28986   2.413   6.113   4.101
 9135WAT     H128987   2.453   6.145   4.019
 9135WAT     H228988   2.449   6.025   4.112
 9136WAT      O28989   1.587   5.980   4.920
 9136WAT     H128990   1.547   6.064   4.940
 9136WAT     H228991   1.518   5.916   4.939
 9137WAT      O28992   2.244   5.988   5.227
 9137WAT     H128993   2.175   5.969   5.290
 9137WAT     H228994   2.319   6.016   5.280
 9138WAT      O28995   1.317   5.772   4.323
 9138WAT     H128996   1.288   5.829   4.394
 9138WAT     H228997   1.391   5.724   4.359
 9139WAT      O28998   1.336   6.166   3.444
 9139WAT     H128999   1.327   6.260   3.458
 9139WAT     H229000   1.300   6.152   3.356
 9140WAT      O29001   2.472   6.372   4.510
 9140WAT     H129002   2.399   6.423   4.545
 9140WAT     H229003   2.432   6.290   4.480
 9141WAT      O29004   2.116   6.039   4.351
 9141WAT     H129005   2.116   5.995   4.266
 9141WAT     H229006   2.205   6.072   4.361
 9142WAT      O29007   1.701   6.028   4.247
 9142WAT     H129008   1.667   6.075   4.322
 9142WAT     H229009   1.624   5.982   4.211
 9143WAT      O29010   2.122   6.140   3.650
 9143WAT     H129011   2.134   6.135   3.745
 9143WAT     H229012   2.083   6.226   3.634
 9144WAT      O29013   2.518   5.917   4.451
 9144WAT     H129014   2.520   5.962   4.536
 9144WAT     H229015   2.493   5.827   4.473
 9145WAT      O29016   2.023   6.371   3.590
 9145WAT     H129017   1.966   6.326   3.527
 9145WAT     H229018   2.094   6.406   3.536
 9146WAT      O29019   2.861   5.659   5.035
 9146WAT     H129020   2.893   5.585   5.088
 9146WAT     H229021   2.864   5.627   4.945
 9147WAT      O29022   1.531   6.761   4.977
 9147WAT     H129023   1.492   6.697   5.037
 9147WAT     H229024   1.562   6.831   5.034
 9148WAT      O29025   2.146   6.445   4.525
 9148WAT     H129026   2.182   6.398   4.600
 9148WAT     H229027   2.127   6.533   4.559
 9149WAT      O29028   1.432   5.920   4.138
 9149WAT     H129029   1.404   5.883   4.222
 9149WAT     H229030   1.426   5.847   4.077
 9150WAT      O29031   1.925   6.349   4.757
 9150WAT     H129032   1.894   6.437   4.780
 9150WAT     H229033   2.020   6.355   4.761
 9151WAT      O29034   1.777   6.770   3.817
 9151WAT     H129035   1.700   6.716   3.801
 9151WAT     H229036   1.850   6.718   3.783
 9152WAT      O29037   2.853   6.670   4.396
 9152WAT     H129038   2.925   6.719   4.357
 9152WAT     H229039   2.833   6.602   4.332
 9153WAT      O29040   2.392   6.677   4.985
 9153WAT     H129041   2.385   6.585   4.959
 9153WAT     H229042   2.329   6.687   5.056
 9154WAT      O29043   1.782   6.737   4.181
 9154WAT     H129044   1.834   6.657   4.175
 9154WAT     H229045   1.737   6.731   4.265
 9155WAT      O29046   2.271   6.864   3.708
 9155WAT     H129047   2.305   6.938   3.658
 9155WAT     H229048   2.188   6.895   3.744
 9156WAT      O29049   1.530   6.434   4.872
 9156WAT     H129050   1.494   6.500   4.931
 9156WAT     H229051   1.501   6.350   4.909
 9157WAT      O29052   1.850   6.479   5.160
 9157WAT     H129053   1.820   6.494   5.071
 9157WAT     H229054   1.928   6.423   5.151
 9158WAT      O29055   2.385   6.959   4.960
 9158WAT     H129056   2.386   6.866   4.938
 9158WAT     H229057   2.314   6.968   5.024
 9159WAT      O29058   2.898   6.377   3.587
 9159WAT     H129059   2.890   6.421   3.502
 9159WAT     H229060   2.970   6.423   3.630
 9160WAT      O29061   3.006   6.623   4.894
 9160WAT     H129062   2.933   6.682   4.875
 9160WAT     H229063   3.059   6.622   4.815
 9161WAT      O29064   3.001   7.063   3.860
 9161WAT     H129065   2.937   6.997   3.887
 9161WAT     H229066   2.962   7.103   3.782
 9162WAT      O29067   2.559   6.796   4.244
 9162WAT     H129068   2.594   6.736   4.178
 9162WAT     H229069   2.470   6.763   4.261
 9163WAT      O29070   2.167   6.872   3.985
 9163WAT     H129071   2.236   6.926   4.023
 9163WAT     H229072   2.089   6.926   3.989
 9164WAT      O29073   1.381   6.433   3.534
 9164WAT     H129074   1.468   6.462   3.563
 9164WAT     H229075   1.332   6.515   3.523
 9165WAT      O29076   2.098   6.572   3.946
 9165WAT     H129077   2.143   6.653   3.969
 9165WAT     H229078   2.063   6.540   4.029
 9166WAT      O29079   2.328   7.123   4.669
 9166WAT     H129080   2.392   7.144   4.737
 9166WAT     H229081   2.364   7.047   4.624
 9167WAT      O29082   1.688   5.607   3.993
 9167WAT     H129083   1.675   5.606   4.088
 9167WAT     H229084   1.605   5.640   3.958
 9168WAT      O29085   2.455   6.924   4.541
 9168WAT     H129086   2.520   6.853   4.552
 9168WAT     H229087   2.508   7.002   4.523
 9169WAT      O29088   2.840   6.952   3.513
 9169WAT     H129089   2.817   6.880   3.573
 9169WAT     H229090   2.801   6.927   3.430
 9170WAT      O29091   2.633   7.003   4.861
 9170WAT     H129092   2.666   7.062   4.929
 9170WAT     H229093   2.541   6.990   4.884
 9171WAT      O29094   1.418   7.355   3.591
 9171WAT     H129095   1.454   7.415   3.525
 9171WAT     H229096   1.404   7.409   3.668
 9172WAT      O29097   1.388   5.782   4.940
 9172WAT     H129098   1.316   5.802   5.000
 9172WAT     H229099   1.430   5.705   4.977
 9173WAT      O29100   2.798   6.744   3.679
 9173WAT     H129101   2.769   6.790   3.758
 9173WAT     H229102   2.878   6.698   3.706
 9174WAT      O29103   1.417   7.181   5.038
 9174WAT     H129104   1.427   7.087   5.024
 9174WAT     H229105   1.351   7.208   4.973
 9175WAT      O29106   2.216   7.008   5.178
 9175WAT     H129107   2.184   6.937   5.233
 9175WAT     H229108   2.148   7.076   5.186
 9176WAT      O29109   2.020   7.093   3.673
 9176WAT     H129110   2.019   7.166   3.611
 9176WAT     H229111   1.928   7.068   3.682
 9177WAT      O29112   1.580   6.615   3.747
 9177WAT     H129113   1.519   6.689   3.748
 9177WAT     H229114   1.627   6.624   3.664
 9178WAT      O29115   2.537   6.032   4.715
 9178WAT     H129116   2.574   5.950   4.747
 9178WAT     H229117   2.451   6.038   4.756
 9179WAT      O29118   2.318   7.099   3.539
 9179WAT     H129119   2.329   7.079   3.446
 9179WAT     H229120   2.228   7.074   3.559
 9180WAT      O29121   2.071   6.155   3.937
 9180WAT     H129122   2.000   6.202   3.981
 9180WAT     H229123   2.099   6.089   4.000
 9181WAT      O29124   2.233   6.297   4.737
 9181WAT     H129125   2.283   6.345   4.803
 9181WAT     H229126   2.247   6.205   4.758
 9182WAT      O29127   2.474   5.828   4.081
 9182WAT     H129128   2.461   5.829   3.986
 9182WAT     H229129   2.569   5.832   4.093
 9183WAT      O29130   2.183   7.351   4.008
 9183WAT     H129131   2.208   7.347   3.916
 9183WAT     H229132   2.088   7.338   4.008
 9184WAT      O29133   1.891   5.986   3.675
 9184WAT     H129134   1.976   6.030   3.668
 9184WAT     H229135   1.854   6.017   3.757
 9185WAT      O29136   2.954   5.919   4.821
 9185WAT     H129137   2.904   5.993   4.855
 9185WAT     H229138   3.035   5.958   4.790
 9186WAT      O29139   2.783   6.443   4.166
 9186WAT     H129140   2.689   6.445   4.183
 9186WAT     H229141   2.815   6.364   4.210
 9187WAT      O29142   1.781   6.611   3.522
 9187WAT     H129143   1.858   6.600   3.578
 9187WAT     H229144   1.789   6.542   3.457
 9188WAT      O29145   1.650   6.355   3.590
 9188WAT     H129146   1.658   6.260   3.601
 9188WAT     H229147   1.740   6.388   3.601
 9189WAT      O29148   2.983   7.160   4.333
 9189WAT     H129149   2.996   7.242   4.381
 9189WAT     H229150   3.070   7.139   4.299
 9190WAT      O29151   1.731   7.369   4.301
 9190WAT     H129152   1.804   7.315   4.328
 9190WAT     H229153   1.769   7.456   4.287
 9191WAT      O29154   1.419   6.976   3.888
 9191WAT     H129155   1.326   7.000   3.887
 9191WAT     H229156   1.466   7.059   3.876
 9192WAT      O29157   1.631   7.288   5.219
 9192WAT     H129158   1.711   7.320   5.261
 9192WAT     H229159   1.580   7.252   5.292
 9193WAT      O29160   2.042   7.287   3.483
 9193WAT     H129161   2.121   7.316   3.438
 9193WAT     H229162   1.990   7.244   3.415
 9194WAT      O29163   2.515   6.899   5.214
 9194WAT     H129164   2.454   6.901   5.140
 9194WAT     H229165   2.484   6.826   5.268
 9195WAT      O29166   2.658   7.272   5.075
 9195WAT     H129167   2.753   7.263   5.070
 9195WAT     H229168   2.643   7.338   5.143
 9196WAT      O29169   2.947   7.209   3.625
 9196WAT     H129170   2.918   7.168   3.544
 9196WAT     H229171   2.927   7.302   3.613
 9197WAT      O29172   1.403   6.537   5.114
 9197WAT     H129173   1.453   6.479   5.171
 9197WAT     H229174   1.329   6.565   5.168
 9198WAT      O29175   2.093   6.809   3.469
 9198WAT     H129176   2.083   6.747   3.542
 9198WAT     H229177   2.077   6.756   3.391
 9199WAT      O29178   2.108   6.677   5.067
 9199WAT     H129179   2.032   6.734   5.059
 9199WAT     H229180   2.127   6.648   4.978
 9200WAT      O29181   2.417   6.715   3.530
 9200WAT     H129182   2.362   6.760   3.594
 9200WAT     H229183   2.480   6.665   3.582
 9201WAT      O29184   2.823   6.850   5.123
 9201WAT     H129185   2.897   6.884   5.073
 9201WAT     H229186   2.746   6.867   5.068
 9202WAT      O29187   1.606   6.351   5.203
 9202WAT     H129188   1.610   6.321   5.294
 9202WAT     H229189   1.692   6.391   5.187
 9203WAT      O29190   1.984   6.611   3.719
 9203WAT     H129191   2.026   6.594   3.804
 9203WAT     H229192   1.997   6.530   3.670
 9204WAT      O29193   1.800   6.209   5.000
 9204WAT     H129194   1.747   6.160   4.937
 9204WAT     H229195   1.867   6.252   4.947
 9205WAT      O29196   2.235   6.513   3.444
 9205WAT     H129197   2.287   6.442   3.407
 9205WAT     H229198   2.300   6.577   3.474
 9206WAT      O29199   2.690   6.656   4.976
 9206WAT     H129200   2.732   6.671   5.061
 9206WAT     H229201   2.597   6.668   4.993
 9207WAT      O29202   2.737   6.390   5.177
 9207WAT     H129203   2.796   6.314   5.168
 9207WAT     H229204   2.755   6.443   5.099
 9208WAT      O29205   1.849   5.906   5.008
 9208WAT     H129206   1.840   5.844   4.936
 9208WAT     H229207   1.791   5.978   4.985
 9209WAT      O29208   2.126   5.761   4.711
 9209WAT     H129209   2.081   5.763   4.627
 9209WAT     H229210   2.062   5.721   4.771
 9210WAT      O29211   2.166   6.651   4.773
 9210WAT     H129212   2.208   6.735   4.756
 9210WAT     H229213   2.074   6.665   4.750
 9211WAT      O29214   2.400   6.424   4.912
 9211WAT     H129215   2.412   6.364   4.986
 9211WAT     H229216   2.486   6.428   4.870
 9212WAT      O29217   2.634   6.479   4.769
 9212WAT     H129218   2.581   6.532   4.709
 9212WAT     H229219   2.668   6.543   4.832
 9213WAT      O29220   1.874   6.218   3.414
 9213WAT     H129221   1.854   6.132   3.450
 9213WAT     H229222   1.857   6.210   3.320
 9214WAT      O29223   1.951   7.281   4.885
 9214WAT     H129224   1.898   7.354   4.853
 9214WAT     H229225   1.977   7.234   4.806
 9215WAT      O29226   2.077   6.078   5.038
 9215WAT     H129227   2.136   6.047   5.106
 9215WAT     H229228   1.995   6.031   5.053
 9216WAT      O29229   2.559   6.040   5.061
 9216WAT     H129230   2.490   5.974   5.054
 9216WAT     H229231   2.631   5.995   5.105
 9217WAT      O29232   1.754   5.928   3.413
 9217WAT     H129233   1.784   5.929   3.322
 9217WAT     H229234   1.827   5.893   3.462
 9218WAT      O29235   2.237   7.405   4.911
 9218WAT     H129236   2.230   7.495   4.942
 9218WAT     H229237   2.147   7.373   4.908
 9219WAT      O29238   2.075   5.823   3.511
 9219WAT     H129239   2.041   5.755   3.453
 9219WAT     H229240   2.095   5.777   3.593
 9220WAT      O29241   2.292   7.321   3.673
 9220WAT     H129242   2.381   7.355   3.675
 9220WAT     H229243   2.295   7.249   3.610
 9221WAT      O29244   1.656   6.859   3.496
 9221WAT     H129245   1.700   6.913   3.562
 9221WAT     H229246   1.704   6.776   3.497
 9222WAT      O29247   1.377   7.138   4.241
 9222WAT     H129248   1.410   7.051   4.218
 9222WAT     H229249   1.420   7.158   4.324
 9223WAT      O29250   1.837   6.971   4.007
 9223WAT     H129251   1.807   6.958   4.097
 9223WAT     H229252   1.826   6.885   3.966
 9224WAT      O29253   1.426   7.224   4.515
 9224WAT     H129254   1.382   7.242   4.598
 9224WAT     H229255   1.483   7.300   4.501
 9225WAT      O29256   2.990   7.174   4.944
 9225WAT     H129257   2.930   7.180   4.869
 9225WAT     H229258   3.003   7.081   4.957
 9226WAT      O29259   3.114   6.949   3.477
 9226WAT     H129260   3.031   6.955   3.525
 9226WAT     H229261   3.132   7.038   3.447
 9227WAT      O29262   3.059   6.623   3.728
 9227WAT     H129263   3.136   6.680   3.738
 9227WAT     H229264   3.061   6.566   3.805
 9228WAT      O29265   1.409   6.475   4.151
 9228WAT     H129266   1.344   6.449   4.086
 9228WAT     H229267   1.493   6.465   4.106
 9229WAT      O29268   3.160   6.709   4.212
 9229WAT     H129269   3.197   6.630   4.172
 9229WAT     H229270   3.224   6.778   4.194
 9230WAT      O29271   2.858   6.847   4.754
 9230WAT     H129272   2.777   6.890   4.780
 9230WAT     H229273   2.899   6.908   4.692
 9231WAT      O29274   3.065   6.652   3.444
 9231WAT     H129275   3.092   6.743   3.431
 9231WAT     H229276   3.046   6.646   3.537
 9232WAT      O29277   1.513   6.514   4.605
 9232WAT     H129278   1.550   6.505   4.693
 9232WAT     H229279   1.456   6.438   4.595
 9233WAT      O29280   2.993   6.361   4.906
 9233WAT     H129281   2.970   6.338   4.816
 9233WAT     H229282   3.019   6.453   4.902
 9234WAT      O29283   1.468   6.205   4.995
 9234WAT     H129284   1.379   6.202   5.029
 9234WAT     H229285   1.522   6.225   5.072
 9235WAT      O29286   2.837   5.883   5.184
 9235WAT     H129287   2.925   5.884   5.222
 9235WAT     H229288   2.838   5.810   5.123
 9236WAT      O29289   1.331   6.196   3.745
 9236WAT     H129290   1.240   6.223   3.728
 9236WAT     H229291   1.379   6.224   3.667
 9237WAT      O29292   3.000   6.277   4.625
 9237WAT     H129293   2.905   6.274   4.637
 9237WAT     H229294   3.018   6.368   4.602
 9238WAT      O29295   1.585   6.102   3.536
 9238WAT     H129296   1.656   6.060   3.488
 9238WAT     H229297   1.513   6.109   3.473
 9239WAT      O29298   1.550   5.708   3.440
 9239WAT     H129299   1.622   5.762   3.472
 9239WAT     H229300   1.577   5.680   3.353
 9240WAT      O29301   1.519   5.633   4.430
 9240WAT     H129302   1.584   5.578   4.386
 9240WAT     H229303   1.561   5.658   4.512
 9241WAT      O29304   2.908   5.652   4.766
 9241WAT     H129305   2.972   5.713   4.803
 9241WAT     H229306   2.923   5.656   4.672
 9242WAT      O29307   2.864   7.322   4.106
 9242WAT     H129308   2.924   7.290   4.039
 9242WAT     H229309   2.890   7.275   4.185
 9243WAT      O29310   1.494   5.648   4.705
 9243WAT     H129311   1.459   5.694   4.781
 9243WAT     H229312   1.461   5.559   4.713
 9244WAT      O29313   1.655   6.965   5.121
 9244WAT     H129314   1.650   6.928   5.209
 9244WAT     H229315   1.668   7.059   5.135
 9245WAT      O29316   2.025   7.121   4.681
 9245WAT     H129317   2.001   7.148   4.593
 9245WAT     H229318   2.119   7.138   4.687
 9246WAT      O29319   2.245   5.767   5.057
 9246WAT     H129320   2.239   5.826   5.132
 9246WAT     H229321   2.339   5.757   5.042
 9247WAT      O29322   2.509   5.733   5.021
 9247WAT     H129323   2.570   5.765   4.955
 9247WAT     H229324   2.564   5.684   5.083
 9248WAT      O29325   3.151   7.323   4.761
 9248WAT     H129326   3.101   7.363   4.690
 9248WAT     H229327   3.090   7.260   4.801
 9249WAT      O29328   1.561   5.601   5.032
 9249WAT     H129329   1.616   5.583   4.956
 9249WAT     H229330   1.568   5.522   5.086
 9250WAT      O29331   1.639   7.260   4.833
 9250WAT     H129332   1.579   7.247   4.907
 9250WAT     H229333   1.638   7.176   4.787
 9251WAT      O29334   2.583   5.589   4.653
 9251WAT     H129335   2.496   5.623   4.633
 9251WAT     H229336   2.572   5.542   4.736
 9252WAT      O29337   2.674   5.810   4.792
 9252WAT     H129338   2.641   5.729   4.754
 9252WAT     H229339   2.769   5.806   4.779
 9253WAT      O29340   2.919   7.387   4.489
 9253WAT     H129341   2.873   7.462   4.452
 9253WAT     H229342   2.856   7.315   4.483
 9254WAT      O29343   1.602   6.997   4.728
 9254WAT     H129344   1.529   6.935   4.721
 9254WAT     H229345   1.608   7.036   4.641
 9255WAT      O29346   1.962   7.218   4.407
 9255WAT     H129347   2.014   7.157   4.354
 9255WAT     H229348   2.027   7.268   4.456
 9256WAT      O29349   2.236   7.307   4.489
 9256WAT     H129350   2.265   7.282   4.402
 9256WAT     H229351   2.287   7.252   4.548
 9257WAT      O29352   2.358   5.681   4.547
 9257WAT     H129353   2.280   5.728   4.575
 9257WAT     H229354   2.329   5.591   4.536
 9258WAT      O29355   2.813   5.751   4.352
 9258WAT     H129356   2.857   5.746   4.267
 9258WAT     H229357   2.786   5.843   4.359
 9259WAT      O29358   1.430   7.328   4.049
 9259WAT     H129359   1.413   7.265   4.119
 9259WAT     H229360   1.343   7.349   4.014
 9260WAT      O29361   1.492   5.711   3.799
 9260WAT     H129362   1.568   5.723   3.742
 9260WAT     H229363   1.446   5.795   3.795
 9261WAT      O29364   2.146   5.923   4.098
 9261WAT     H129365   2.065   5.885   4.064
 9261WAT     H229366   2.197   5.847   4.129
 9262WAT      O29367   2.597   5.589   4.222
 9262WAT     H129368   2.657   5.646   4.270
 9262WAT     H229369   2.523   5.646   4.200
 9263WAT      O29370   1.591   7.198   3.794
 9263WAT     H129371   1.538   7.236   3.723
 9263WAT     H229372   1.583   7.260   3.866
 9264WAT      O29373   1.730   5.764   3.653
 9264WAT     H129374   1.782   5.685   3.641
 9264WAT     H229375   1.793   5.832   3.677
 9265WAT      O29376   1.949   5.738   3.959
 9265WAT     H129377   1.886   5.668   3.976
 9265WAT     H229378   1.895   5.814   3.937
 9266WAT      O29379   2.243   7.399   5.226
 9266WAT     H129380   2.336   7.376   5.230
 9266WAT     H229381   2.241   7.482   5.178
 9267WAT      O29382   3.066   7.354   3.926
 9267WAT     H129383   3.084   7.285   3.861
 9267WAT     H229384   2.997   7.406   3.887
 9268WAT      O29385   1.961   5.666   5.202
 9268WAT     H129386   1.933   5.716   5.126
 9268WAT     H229387   2.000   5.586   5.166
 9269WAT      O29388   1.851   7.392   3.681
 9269WAT     H129389   1.924   7.364   3.626
 9269WAT     H229390   1.876   7.369   3.770
 9270WAT      O29391   1.767   7.004   3.682
 9270WAT     H129392   1.704   7.051   3.736
 9270WAT     H229393   1.778   6.920   3.725
 9271WAT      O29394   2.622   5.607   5.260
 9271WAT     H129395   2.610   5.639   5.350
 9271WAT     H229396   2.703   5.647   5.231
 9272WAT      O29397   2.900   7.322   5.208
 9272WAT     H129398   2.979   7.272   5.188
 9272WAT     H229399   2.929   7.390   5.269
 9273WAT      O29400   1.727   6.618   2.572
 9273WAT     H129401   1.644   6.593   2.612
 9273WAT     H229402   1.788   6.625   2.646
 9274WAT      O29403   1.568   6.114   1.951
 9274WAT     H129404   1.479   6.148   1.941
 9274WAT     H229405   1.596   6.094   1.862
 9275WAT      O29406   1.364   6.374   2.539
 9275WAT     H129407   1.421   6.297   2.539
 9275WAT     H229408   1.364   6.404   2.448
 9276WAT      O29409   1.489   5.915   2.718
 9276WAT     H129410   1.471   5.825   2.746
 9276WAT     H229411   1.448   5.970   2.785
 9277WAT      O29412   1.786   5.972   2.054
 9277WAT     H129413   1.796   6.063   2.085
 9277WAT     H229414   1.695   5.968   2.025
 9278WAT      O29415   1.550   6.165   2.579
 9278WAT     H129416   1.619   6.191   2.641
 9278WAT     H229417   1.519   6.081   2.612
 9279WAT      O29418   1.798   5.733   2.914
 9279WAT     H129419   1.798   5.785   2.834
 9279WAT     H229420   1.715   5.686   2.912
 9280WAT      O29421   1.766   5.904   2.715
 9280WAT     H129422   1.800   5.989   2.685
 9280WAT     H229423   1.672   5.919   2.727
 9281WAT      O29424   1.374   6.813   1.801
 9281WAT     H129425   1.336   6.862   1.728
 9281WAT     H229426   1.399   6.880   1.865
 9282WAT      O29427   2.372   6.087   1.721
 9282WAT     H129428   2.278   6.103   1.729
 9282WAT     H229429   2.404   6.159   1.666
 9283WAT      O29430   1.890   6.855   3.181
 9283WAT     H129431   1.800   6.877   3.205
 9283WAT     H229432   1.892   6.867   3.086
 9284WAT      O29433   1.773   6.542   3.038
 9284WAT     H129434   1.759   6.629   3.075
 9284WAT     H229435   1.684   6.508   3.024
 9285WAT      O29436   1.952   7.136   3.259
 9285WAT     H129437   1.949   7.177   3.172
 9285WAT     H229438   1.936   7.043   3.243
 9286WAT      O29439   2.952   5.665   1.603
 9286WAT     H129440   2.921   5.675   1.693
 9286WAT     H229441   3.028   5.723   1.598
 9287WAT      O29442   1.604   6.402   2.049
 9287WAT     H129443   1.592   6.474   1.988
 9287WAT     H229444   1.573   6.325   2.001
 9288WAT      O29445   1.368   6.719   2.630
 9288WAT     H129446   1.376   6.732   2.535
 9288WAT     H229447   1.429   6.648   2.649
 9289WAT      O29448   1.492   6.889   2.271
 9289WAT     H129449   1.451   6.903   2.185
 9289WAT     H229450   1.581   6.861   2.251
 9290WAT      O29451   2.672   7.332   1.904
 9290WAT     H129452   2.656   7.303   1.994
 9290WAT     H229453   2.655   7.255   1.851
 9291WAT      O29454   2.642   7.083   1.760
 9291WAT     H129455   2.572   7.083   1.694
 9291WAT     H229456   2.716   7.041   1.717
 9292WAT      O29457   1.373   6.823   2.884
 9292WAT     H129458   1.390   6.776   2.802
 9292WAT     H229459   1.420   6.772   2.950
 9293WAT      O29460   1.851   5.736   2.387
 9293WAT     H129461   1.806   5.814   2.354
 9293WAT     H229462   1.906   5.768   2.458
 9294WAT      O29463   1.587   5.980   3.042
 9294WAT     H129464   1.547   6.064   3.063
 9294WAT     H229465   1.518   5.916   3.061
 9295WAT      O29466   2.244   5.988   3.349
 9295WAT     H129467   2.175   5.969   3.413
 9295WAT     H229468   2.319   6.016   3.402
 9296WAT      O29469   1.317   5.772   2.445
 9296WAT     H129470   1.288   5.829   2.517
 9296WAT     H229471   1.391   5.724   2.482
 9297WAT      O29472   1.336   6.166   1.566
 9297WAT     H129473   1.327   6.260   1.581
 9297WAT     H229474   1.300   6.152   1.479
 9298WAT      O29475   2.023   6.371   1.712
 9298WAT     H129476   1.966   6.326   1.649
 9298WAT     H229477   2.094   6.406   1.659
 9299WAT      O29478   1.531   6.761   3.100
 9299WAT     H129479   1.492   6.697   3.160
 9299WAT     H229480   1.562   6.831   3.157
 9300WAT      O29481   1.432   5.920   2.261
 9300WAT     H129482   1.404   5.883   2.345
 9300WAT     H229483   1.426   5.847   2.199
 9301WAT      O29484   1.925   6.349   2.880
 9301WAT     H129485   1.894   6.437   2.902
 9301WAT     H229486   2.020   6.355   2.883
 9302WAT      O29487   1.777   6.770   1.939
 9302WAT     H129488   1.700   6.716   1.923
 9302WAT     H229489   1.850   6.718   1.906
 9303WAT      O29490   1.782   6.737   2.303
 9303WAT     H129491   1.834   6.657   2.298
 9303WAT     H229492   1.737   6.731   2.387
 9304WAT      O29493   2.271   6.864   1.830
 9304WAT     H129494   2.305   6.938   1.781
 9304WAT     H229495   2.188   6.895   1.867
 9305WAT      O29496   1.530   6.434   2.994
 9305WAT     H129497   1.494   6.500   3.053
 9305WAT     H229498   1.501   6.350   3.032
 9306WAT      O29499   1.850   6.479   3.283
 9306WAT     H129500   1.820   6.494   3.193
 9306WAT     H229501   1.928   6.423   3.274
 9307WAT      O29502   2.898   6.377   1.709
 9307WAT     H129503   2.890   6.421   1.624
 9307WAT     H229504   2.970   6.423   1.753
 9308WAT      O29505   3.001   7.063   1.982
 9308WAT     H129506   2.937   6.997   2.010
 9308WAT     H229507   2.962   7.103   1.905
 9309WAT      O29508   1.381   6.433   1.657
 9309WAT     H129509   1.468   6.462   1.685
 9309WAT     H229510   1.332   6.515   1.645
 9310WAT      O29511   1.688   5.607   2.116
 9310WAT     H129512   1.675   5.606   2.211
 9310WAT     H229513   1.605   5.640   2.081
 9311WAT      O29514   2.840   6.952   1.636
 9311WAT     H129515   2.817   6.880   1.695
 9311WAT     H229516   2.801   6.927   1.552
 9312WAT      O29517   1.388   5.782   3.062
 9312WAT     H129518   1.316   5.802   3.123
 9312WAT     H229519   1.430   5.705   3.099
 9313WAT      O29520   2.798   6.744   1.802
 9313WAT     H129521   2.769   6.790   1.881
 9313WAT     H229522   2.878   6.698   1.829
 9314WAT      O29523   1.417   7.181   3.161
 9314WAT     H129524   1.427   7.087   3.147
 9314WAT     H229525   1.351   7.208   3.096
 9315WAT      O29526   2.216   7.008   3.301
 9315WAT     H129527   2.184   6.937   3.355
 9315WAT     H229528   2.148   7.076   3.308
 9316WAT      O29529   1.580   6.615   1.870
 9316WAT     H129530   1.519   6.689   1.871
 9316WAT     H229531   1.627   6.624   1.787
 9317WAT      O29532   2.318   7.099   1.661
 9317WAT     H129533   2.329   7.079   1.568
 9317WAT     H229534   2.228   7.074   1.682
 9318WAT      O29535   1.781   6.611   1.644
 9318WAT     H129536   1.858   6.600   1.701
 9318WAT     H229537   1.789   6.542   1.579
 9319WAT      O29538   1.650   6.355   1.713
 9319WAT     H129539   1.658   6.260   1.724
 9319WAT     H229540   1.740   6.388   1.723
 9320WAT      O29541   1.631   7.288   3.342
 9320WAT     H129542   1.711   7.320   3.383
 9320WAT     H229543   1.580   7.252   3.414
 9321WAT      O29544   2.947   7.209   1.748
 9321WAT     H129545   2.918   7.168   1.666
 9321WAT     H229546   2.927   7.302   1.736
 9322WAT      O29547   1.403   6.537   3.236
 9322WAT     H129548   1.453   6.479   3.294
 9322WAT     H229549   1.329   6.565   3.290
 9323WAT      O29550   2.093   6.809   1.592
 9323WAT     H129551   2.083   6.747   1.664
 9323WAT     H229552   2.077   6.756   1.513
 9324WAT      O29553   2.108   6.677   3.190
 9324WAT     H129554   2.032   6.734   3.181
 9324WAT     H229555   2.127   6.648   3.100
 9325WAT      O29556   2.417   6.715   1.652
 9325WAT     H129557   2.362   6.760   1.717
 9325WAT     H229558   2.480   6.665   1.705
 9326WAT      O29559   1.606   6.351   3.326
 9326WAT     H129560   1.610   6.321   3.417
 9326WAT     H229561   1.692   6.391   3.310
 9327WAT      O29562   1.984   6.611   1.842
 9327WAT     H129563   2.026   6.594   1.926
 9327WAT     H229564   1.997   6.530   1.792
 9328WAT      O29565   1.800   6.209   3.123
 9328WAT     H129566   1.747   6.160   3.060
 9328WAT     H229567   1.867   6.252   3.069
 9329WAT      O29568   2.235   6.513   1.567
 9329WAT     H129569   2.287   6.442   1.530
 9329WAT     H229570   2.300   6.577   1.597
 9330WAT      O29571   1.849   5.906   3.131
 9330WAT     H129572   1.840   5.844   3.058
 9330WAT     H229573   1.791   5.978   3.108
 9331WAT      O29574   2.126   5.761   2.834
 9331WAT     H129575   2.081   5.763   2.749
 9331WAT     H229576   2.062   5.721   2.894
 9332WAT      O29577   1.874   6.218   1.536
 9332WAT     H129578   1.854   6.132   1.573
 9332WAT     H229579   1.857   6.210   1.443
 9333WAT      O29580   2.077   6.078   3.160
 9333WAT     H129581   2.136   6.047   3.229
 9333WAT     H229582   1.995   6.031   3.176
 9334WAT      O29583   2.622   5.699   1.789
 9334WAT     H129584   2.650   5.615   1.825
 9334WAT     H229585   2.544   5.723   1.841
 9335WAT      O29586   1.754   5.928   1.535
 9335WAT     H129587   1.784   5.929   1.444
 9335WAT     H229588   1.827   5.893   1.585
 9336WAT      O29589   2.237   7.405   3.033
 9336WAT     H129590   2.230   7.495   3.064
 9336WAT     H229591   2.147   7.373   3.031
 9337WAT      O29592   1.656   6.859   1.619
 9337WAT     H129593   1.700   6.913   1.684
 9337WAT     H229594   1.704   6.776   1.619
 9338WAT      O29595   3.114   6.949   1.600
 9338WAT     H129596   3.031   6.955   1.647
 9338WAT     H229597   3.132   7.038   1.570
 9339WAT      O29598   3.059   6.623   1.850
 9339WAT     H129599   3.136   6.680   1.861
 9339WAT     H229600   3.061   6.566   1.927
 9340WAT      O29601   1.409   6.475   2.273
 9340WAT     H129602   1.344   6.449   2.209
 9340WAT     H229603   1.493   6.465   2.228
 9341WAT      O29604   3.160   6.709   2.335
 9341WAT     H129605   3.197   6.630   2.294
 9341WAT     H229606   3.224   6.778   2.317
 9342WAT      O29607   3.065   6.652   1.566
 9342WAT     H129608   3.092   6.743   1.553
 9342WAT     H229609   3.046   6.646   1.660
 9343WAT      O29610   2.704   5.955   1.696
 9343WAT     H129611   2.746   5.936   1.612
 9343WAT     H229612   2.674   5.870   1.727
 9344WAT      O29613   3.054   6.446   2.065
 9344WAT     H129614   3.017   6.369   2.022
 9344WAT     H229615   2.981   6.484   2.114
 9345WAT      O29616   1.513   6.514   2.727
 9345WAT     H129617   1.550   6.505   2.815
 9345WAT     H229618   1.456   6.438   2.718
 9346WAT      O29619   1.468   6.205   3.118
 9346WAT     H129620   1.379   6.202   3.152
 9346WAT     H229621   1.522   6.225   3.195
 9347WAT      O29622   1.331   6.196   1.868
 9347WAT     H129623   1.240   6.223   1.850
 9347WAT     H229624   1.379   6.224   1.790
 9348WAT      O29625   1.585   6.102   1.659
 9348WAT     H129626   1.656   6.060   1.610
 9348WAT     H229627   1.513   6.109   1.595
 9349WAT      O29628   1.550   5.708   1.563
 9349WAT     H129629   1.622   5.762   1.594
 9349WAT     H229630   1.577   5.680   1.475
 9350WAT      O29631   1.519   5.633   2.553
 9350WAT     H129632   1.584   5.578   2.509
 9350WAT     H229633   1.561   5.658   2.635
 9351WAT      O29634   3.163   5.841   1.567
 9351WAT     H129635   3.255   5.828   1.546
 9351WAT     H229636   3.160   5.849   1.662
 9352WAT      O29637   1.494   5.648   2.827
 9352WAT     H129638   1.459   5.694   2.904
 9352WAT     H229639   1.461   5.559   2.835
 9353WAT      O29640   1.655   6.965   3.244
 9353WAT     H129641   1.650   6.928   3.332
 9353WAT     H229642   1.668   7.059   3.258
 9354WAT      O29643   2.245   5.767   3.179
 9354WAT     H129644   2.239   5.826   3.254
 9354WAT     H229645   2.339   5.757   3.165
 9355WAT      O29646   1.561   5.601   3.155
 9355WAT     H129647   1.616   5.583   3.078
 9355WAT     H229648   1.568   5.522   3.208
 9356WAT      O29649   1.492   5.711   1.922
 9356WAT     H129650   1.568   5.723   1.865
 9356WAT     H229651   1.446   5.795   1.917
 9357WAT      O29652   1.730   5.764   1.776
 9357WAT     H129653   1.782   5.685   1.763
 9357WAT     H229654   1.793   5.832   1.799
 9358WAT      O29655   2.243   7.399   3.349
 9358WAT     H129656   2.336   7.376   3.353
 9358WAT     H229657   2.241   7.482   3.300
 9359WAT      O29658   3.066   7.354   2.048
 9359WAT     H129659   3.084   7.285   1.984
 9359WAT     H229660   2.997   7.406   2.009
 9360WAT      O29661   1.961   5.666   3.325
 9360WAT     H129662   1.933   5.716   3.249
 9360WAT     H229663   2.000   5.586   3.288
 9361WAT      O29664   1.767   7.004   1.804
 9361WAT     H129665   1.704   7.051   1.859
 9361WAT     H229666   1.778   6.920   1.848
 9362WAT      O29667   2.512   6.409   0.419
 9362WAT     H129668   2.504   6.318   0.392
 9362WAT     H229669   2.471   6.459   0.349
 9363WAT      O29670   2.325   6.587   0.607
 9363WAT     H129671   2.248   6.539   0.636
 9363WAT     H229672   2.391   6.519   0.590
 9364WAT      O29673   1.727   6.618   0.695
 9364WAT     H129674   1.644   6.593   0.735
 9364WAT     H229675   1.788   6.625   0.769
 9365WAT      O29676   2.727   7.028   0.485
 9365WAT     H129677   2.681   6.950   0.518
 9365WAT     H229678   2.809   7.030   0.536
 9366WAT      O29679   1.725   7.022   0.715
 9366WAT     H129680   1.755   6.933   0.697
 9366WAT     H229681   1.799   7.077   0.692
 9367WAT      O29682   1.364   6.374   0.662
 9367WAT     H129683   1.421   6.297   0.662
 9367WAT     H229684   1.364   6.404   0.571
 9368WAT      O29685   2.350   7.256   0.447
 9368WAT     H129686   2.288   7.302   0.390
 9368WAT     H229687   2.436   7.272   0.407
 9369WAT      O29688   2.269   6.855   0.608
 9369WAT     H129689   2.263   6.760   0.592
 9369WAT     H229690   2.346   6.864   0.665
 9370WAT      O29691   1.489   5.915   0.841
 9370WAT     H129692   1.471   5.825   0.869
 9370WAT     H229693   1.448   5.970   0.908
 9371WAT      O29694   2.373   6.135   0.631
 9371WAT     H129695   2.410   6.048   0.619
 9371WAT     H229696   2.363   6.169   0.542
 9372WAT      O29697   1.786   5.972   0.177
 9372WAT     H129698   1.796   6.063   0.208
 9372WAT     H229699   1.695   5.968   0.148
 9373WAT      O29700   2.751   5.885   0.324
 9373WAT     H129701   2.833   5.836   0.328
 9373WAT     H229702   2.754   5.944   0.399
 9374WAT      O29703   1.550   6.165   0.701
 9374WAT     H129704   1.619   6.191   0.763
 9374WAT     H229705   1.519   6.081   0.735
 9375WAT      O29706   1.970   6.269   0.610
 9375WAT     H129707   2.020   6.319   0.674
 9375WAT     H229708   2.023   6.192   0.592
 9376WAT      O29709   3.180   6.086   0.980
 9376WAT     H129710   3.109   6.125   0.929
 9376WAT     H229711   3.206   6.156   1.041
 9377WAT      O29712   1.798   5.733   1.037
 9377WAT     H129713   1.798   5.785   0.956
 9377WAT     H229714   1.715   5.686   1.034
 9378WAT      O29715   1.923   6.697   0.854
 9378WAT     H129716   1.890   6.760   0.919
 9378WAT     H229717   1.941   6.750   0.776
 9379WAT      O29718   2.774   6.079   0.601
 9379WAT     H129719   2.704   6.108   0.659
 9379WAT     H229720   2.811   6.160   0.565
 9380WAT      O29721   1.766   5.904   0.837
 9380WAT     H129722   1.800   5.989   0.808
 9380WAT     H229723   1.672   5.919   0.849
 9381WAT      O29724   1.844   6.894   1.036
 9381WAT     H129725   1.906   6.962   1.008
 9381WAT     H229726   1.758   6.935   1.027
 9382WAT      O29727   2.936   7.040   0.827
 9382WAT     H129728   2.868   7.107   0.827
 9382WAT     H229729   2.990   7.060   0.751
 9383WAT      O29730   3.081   6.023   0.640
 9383WAT     H129731   2.987   6.027   0.653
 9383WAT     H229732   3.114   6.105   0.679
 9384WAT      O29733   2.134   5.653   0.470
 9384WAT     H129734   2.165   5.598   0.398
 9384WAT     H229735   2.041   5.667   0.452
 9385WAT      O29736   2.690   7.225   0.699
 9385WAT     H129737   2.691   7.185   0.612
 9385WAT     H229738   2.634   7.302   0.689
 9386WAT      O29739   2.819   6.897   0.208
 9386WAT     H129740   2.808   6.803   0.220
 9386WAT     H229741   2.819   6.933   0.296
 9387WAT      O29742   2.629   6.715   0.832
 9387WAT     H129743   2.671   6.694   0.748
 9387WAT     H229744   2.702   6.741   0.889
 9388WAT      O29745   3.024   6.555   0.841
 9388WAT     H129746   2.941   6.562   0.793
 9388WAT     H229747   3.084   6.614   0.794
 9389WAT      O29748   2.720   6.234   0.935
 9389WAT     H129749   2.679   6.316   0.961
 9389WAT     H229750   2.647   6.175   0.916
 9390WAT      O29751   1.934   6.512   0.422
 9390WAT     H129752   1.893   6.441   0.372
 9390WAT     H229753   1.942   6.478   0.511
 9391WAT      O29754   1.981   6.881   0.638
 9391WAT     H129755   1.951   6.821   0.570
 9391WAT     H229756   2.076   6.885   0.627
 9392WAT      O29757   1.805   6.190   0.800
 9392WAT     H129758   1.860   6.201   0.722
 9392WAT     H229759   1.857   6.227   0.871
 9393WAT      O29760   2.789   7.238   1.004
 9393WAT     H129761   2.742   7.319   0.985
 9393WAT     H229762   2.721   7.173   1.020
 9394WAT      O29763   1.890   6.855   1.303
 9394WAT     H129764   1.800   6.877   1.328
 9394WAT     H229765   1.892   6.867   1.208
 9395WAT      O29766   1.773   6.542   1.161
 9395WAT     H129767   1.759   6.629   1.198
 9395WAT     H229768   1.684   6.508   1.146
 9396WAT      O29769   2.405   7.034   0.291
 9396WAT     H129770   2.449   7.108   0.250
 9396WAT     H229771   2.399   7.058   0.384
 9397WAT      O29772   1.952   7.136   1.382
 9397WAT     H129773   1.949   7.177   1.295
 9397WAT     H229774   1.936   7.043   1.365
 9398WAT      O29775   3.147   7.214   1.511
 9398WAT     H129776   3.195   7.262   1.579
 9398WAT     H229777   3.210   7.208   1.439
 9399WAT      O29778   1.368   6.719   0.752
 9399WAT     H129779   1.376   6.732   0.658
 9399WAT     H229780   1.429   6.648   0.772
 9400WAT      O29781   1.492   6.889   0.393
 9400WAT     H129782   1.451   6.903   0.308
 9400WAT     H229783   1.581   6.861   0.373
 9401WAT      O29784   3.088   6.934   1.227
 9401WAT     H129785   3.100   6.910   1.135
 9401WAT     H229786   3.092   6.850   1.274
 9402WAT      O29787   2.474   7.304   1.084
 9402WAT     H129788   2.525   7.295   1.164
 9402WAT     H229789   2.390   7.339   1.113
 9403WAT      O29790   1.919   7.310   0.205
 9403WAT     H129791   1.902   7.219   0.183
 9403WAT     H229792   1.834   7.346   0.229
 9404WAT      O29793   2.598   7.246   0.290
 9404WAT     H129794   2.644   7.168   0.322
 9404WAT     H229795   2.632   7.317   0.345
 9405WAT      O29796   3.073   6.139   1.324
 9405WAT     H129797   3.012   6.190   1.271
 9405WAT     H229798   3.041   6.049   1.318
 9406WAT      O29799   1.373   6.823   1.006
 9406WAT     H129800   1.390   6.776   0.925
 9406WAT     H229801   1.420   6.772   1.073
 9407WAT      O29802   1.851   5.736   0.510
 9407WAT     H129803   1.806   5.814   0.477
 9407WAT     H229804   1.906   5.768   0.581
 9408WAT      O29805   2.279   6.023   1.070
 9408WAT     H129806   2.233   6.044   1.152
 9408WAT     H229807   2.239   5.941   1.040
 9409WAT      O29808   2.779   6.145   1.183
 9409WAT     H129809   2.694   6.115   1.215
 9409WAT     H229810   2.763   6.169   1.092
 9410WAT      O29811   2.489   6.295   1.393
 9410WAT     H129812   2.521   6.212   1.359
 9410WAT     H229813   2.568   6.347   1.408
 9411WAT      O29814   2.054   5.791   0.696
 9411WAT     H129815   2.084   5.881   0.688
 9411WAT     H229816   2.109   5.742   0.634
 9412WAT      O29817   1.830   6.249   0.283
 9412WAT     H129818   1.807   6.227   0.373
 9412WAT     H229819   1.752   6.292   0.248
 9413WAT      O29820   2.074   6.338   1.349
 9413WAT     H129821   2.064   6.244   1.334
 9413WAT     H229822   2.158   6.361   1.310
 9414WAT      O29823   2.413   6.113   0.346
 9414WAT     H129824   2.453   6.145   0.264
 9414WAT     H229825   2.449   6.025   0.357
 9415WAT      O29826   1.587   5.980   1.165
 9415WAT     H129827   1.547   6.064   1.185
 9415WAT     H229828   1.518   5.916   1.184
 9416WAT      O29829   2.244   5.988   1.472
 9416WAT     H129830   2.175   5.969   1.535
 9416WAT     H229831   2.319   6.016   1.525
 9417WAT      O29832   1.317   5.772   0.568
 9417WAT     H129833   1.288   5.829   0.639
 9417WAT     H229834   1.391   5.724   0.604
 9418WAT      O29835   2.472   6.372   0.755
 9418WAT     H129836   2.399   6.423   0.790
 9418WAT     H229837   2.432   6.290   0.725
 9419WAT      O29838   2.116   6.039   0.596
 9419WAT     H129839   2.116   5.995   0.511
 9419WAT     H229840   2.205   6.072   0.606
 9420WAT      O29841   1.701   6.028   0.492
 9420WAT     H129842   1.667   6.075   0.567
 9420WAT     H229843   1.624   5.982   0.456
 9421WAT      O29844   2.518   5.917   0.696
 9421WAT     H129845   2.520   5.962   0.781
 9421WAT     H229846   2.493   5.827   0.718
 9422WAT      O29847   2.861   5.659   1.280
 9422WAT     H129848   2.893   5.585   1.333
 9422WAT     H229849   2.864   5.627   1.190
 9423WAT      O29850   1.531   6.761   1.222
 9423WAT     H129851   1.492   6.697   1.282
 9423WAT     H229852   1.562   6.831   1.279
 9424WAT      O29853   2.146   6.445   0.770
 9424WAT     H129854   2.182   6.398   0.845
 9424WAT     H229855   2.127   6.533   0.804
 9425WAT      O29856   1.432   5.920   0.383
 9425WAT     H129857   1.404   5.883   0.467
 9425WAT     H229858   1.426   5.847   0.322
 9426WAT      O29859   1.925   6.349   1.002
 9426WAT     H129860   1.894   6.437   1.025
 9426WAT     H229861   2.020   6.355   1.006
 9427WAT      O29862   2.853   6.670   0.641
 9427WAT     H129863   2.925   6.719   0.602
 9427WAT     H229864   2.833   6.602   0.577
 9428WAT      O29865   2.392   6.677   1.230
 9428WAT     H129866   2.385   6.585   1.204
 9428WAT     H229867   2.329   6.687   1.301
 9429WAT      O29868   1.782   6.737   0.426
 9429WAT     H129869   1.834   6.657   0.420
 9429WAT     H229870   1.737   6.731   0.510
 9430WAT      O29871   1.530   6.434   1.117
 9430WAT     H129872   1.494   6.500   1.176
 9430WAT     H229873   1.501   6.350   1.154
 9431WAT      O29874   1.850   6.479   1.405
 9431WAT     H129875   1.820   6.494   1.316
 9431WAT     H229876   1.928   6.423   1.396
 9432WAT      O29877   2.385   6.959   1.205
 9432WAT     H129878   2.386   6.866   1.183
 9432WAT     H229879   2.314   6.968   1.269
 9433WAT      O29880   3.006   6.623   1.140
 9433WAT     H129881   2.933   6.682   1.120
 9433WAT     H229882   3.059   6.622   1.060
 9434WAT      O29883   2.559   6.796   0.489
 9434WAT     H129884   2.594   6.736   0.423
 9434WAT     H229885   2.470   6.763   0.507
 9435WAT      O29886   2.167   6.872   0.230
 9435WAT     H129887   2.236   6.926   0.268
 9435WAT     H229888   2.089   6.926   0.234
 9436WAT      O29889   2.098   6.572   0.191
 9436WAT     H129890   2.143   6.653   0.214
 9436WAT     H229891   2.063   6.540   0.275
 9437WAT      O29892   2.328   7.123   0.914
 9437WAT     H129893   2.392   7.144   0.982
 9437WAT     H229894   2.364   7.047   0.869
 9438WAT      O29895   1.688   5.607   0.239
 9438WAT     H129896   1.675   5.606   0.333
 9438WAT     H229897   1.605   5.640   0.204
 9439WAT      O29898   2.455   6.924   0.786
 9439WAT     H129899   2.520   6.853   0.797
 9439WAT     H229900   2.508   7.002   0.768
 9440WAT      O29901   2.633   7.003   1.106
 9440WAT     H129902   2.666   7.062   1.174
 9440WAT     H229903   2.541   6.990   1.129
 9441WAT      O29904   1.388   5.782   1.185
 9441WAT     H129905   1.316   5.802   1.245
 9441WAT     H229906   1.430   5.705   1.222
 9442WAT      O29907   1.417   7.181   1.283
 9442WAT     H129908   1.427   7.087   1.269
 9442WAT     H229909   1.351   7.208   1.218
 9443WAT      O29910   2.216   7.008   1.423
 9443WAT     H129911   2.184   6.937   1.478
 9443WAT     H229912   2.148   7.076   1.431
 9444WAT      O29913   2.537   6.032   0.960
 9444WAT     H129914   2.574   5.950   0.992
 9444WAT     H229915   2.451   6.038   1.001
 9445WAT      O29916   2.071   6.155   0.182
 9445WAT     H129917   2.000   6.202   0.226
 9445WAT     H229918   2.099   6.089   0.246
 9446WAT      O29919   2.233   6.297   0.982
 9446WAT     H129920   2.283   6.345   1.049
 9446WAT     H229921   2.247   6.205   1.003
 9447WAT      O29922   2.474   5.828   0.326
 9447WAT     H129923   2.461   5.829   0.231
 9447WAT     H229924   2.569   5.832   0.338
 9448WAT      O29925   2.183   7.351   0.253
 9448WAT     H129926   2.208   7.347   0.161
 9448WAT     H229927   2.088   7.338   0.253
 9449WAT      O29928   2.954   5.919   1.066
 9449WAT     H129929   2.904   5.993   1.100
 9449WAT     H229930   3.035   5.958   1.035
 9450WAT      O29931   2.783   6.443   0.411
 9450WAT     H129932   2.689   6.445   0.428
 9450WAT     H229933   2.815   6.364   0.456
 9451WAT      O29934   2.983   7.160   0.579
 9451WAT     H129935   2.996   7.242   0.626
 9451WAT     H229936   3.070   7.139   0.544
 9452WAT      O29937   1.731   7.369   0.546
 9452WAT     H129938   1.804   7.315   0.573
 9452WAT     H229939   1.769   7.456   0.532
 9453WAT      O29940   1.631   7.288   1.465
 9453WAT     H129941   1.711   7.320   1.506
 9453WAT     H229942   1.580   7.252   1.537
 9454WAT      O29943   2.515   6.899   1.459
 9454WAT     H129944   2.454   6.901   1.385
 9454WAT     H229945   2.484   6.826   1.513
 9455WAT      O29946   2.658   7.272   1.320
 9455WAT     H129947   2.753   7.263   1.315
 9455WAT     H229948   2.643   7.338   1.388
 9456WAT      O29949   1.403   6.537   1.359
 9456WAT     H129950   1.453   6.479   1.416
 9456WAT     H229951   1.329   6.565   1.413
 9457WAT      O29952   2.108   6.677   1.312
 9457WAT     H129953   2.032   6.734   1.304
 9457WAT     H229954   2.127   6.648   1.223
 9458WAT      O29955   2.823   6.850   1.368
 9458WAT     H129956   2.897   6.884   1.318
 9458WAT     H229957   2.746   6.867   1.313
 9459WAT      O29958   1.606   6.351   1.448
 9459WAT     H129959   1.610   6.321   1.539
 9459WAT     H229960   1.692   6.391   1.432
 9460WAT      O29961   1.800   6.209   1.245
 9460WAT     H129962   1.747   6.160   1.182
 9460WAT     H229963   1.867   6.252   1.192
 9461WAT      O29964   2.690   6.656   1.222
 9461WAT     H129965   2.732   6.671   1.306
 9461WAT     H229966   2.597   6.668   1.238
 9462WAT      O29967   2.737   6.390   1.422
 9462WAT     H129968   2.796   6.314   1.413
 9462WAT     H229969   2.755   6.443   1.344
 9463WAT      O29970   1.849   5.906   1.253
 9463WAT     H129971   1.840   5.844   1.181
 9463WAT     H229972   1.791   5.978   1.230
 9464WAT      O29973   2.126   5.761   0.956
 9464WAT     H129974   2.081   5.763   0.872
 9464WAT     H229975   2.062   5.721   1.016
 9465WAT      O29976   2.166   6.651   1.019
 9465WAT     H129977   2.208   6.735   1.001
 9465WAT     H229978   2.074   6.665   0.996
 9466WAT      O29979   2.400   6.424   1.157
 9466WAT     H129980   2.412   6.364   1.231
 9466WAT     H229981   2.486   6.428   1.115
 9467WAT      O29982   2.634   6.479   1.015
 9467WAT     H129983   2.581   6.532   0.954
 9467WAT     H229984   2.668   6.543   1.078
 9468WAT      O29985   1.951   7.281   1.130
 9468WAT     H129986   1.898   7.354   1.098
 9468WAT     H229987   1.977   7.234   1.051
 9469WAT      O29988   2.077   6.078   1.283
 9469WAT     H129989   2.136   6.047   1.351
 9469WAT     H229990   1.995   6.031   1.298
 9470WAT      O29991   2.559   6.040   1.306
 9470WAT     H129992   2.490   5.974   1.299
 9470WAT     H229993   2.631   5.995   1.350
 9471WAT      O29994   2.237   7.405   1.156
 9471WAT     H129995   2.230   7.495   1.187
 9471WAT     H229996   2.147   7.373   1.153
 9472WAT      O29997   1.377   7.138   0.486
 9472WAT     H129998   1.410   7.051   0.463
 9472WAT     H229999   1.420   7.158   0.569
 9473WAT      O30000   1.837   6.971   0.252
 9473WAT     H130001   1.807   6.958   0.342
 9473WAT     H230002   1.826   6.885   0.211
 9474WAT      O30003   1.426   7.224   0.760
 9474WAT     H130004   1.382   7.242   0.843
 9474WAT     H230005   1.483   7.300   0.746
 9475WAT      O30006   2.990   7.174   1.189
 9475WAT     H130007   2.930   7.180   1.115
 9475WAT     H230008   3.003   7.081   1.202
 9476WAT      O30009   1.409   6.475   0.396
 9476WAT     H130010   1.344   6.449   0.332
 9476WAT     H230011   1.493   6.465   0.351
 9477WAT      O30012   3.160   6.709   0.457
 9477WAT     H130013   3.197   6.630   0.417
 9477WAT     H230014   3.224   6.778   0.440
 9478WAT      O30015   2.858   6.847   0.999
 9478WAT     H130016   2.777   6.890   1.025
 9478WAT     H230017   2.899   6.908   0.937
 9479WAT      O30018   3.054   6.446   0.188
 9479WAT     H130019   3.017   6.369   0.145
 9479WAT     H230020   2.981   6.484   0.237
 9480WAT      O30021   1.513   6.514   0.850
 9480WAT     H130022   1.550   6.505   0.938
 9480WAT     H230023   1.456   6.438   0.840
 9481WAT      O30024   2.993   6.361   1.151
 9481WAT     H130025   2.970   6.338   1.061
 9481WAT     H230026   3.019   6.453   1.147
 9482WAT      O30027   1.468   6.205   1.241
 9482WAT     H130028   1.379   6.202   1.275
 9482WAT     H230029   1.522   6.225   1.317
 9483WAT      O30030   2.837   5.883   1.429
 9483WAT     H130031   2.925   5.884   1.467
 9483WAT     H230032   2.838   5.810   1.368
 9484WAT      O30033   2.982   6.269   0.518
 9484WAT     H130034   3.034   6.219   0.455
 9484WAT     H230035   3.040   6.282   0.592
 9485WAT      O30036   3.000   6.277   0.870
 9485WAT     H130037   2.905   6.274   0.882
 9485WAT     H230038   3.018   6.368   0.847
 9486WAT      O30039   1.519   5.633   0.675
 9486WAT     H130040   1.584   5.578   0.631
 9486WAT     H230041   1.561   5.658   0.758
 9487WAT      O30042   3.074   6.058   0.365
 9487WAT     H130043   3.063   6.043   0.459
 9487WAT     H230044   3.150   6.005   0.341
 9488WAT      O30045   2.908   5.652   1.011
 9488WAT     H130046   2.972   5.713   1.048
 9488WAT     H230047   2.923   5.656   0.917
 9489WAT      O30048   2.864   7.322   0.351
 9489WAT     H130049   2.924   7.290   0.284
 9489WAT     H230050   2.890   7.275   0.430
 9490WAT      O30051   1.494   5.648   0.950
 9490WAT     H130052   1.459   5.694   1.026
 9490WAT     H230053   1.461   5.559   0.958
 9491WAT      O30054   1.655   6.965   1.366
 9491WAT     H130055   1.650   6.928   1.454
 9491WAT     H230056   1.668   7.059   1.380
 9492WAT      O30057   2.025   7.121   0.926
 9492WAT     H130058   2.001   7.148   0.838
 9492WAT     H230059   2.119   7.138   0.932
 9493WAT      O30060   2.245   5.767   1.302
 9493WAT     H130061   2.239   5.826   1.377
 9493WAT     H230062   2.339   5.757   1.287
 9494WAT      O30063   2.509   5.733   1.266
 9494WAT     H130064   2.570   5.765   1.200
 9494WAT     H230065   2.564   5.684   1.328
 9495WAT      O30066   3.151   7.323   1.006
 9495WAT     H130067   3.101   7.363   0.935
 9495WAT     H230068   3.090   7.260   1.046
 9496WAT      O30069   1.561   5.601   1.277
 9496WAT     H130070   1.616   5.583   1.201
 9496WAT     H230071   1.568   5.522   1.331
 9497WAT      O30072   1.639   7.260   1.078
 9497WAT     H130073   1.579   7.247   1.152
 9497WAT     H230074   1.638   7.176   1.032
 9498WAT      O30075   2.583   5.589   0.899
 9498WAT     H130076   2.496   5.623   0.878
 9498WAT     H230077   2.572   5.542   0.981
 9499WAT      O30078   2.674   5.810   1.037
 9499WAT     H130079   2.641   5.729   0.999
 9499WAT     H230080   2.769   5.806   1.025
 9500WAT      O30081   2.919   7.387   0.734
 9500WAT     H130082   2.873   7.462   0.697
 9500WAT     H230083   2.856   7.315   0.728
 9501WAT      O30084   1.602   6.997   0.973
 9501WAT     H130085   1.529   6.935   0.967
 9501WAT     H230086   1.608   7.036   0.886
 9502WAT      O30087   1.962   7.218   0.652
 9502WAT     H130088   2.014   7.157   0.599
 9502WAT     H230089   2.027   7.268   0.701
 9503WAT      O30090   2.236   7.307   0.734
 9503WAT     H130091   2.265   7.282   0.647
 9503WAT     H230092   2.287   7.252   0.794
 9504WAT      O30093   2.358   5.681   0.792
 9504WAT     H130094   2.280   5.728   0.820
 9504WAT     H230095   2.329   5.591   0.782
 9505WAT      O30096   2.813   5.751   0.597
 9505WAT     H130097   2.857   5.746   0.512
 9505WAT     H230098   2.786   5.843   0.604
 9506WAT      O30099   2.999   5.714   0.398
 9506WAT     H130100   2.993   5.620   0.383
 9506WAT     H230101   3.077   5.725   0.453
 9507WAT      O30102   1.430   7.328   0.294
 9507WAT     H130103   1.413   7.265   0.364
 9507WAT     H230104   1.343   7.349   0.259
 9508WAT      O30105   2.146   5.923   0.344
 9508WAT     H130106   2.065   5.885   0.310
 9508WAT     H230107   2.197   5.847   0.374
 9509WAT      O30108   2.597   5.589   0.467
 9509WAT     H130109   2.657   5.646   0.515
 9509WAT     H230110   2.523   5.646   0.445
 9510WAT      O30111   1.949   5.738   0.204
 9510WAT     H130112   1.886   5.668   0.221
 9510WAT     H230113   1.895   5.814   0.182
 9511WAT      O30114   1.961   5.666   1.448
 9511WAT     H130115   1.933   5.716   1.371
 9511WAT     H230116   2.000   5.586   1.411
 9512WAT      O30117   2.622   5.607   1.505
 9512WAT     H130118   2.610   5.639   1.595
 9512WAT     H230119   2.703   5.647   1.476
 9513WAT      O30120   2.900   7.322   1.454
 9513WAT     H130121   2.979   7.272   1.433
 9513WAT     H230122   2.929   7.390   1.514
 9514WAT      O30123   2.512   4.532   6.051
 9514WAT     H130124   2.504   4.440   6.024
 9514WAT     H230125   2.471   4.581   5.981
 9515WAT      O30126   2.325   4.710   6.240
 9515WAT     H130127   2.248   4.662   6.269
 9515WAT     H230128   2.391   4.642   6.222
 9516WAT      O30129   1.727   4.741   6.327
 9516WAT     H130130   1.644   4.715   6.367
 9516WAT     H230131   1.788   4.748   6.401
 9517WAT      O30132   2.727   5.150   6.118
 9517WAT     H130133   2.681   5.073   6.150
 9517WAT     H230134   2.809   5.153   6.168
 9518WAT      O30135   1.725   5.144   6.347
 9518WAT     H130136   1.755   5.055   6.329
 9518WAT     H230137   1.799   5.200   6.324
 9519WAT      O30138   1.568   4.237   5.706
 9519WAT     H130139   1.479   4.271   5.696
 9519WAT     H230140   1.596   4.217   5.617
 9520WAT      O30141   1.364   4.497   6.294
 9520WAT     H130142   1.421   4.420   6.294
 9520WAT     H230143   1.364   4.527   6.203
 9521WAT      O30144   2.350   5.379   6.080
 9521WAT     H130145   2.288   5.424   6.023
 9521WAT     H230146   2.436   5.394   6.039
 9522WAT      O30147   2.269   4.977   6.240
 9522WAT     H130148   2.263   4.883   6.224
 9522WAT     H230149   2.346   4.986   6.297
 9523WAT      O30150   1.489   4.038   6.473
 9523WAT     H130151   1.471   3.948   6.501
 9523WAT     H230152   1.448   4.092   6.540
 9524WAT      O30153   2.373   4.258   6.263
 9524WAT     H130154   2.410   4.171   6.252
 9524WAT     H230155   2.363   4.291   6.174
 9525WAT      O30156   1.786   4.095   5.809
 9525WAT     H130157   1.796   4.185   5.840
 9525WAT     H230158   1.695   4.090   5.780
 9526WAT      O30159   2.751   4.007   5.956
 9526WAT     H130160   2.833   3.958   5.960
 9526WAT     H230161   2.754   4.066   6.032
 9527WAT      O30162   1.550   4.287   6.334
 9527WAT     H130163   1.619   4.314   6.396
 9527WAT     H230164   1.519   4.203   6.367
 9528WAT      O30165   1.970   4.392   6.242
 9528WAT     H130166   2.020   4.442   6.306
 9528WAT     H230167   2.023   4.314   6.225
 9529WAT      O30168   2.437   4.867   5.819
 9529WAT     H130169   2.375   4.914   5.763
 9529WAT     H230170   2.488   4.936   5.861
 9530WAT      O30171   1.923   4.820   6.487
 9530WAT     H130172   1.890   4.883   6.551
 9530WAT     H230173   1.941   4.872   6.409
 9531WAT      O30174   2.774   4.201   6.234
 9531WAT     H130175   2.704   4.230   6.292
 9531WAT     H230176   2.811   4.282   6.198
 9532WAT      O30177   1.766   4.027   6.470
 9532WAT     H130178   1.800   4.111   6.440
 9532WAT     H230179   1.672   4.042   6.481
 9533WAT      O30180   1.374   4.936   5.556
 9533WAT     H130181   1.336   4.985   5.483
 9533WAT     H230182   1.399   5.003   5.619
 9534WAT      O30183   2.936   5.163   6.460
 9534WAT     H130184   2.868   5.230   6.459
 9534WAT     H230185   2.990   5.183   6.383
 9535WAT      O30186   3.081   4.146   6.273
 9535WAT     H130187   2.987   4.149   6.286
 9535WAT     H230188   3.114   4.227   6.311
 9536WAT      O30189   2.134   3.776   6.102
 9536WAT     H130190   2.165   3.720   6.031
 9536WAT     H230191   2.041   3.789   6.084
 9537WAT      O30192   2.690   5.347   6.331
 9537WAT     H130193   2.691   5.307   6.244
 9537WAT     H230194   2.634   5.425   6.321
 9538WAT      O30195   2.819   5.020   5.840
 9538WAT     H130196   2.808   4.925   5.853
 9538WAT     H230197   2.819   5.056   5.929
 9539WAT      O30198   2.629   4.838   6.464
 9539WAT     H130199   2.671   4.816   6.381
 9539WAT     H230200   2.702   4.864   6.521
 9540WAT      O30201   2.373   4.582   5.776
 9540WAT     H130202   2.281   4.576   5.799
 9540WAT     H230203   2.389   4.676   5.764
 9541WAT      O30204   2.372   4.209   5.475
 9541WAT     H130205   2.278   4.226   5.484
 9541WAT     H230206   2.404   4.281   5.421
 9542WAT      O30207   3.024   4.678   6.473
 9542WAT     H130208   2.941   4.685   6.426
 9542WAT     H230209   3.084   4.736   6.426
 9543WAT      O30210   2.776   4.739   5.826
 9543WAT     H130211   2.714   4.705   5.761
 9543WAT     H230212   2.774   4.674   5.897
 9544WAT      O30213   2.720   4.356   6.568
 9544WAT     H130214   2.679   4.439   6.593
 9544WAT     H230215   2.647   4.298   6.549
 9545WAT      O30216   1.934   4.635   6.054
 9545WAT     H130217   1.893   4.564   6.004
 9545WAT     H230218   1.942   4.600   6.143
 9546WAT      O30219   1.981   5.004   6.270
 9546WAT     H130220   1.951   4.943   6.202
 9546WAT     H230221   2.076   5.007   6.259
 9547WAT      O30222   1.805   4.312   6.432
 9547WAT     H130223   1.860   4.323   6.354
 9547WAT     H230224   1.857   4.350   6.504
 9548WAT      O30225   2.789   5.361   6.637
 9548WAT     H130226   2.742   5.442   6.617
 9548WAT     H230227   2.721   5.296   6.652
 9549WAT      O30228   2.594   4.662   5.527
 9549WAT     H130229   2.638   4.579   5.512
 9549WAT     H230230   2.665   4.726   5.535
 9550WAT      O30231   2.405   5.156   5.924
 9550WAT     H130232   2.449   5.231   5.882
 9550WAT     H230233   2.399   5.181   6.016
 9551WAT      O30234   2.952   3.788   5.358
 9551WAT     H130235   2.921   3.797   5.448
 9551WAT     H230236   3.028   3.846   5.353
 9552WAT      O30237   1.604   4.524   5.804
 9552WAT     H130238   1.592   4.597   5.743
 9552WAT     H230239   1.573   4.447   5.756
 9553WAT      O30240   1.368   4.842   6.385
 9553WAT     H130241   1.376   4.855   6.290
 9553WAT     H230242   1.429   4.771   6.404
 9554WAT      O30243   1.492   5.012   6.026
 9554WAT     H130244   1.451   5.026   5.940
 9554WAT     H230245   1.581   4.983   6.005
 9555WAT      O30246   2.672   5.455   5.659
 9555WAT     H130247   2.656   5.426   5.749
 9555WAT     H230248   2.655   5.377   5.606
 9556WAT      O30249   1.919   5.433   5.837
 9556WAT     H130250   1.902   5.341   5.816
 9556WAT     H230251   1.834   5.469   5.861
 9557WAT      O30252   2.642   5.206   5.515
 9557WAT     H130253   2.572   5.206   5.449
 9557WAT     H230254   2.716   5.163   5.472
 9558WAT      O30255   2.598   5.369   5.923
 9558WAT     H130256   2.644   5.290   5.954
 9558WAT     H230257   2.632   5.440   5.977
 9559WAT      O30258   1.851   3.859   6.142
 9559WAT     H130259   1.806   3.937   6.109
 9559WAT     H230260   1.906   3.891   6.213
 9560WAT      O30261   2.162   3.821   5.630
 9560WAT     H130262   2.100   3.820   5.703
 9560WAT     H230263   2.153   3.734   5.591
 9561WAT      O30264   2.054   3.913   6.328
 9561WAT     H130265   2.084   4.004   6.320
 9561WAT     H230266   2.109   3.864   6.267
 9562WAT      O30267   1.830   4.371   5.915
 9562WAT     H130268   1.807   4.349   6.006
 9562WAT     H230269   1.752   4.414   5.881
 9563WAT      O30270   2.553   4.372   5.775
 9563WAT     H130271   2.493   4.444   5.757
 9563WAT     H230272   2.607   4.365   5.697
 9564WAT      O30273   2.413   4.235   5.978
 9564WAT     H130274   2.453   4.267   5.897
 9564WAT     H230275   2.449   4.147   5.989
 9565WAT      O30276   1.317   3.894   6.200
 9565WAT     H130277   1.288   3.951   6.272
 9565WAT     H230278   1.391   3.846   6.237
 9566WAT      O30279   1.336   4.289   5.321
 9566WAT     H130280   1.327   4.383   5.336
 9566WAT     H230281   1.300   4.274   5.233
 9567WAT      O30282   2.472   4.494   6.388
 9567WAT     H130283   2.399   4.545   6.422
 9567WAT     H230284   2.432   4.413   6.357
 9568WAT      O30285   2.116   4.162   6.228
 9568WAT     H130286   2.116   4.118   6.143
 9568WAT     H230287   2.205   4.194   6.239
 9569WAT      O30288   1.701   4.150   6.124
 9569WAT     H130289   1.667   4.198   6.200
 9569WAT     H230290   1.624   4.105   6.088
 9570WAT      O30291   2.122   4.262   5.527
 9570WAT     H130292   2.134   4.258   5.622
 9570WAT     H230293   2.083   4.348   5.512
 9571WAT      O30294   2.518   4.040   6.329
 9571WAT     H130295   2.520   4.085   6.413
 9571WAT     H230296   2.493   3.950   6.350
 9572WAT      O30297   2.023   4.493   5.467
 9572WAT     H130298   1.966   4.448   5.404
 9572WAT     H230299   2.094   4.529   5.414
 9573WAT      O30300   2.146   4.568   6.403
 9573WAT     H130301   2.182   4.521   6.477
 9573WAT     H230302   2.127   4.655   6.437
 9574WAT      O30303   1.432   4.042   6.016
 9574WAT     H130304   1.404   4.006   6.099
 9574WAT     H230305   1.426   3.969   5.954
 9575WAT      O30306   1.777   4.893   5.694
 9575WAT     H130307   1.700   4.839   5.678
 9575WAT     H230308   1.850   4.841   5.660
 9576WAT      O30309   2.853   4.792   6.273
 9576WAT     H130310   2.925   4.842   6.234
 9576WAT     H230311   2.833   4.724   6.209
 9577WAT      O30312   2.399   3.932   5.688
 9577WAT     H130313   2.318   3.882   5.680
 9577WAT     H230314   2.380   4.016   5.646
 9578WAT      O30315   2.671   4.369   5.517
 9578WAT     H130316   2.760   4.400   5.500
 9578WAT     H230317   2.668   4.282   5.478
 9579WAT      O30318   1.782   4.859   6.058
 9579WAT     H130319   1.834   4.779   6.053
 9579WAT     H230320   1.737   4.853   6.142
 9580WAT      O30321   2.271   4.986   5.585
 9580WAT     H130322   2.305   5.061   5.536
 9580WAT     H230323   2.188   5.017   5.622
 9581WAT      O30324   2.898   4.500   5.464
 9581WAT     H130325   2.890   4.543   5.379
 9581WAT     H230326   2.970   4.546   5.507
 9582WAT      O30327   3.001   5.185   5.737
 9582WAT     H130328   2.937   5.120   5.764
 9582WAT     H230329   2.962   5.226   5.659
 9583WAT      O30330   2.559   4.918   6.122
 9583WAT     H130331   2.594   4.859   6.056
 9583WAT     H230332   2.470   4.886   6.139
 9584WAT      O30333   2.167   4.994   5.862
 9584WAT     H130334   2.236   5.049   5.901
 9584WAT     H230335   2.089   5.049   5.866
 9585WAT      O30336   1.381   4.556   5.412
 9585WAT     H130337   1.468   4.584   5.440
 9585WAT     H230338   1.332   4.637   5.400
 9586WAT      O30339   2.098   4.695   5.824
 9586WAT     H130340   2.143   4.776   5.846
 9586WAT     H230341   2.063   4.663   5.907
 9587WAT      O30342   2.328   5.246   6.547
 9587WAT     H130343   2.392   5.266   6.614
 9587WAT     H230344   2.364   5.170   6.501
 9588WAT      O30345   1.688   3.729   5.871
 9588WAT     H130346   1.675   3.728   5.966
 9588WAT     H230347   1.605   3.763   5.836
 9589WAT      O30348   2.455   5.046   6.418
 9589WAT     H130349   2.520   4.976   6.430
 9589WAT     H230350   2.508   5.124   6.400
 9590WAT      O30351   2.840   5.075   5.391
 9590WAT     H130352   2.817   5.003   5.450
 9590WAT     H230353   2.801   5.050   5.307
 9591WAT      O30354   1.418   5.477   5.468
 9591WAT     H130355   1.454   5.537   5.403
 9591WAT     H230356   1.404   5.532   5.546
 9592WAT      O30357   2.798   4.866   5.557
 9592WAT     H130358   2.769   4.912   5.636
 9592WAT     H230359   2.878   4.820   5.584
 9593WAT      O30360   2.020   5.216   5.550
 9593WAT     H130361   2.019   5.289   5.488
 9593WAT     H230362   1.928   5.191   5.559
 9594WAT      O30363   1.580   4.738   5.624
 9594WAT     H130364   1.519   4.812   5.625
 9594WAT     H230365   1.627   4.747   5.542
 9595WAT      O30366   2.537   4.154   6.592
 9595WAT     H130367   2.574   4.072   6.625
 9595WAT     H230368   2.451   4.160   6.634
 9596WAT      O30369   2.874   4.050   5.673
 9596WAT     H130370   2.811   4.060   5.601
 9596WAT     H230371   2.824   4.072   5.752
 9597WAT      O30372   2.318   5.222   5.416
 9597WAT     H130373   2.329   5.202   5.323
 9597WAT     H230374   2.228   5.196   5.437
 9598WAT      O30375   2.071   4.278   5.814
 9598WAT     H130376   2.000   4.325   5.859
 9598WAT     H230377   2.099   4.212   5.878
 9599WAT      O30378   2.474   3.950   5.958
 9599WAT     H130379   2.461   3.952   5.864
 9599WAT     H230380   2.569   3.955   5.970
 9600WAT      O30381   2.183   5.474   5.886
 9600WAT     H130382   2.208   5.470   5.793
 9600WAT     H230383   2.088   5.461   5.885
 9601WAT      O30384   1.891   4.109   5.552
 9601WAT     H130385   1.976   4.152   5.545
 9601WAT     H230386   1.854   4.140   5.635
 9602WAT      O30387   2.783   4.566   6.043
 9602WAT     H130388   2.689   4.567   6.061
 9602WAT     H230389   2.815   4.487   6.088
 9603WAT      O30390   1.781   4.734   5.399
 9603WAT     H130391   1.858   4.723   5.456
 9603WAT     H230392   1.789   4.664   5.334
 9604WAT      O30393   1.650   4.477   5.468
 9604WAT     H130394   1.658   4.382   5.479
 9604WAT     H230395   1.740   4.510   5.478
 9605WAT      O30396   2.983   5.283   6.211
 9605WAT     H130397   2.996   5.365   6.258
 9605WAT     H230398   3.070   5.262   6.176
 9606WAT      O30399   1.731   5.492   6.178
 9606WAT     H130400   1.804   5.437   6.205
 9606WAT     H230401   1.769   5.579   6.164
 9607WAT      O30402   1.419   5.099   5.765
 9607WAT     H130403   1.326   5.123   5.764
 9607WAT     H230404   1.466   5.182   5.753
 9608WAT      O30405   2.042   5.409   5.360
 9608WAT     H130406   2.121   5.438   5.315
 9608WAT     H230407   1.990   5.366   5.292
 9609WAT      O30408   2.947   5.332   5.503
 9609WAT     H130409   2.918   5.291   5.421
 9609WAT     H230410   2.927   5.425   5.491
 9610WAT      O30411   2.093   4.931   5.347
 9610WAT     H130412   2.083   4.870   5.419
 9610WAT     H230413   2.077   4.879   5.268
 9611WAT      O30414   2.417   4.838   5.407
 9611WAT     H130415   2.362   4.882   5.472
 9611WAT     H230416   2.480   4.787   5.459
 9612WAT      O30417   1.984   4.733   5.597
 9612WAT     H130418   2.026   4.717   5.681
 9612WAT     H230419   1.997   4.652   5.547
 9613WAT      O30420   2.235   4.636   5.322
 9613WAT     H130421   2.287   4.564   5.285
 9613WAT     H230422   2.300   4.700   5.352
 9614WAT      O30423   2.126   3.884   6.589
 9614WAT     H130424   2.081   3.886   6.504
 9614WAT     H230425   2.062   3.844   6.648
 9615WAT      O30426   2.166   4.773   6.651
 9615WAT     H130427   2.208   4.858   6.634
 9615WAT     H230428   2.074   4.787   6.628
 9616WAT      O30429   1.874   4.341   5.291
 9616WAT     H130430   1.854   4.255   5.327
 9616WAT     H230431   1.857   4.332   5.198
 9617WAT      O30432   2.622   3.822   5.544
 9617WAT     H130433   2.650   3.738   5.580
 9617WAT     H230434   2.544   3.845   5.596
 9618WAT      O30435   1.754   4.051   5.290
 9618WAT     H130436   1.784   4.052   5.199
 9618WAT     H230437   1.827   4.016   5.340
 9619WAT      O30438   2.075   3.945   5.389
 9619WAT     H130439   2.041   3.877   5.331
 9619WAT     H230440   2.095   3.899   5.470
 9620WAT      O30441   2.292   5.444   5.551
 9620WAT     H130442   2.381   5.478   5.553
 9620WAT     H230443   2.295   5.372   5.488
 9621WAT      O30444   1.656   4.981   5.373
 9621WAT     H130445   1.700   5.036   5.439
 9621WAT     H230446   1.704   4.899   5.374
 9622WAT      O30447   1.377   5.260   6.119
 9622WAT     H130448   1.410   5.173   6.095
 9622WAT     H230449   1.420   5.281   6.202
 9623WAT      O30450   1.837   5.093   5.885
 9623WAT     H130451   1.807   5.081   5.975
 9623WAT     H230452   1.826   5.007   5.844
 9624WAT      O30453   1.426   5.347   6.392
 9624WAT     H130454   1.382   5.365   6.476
 9624WAT     H230455   1.483   5.423   6.378
 9625WAT      O30456   3.114   5.071   5.355
 9625WAT     H130457   3.031   5.078   5.402
 9625WAT     H230458   3.132   5.160   5.325
 9626WAT      O30459   3.059   4.746   5.605
 9626WAT     H130460   3.136   4.803   5.616
 9626WAT     H230461   3.061   4.689   5.682
 9627WAT      O30462   1.409   4.598   6.028
 9627WAT     H130463   1.344   4.571   5.964
 9627WAT     H230464   1.493   4.587   5.983
 9628WAT      O30465   3.160   4.831   6.090
 9628WAT     H130466   3.197   4.753   6.049
 9628WAT     H230467   3.224   4.900   6.072
 9629WAT      O30468   3.065   4.775   5.321
 9629WAT     H130469   3.092   4.866   5.308
 9629WAT     H230470   3.046   4.769   5.415
 9630WAT      O30471   2.704   4.077   5.450
 9630WAT     H130472   2.746   4.059   5.366
 9630WAT     H230473   2.674   3.992   5.482
 9631WAT      O30474   3.054   4.569   5.820
 9631WAT     H130475   3.017   4.492   5.777
 9631WAT     H230476   2.981   4.607   5.869
 9632WAT      O30477   1.513   4.637   6.482
 9632WAT     H130478   1.550   4.628   6.570
 9632WAT     H230479   1.456   4.560   6.472
 9633WAT      O30480   1.331   4.319   5.623
 9633WAT     H130481   1.240   4.345   5.605
 9633WAT     H230482   1.379   4.346   5.545
 9634WAT      O30483   2.982   4.391   6.150
 9634WAT     H130484   3.034   4.342   6.087
 9634WAT     H230485   3.040   4.405   6.225
 9635WAT      O30486   3.000   4.400   6.503
 9635WAT     H130487   2.905   4.396   6.514
 9635WAT     H230488   3.018   4.491   6.479
 9636WAT      O30489   1.585   4.225   5.414
 9636WAT     H130490   1.656   4.183   5.365
 9636WAT     H230491   1.513   4.231   5.350
 9637WAT      O30492   1.550   3.830   5.318
 9637WAT     H130493   1.622   3.884   5.349
 9637WAT     H230494   1.577   3.803   5.230
 9638WAT      O30495   2.931   4.317   5.744
 9638WAT     H130496   2.980   4.294   5.823
 9638WAT     H230497   2.911   4.233   5.703
 9639WAT      O30498   1.519   3.755   6.308
 9639WAT     H130499   1.584   3.700   6.264
 9639WAT     H230500   1.561   3.781   6.390
 9640WAT      O30501   3.074   4.181   5.998
 9640WAT     H130502   3.063   4.165   6.091
 9640WAT     H230503   3.150   4.128   5.973
 9641WAT      O30504   3.163   3.964   5.322
 9641WAT     H130505   3.255   3.951   5.301
 9641WAT     H230506   3.160   3.972   5.417
 9642WAT      O30507   3.170   4.041   5.584
 9642WAT     H130508   3.090   4.034   5.637
 9642WAT     H230509   3.190   4.134   5.583
 9643WAT      O30510   2.864   5.445   5.984
 9643WAT     H130511   2.924   5.413   5.916
 9643WAT     H230512   2.890   5.397   6.063
 9644WAT      O30513   2.025   5.244   6.559
 9644WAT     H130514   2.001   5.270   6.470
 9644WAT     H230515   2.119   5.261   6.564
 9645WAT      O30516   2.583   3.712   6.531
 9645WAT     H130517   2.496   3.745   6.511
 9645WAT     H230518   2.572   3.665   6.613
 9646WAT      O30519   2.919   5.510   6.367
 9646WAT     H130520   2.873   5.585   6.329
 9646WAT     H230521   2.856   5.438   6.361
 9647WAT      O30522   1.602   5.119   6.606
 9647WAT     H130523   1.529   5.057   6.599
 9647WAT     H230524   1.608   5.159   6.519
 9648WAT      O30525   1.962   5.341   6.284
 9648WAT     H130526   2.014   5.279   6.232
 9648WAT     H230527   2.027   5.391   6.333
 9649WAT      O30528   2.236   5.430   6.367
 9649WAT     H130529   2.265   5.404   6.279
 9649WAT     H230530   2.287   5.374   6.426
 9650WAT      O30531   2.358   3.804   6.425
 9650WAT     H130532   2.280   3.851   6.453
 9650WAT     H230533   2.329   3.713   6.414
 9651WAT      O30534   2.813   3.874   6.229
 9651WAT     H130535   2.857   3.868   6.144
 9651WAT     H230536   2.786   3.965   6.236
 9652WAT      O30537   2.999   3.837   6.030
 9652WAT     H130538   2.993   3.743   6.016
 9652WAT     H230539   3.077   3.848   6.085
 9653WAT      O30540   1.430   5.451   5.927
 9653WAT     H130541   1.413   5.388   5.996
 9653WAT     H230542   1.343   5.471   5.892
 9654WAT      O30543   1.492   3.834   5.677
 9654WAT     H130544   1.568   3.845   5.620
 9654WAT     H230545   1.446   3.918   5.672
 9655WAT      O30546   2.146   4.045   5.976
 9655WAT     H130547   2.065   4.008   5.942
 9655WAT     H230548   2.197   3.970   6.006
 9656WAT      O30549   2.597   3.712   6.100
 9656WAT     H130550   2.657   3.769   6.147
 9656WAT     H230551   2.523   3.768   6.077
 9657WAT      O30552   2.911   3.752   5.627
 9657WAT     H130553   2.931   3.842   5.654
 9657WAT     H230554   2.832   3.729   5.676
 9658WAT      O30555   1.591   5.320   5.671
 9658WAT     H130556   1.538   5.358   5.601
 9658WAT     H230557   1.583   5.383   5.743
 9659WAT      O30558   1.730   3.887   5.531
 9659WAT     H130559   1.782   3.808   5.518
 9659WAT     H230560   1.793   3.955   5.554
 9660WAT      O30561   1.949   3.860   5.836
 9660WAT     H130562   1.886   3.790   5.853
 9660WAT     H230563   1.895   3.936   5.815
 9661WAT      O30564   3.066   5.476   5.803
 9661WAT     H130565   3.084   5.407   5.739
 9661WAT     H230566   2.997   5.529   5.764
 9662WAT      O30567   1.851   5.515   5.559
 9662WAT     H130568   1.924   5.487   5.504
 9662WAT     H230569   1.876   5.491   5.648
 9663WAT      O30570   1.767   5.127   5.559
 9663WAT     H130571   1.704   5.174   5.614
 9663WAT     H230572   1.778   5.042   5.602
 9664WAT      O30573   1.727   4.741   4.450
 9664WAT     H130574   1.644   4.715   4.490
 9664WAT     H230575   1.788   4.748   4.523
 9665WAT      O30576   1.725   5.144   4.469
 9665WAT     H130577   1.755   5.055   4.452
 9665WAT     H230578   1.799   5.200   4.447
 9666WAT      O30579   1.568   4.237   3.828
 9666WAT     H130580   1.479   4.271   3.818
 9666WAT     H230581   1.596   4.217   3.739
 9667WAT      O30582   1.364   4.497   4.417
 9667WAT     H130583   1.421   4.420   4.417
 9667WAT     H230584   1.364   4.527   4.326
 9668WAT      O30585   2.350   5.379   4.202
 9668WAT     H130586   2.288   5.424   4.145
 9668WAT     H230587   2.436   5.394   4.162
 9669WAT      O30588   2.269   4.977   4.363
 9669WAT     H130589   2.263   4.883   4.347
 9669WAT     H230590   2.346   4.986   4.420
 9670WAT      O30591   1.489   4.038   4.595
 9670WAT     H130592   1.471   3.948   4.623
 9670WAT     H230593   1.448   4.092   4.663
 9671WAT      O30594   2.373   4.258   4.386
 9671WAT     H130595   2.410   4.171   4.374
 9671WAT     H230596   2.363   4.291   4.296
 9672WAT      O30597   1.786   4.095   3.932
 9672WAT     H130598   1.796   4.185   3.962
 9672WAT     H230599   1.695   4.090   3.903
 9673WAT      O30600   1.550   4.287   4.456
 9673WAT     H130601   1.619   4.314   4.518
 9673WAT     H230602   1.519   4.203   4.490
 9674WAT      O30603   1.798   3.856   4.792
 9674WAT     H130604   1.798   3.908   4.711
 9674WAT     H230605   1.715   3.808   4.789
 9675WAT      O30606   1.923   4.820   4.609
 9675WAT     H130607   1.890   4.883   4.674
 9675WAT     H230608   1.941   4.872   4.531
 9676WAT      O30609   1.766   4.027   4.592
 9676WAT     H130610   1.800   4.111   4.563
 9676WAT     H230611   1.672   4.042   4.604
 9677WAT      O30612   1.844   5.017   4.791
 9677WAT     H130613   1.906   5.084   4.763
 9677WAT     H230614   1.758   5.058   4.782
 9678WAT      O30615   1.374   4.936   3.679
 9678WAT     H130616   1.336   4.985   3.606
 9678WAT     H230617   1.399   5.003   3.742
 9679WAT      O30618   2.936   5.163   4.582
 9679WAT     H130619   2.868   5.230   4.582
 9679WAT     H230620   2.990   5.183   4.506
 9680WAT      O30621   2.134   3.776   4.225
 9680WAT     H130622   2.165   3.720   4.153
 9680WAT     H230623   2.041   3.789   4.206
 9681WAT      O30624   2.690   5.347   4.454
 9681WAT     H130625   2.691   5.307   4.367
 9681WAT     H230626   2.634   5.425   4.443
 9682WAT      O30627   2.372   4.209   3.598
 9682WAT     H130628   2.278   4.226   3.607
 9682WAT     H230629   2.404   4.281   3.543
 9683WAT      O30630   1.981   5.004   4.393
 9683WAT     H130631   1.951   4.943   4.325
 9683WAT     H230632   2.076   5.007   4.382
 9684WAT      O30633   1.805   4.312   4.555
 9684WAT     H130634   1.860   4.323   4.477
 9684WAT     H230635   1.857   4.350   4.626
 9685WAT      O30636   2.789   5.361   4.759
 9685WAT     H130637   2.742   5.442   4.740
 9685WAT     H230638   2.721   5.296   4.774
 9686WAT      O30639   1.890   4.977   5.058
 9686WAT     H130640   1.800   5.000   5.083
 9686WAT     H230641   1.892   4.990   4.963
 9687WAT      O30642   1.773   4.665   4.916
 9687WAT     H130643   1.759   4.752   4.952
 9687WAT     H230644   1.684   4.630   4.901
 9688WAT      O30645   1.952   5.259   5.136
 9688WAT     H130646   1.949   5.299   5.050
 9688WAT     H230647   1.936   5.166   5.120
 9689WAT      O30648   2.952   3.788   3.481
 9689WAT     H130649   2.921   3.797   3.571
 9689WAT     H230650   3.028   3.846   3.476
 9690WAT      O30651   1.604   4.524   3.927
 9690WAT     H130652   1.592   4.597   3.865
 9690WAT     H230653   1.573   4.447   3.879
 9691WAT      O30654   3.147   5.337   5.266
 9691WAT     H130655   3.195   5.385   5.334
 9691WAT     H230656   3.210   5.330   5.194
 9692WAT      O30657   1.368   4.842   4.507
 9692WAT     H130658   1.376   4.855   4.413
 9692WAT     H230659   1.429   4.771   4.527
 9693WAT      O30660   1.492   5.012   4.148
 9693WAT     H130661   1.451   5.026   4.063
 9693WAT     H230662   1.581   4.983   4.128
 9694WAT      O30663   3.088   5.056   4.982
 9694WAT     H130664   3.100   5.032   4.890
 9694WAT     H230665   3.092   4.973   5.029
 9695WAT      O30666   2.474   5.426   4.839
 9695WAT     H130667   2.525   5.418   4.919
 9695WAT     H230668   2.390   5.461   4.868
 9696WAT      O30669   1.919   5.433   3.960
 9696WAT     H130670   1.902   5.341   3.938
 9696WAT     H230671   1.834   5.469   3.984
 9697WAT      O30672   2.598   5.369   4.045
 9697WAT     H130673   2.644   5.290   4.077
 9697WAT     H230674   2.632   5.440   4.100
 9698WAT      O30675   1.373   4.946   4.761
 9698WAT     H130676   1.390   4.899   4.679
 9698WAT     H230677   1.420   4.895   4.828
 9699WAT      O30678   1.851   3.859   4.265
 9699WAT     H130679   1.806   3.937   4.232
 9699WAT     H230680   1.906   3.891   4.336
 9700WAT      O30681   2.279   4.145   4.825
 9700WAT     H130682   2.233   4.166   4.906
 9700WAT     H230683   2.239   4.064   4.795
 9701WAT      O30684   2.489   4.418   5.148
 9701WAT     H130685   2.521   4.334   5.114
 9701WAT     H230686   2.568   4.470   5.163
 9702WAT      O30687   2.162   3.821   3.753
 9702WAT     H130688   2.100   3.820   3.825
 9702WAT     H230689   2.153   3.734   3.713
 9703WAT      O30690   2.054   3.913   4.451
 9703WAT     H130691   2.084   4.004   4.443
 9703WAT     H230692   2.109   3.864   4.389
 9704WAT      O30693   2.074   4.461   5.104
 9704WAT     H130694   2.064   4.367   5.089
 9704WAT     H230695   2.158   4.483   5.065
 9705WAT      O30696   1.587   4.102   4.920
 9705WAT     H130697   1.547   4.187   4.940
 9705WAT     H230698   1.518   4.038   4.939
 9706WAT      O30699   2.244   4.110   5.227
 9706WAT     H130700   2.175   4.091   5.290
 9706WAT     H230701   2.319   4.139   5.280
 9707WAT      O30702   1.317   3.894   4.323
 9707WAT     H130703   1.288   3.951   4.394
 9707WAT     H230704   1.391   3.846   4.359
 9708WAT      O30705   1.336   4.289   3.444
 9708WAT     H130706   1.327   4.383   3.458
 9708WAT     H230707   1.300   4.274   3.356
 9709WAT      O30708   2.116   4.162   4.351
 9709WAT     H130709   2.116   4.118   4.266
 9709WAT     H230710   2.205   4.194   4.361
 9710WAT      O30711   1.701   4.150   4.247
 9710WAT     H130712   1.667   4.198   4.322
 9710WAT     H230713   1.624   4.105   4.211
 9711WAT      O30714   2.122   4.262   3.650
 9711WAT     H130715   2.134   4.258   3.745
 9711WAT     H230716   2.083   4.348   3.634
 9712WAT      O30717   2.518   4.040   4.451
 9712WAT     H130718   2.520   4.085   4.536
 9712WAT     H230719   2.493   3.950   4.473
 9713WAT      O30720   2.861   3.781   5.035
 9713WAT     H130721   2.893   3.708   5.088
 9713WAT     H230722   2.864   3.749   4.945
 9714WAT      O30723   1.531   4.883   4.977
 9714WAT     H130724   1.492   4.819   5.037
 9714WAT     H230725   1.562   4.954   5.034
 9715WAT      O30726   2.146   4.568   4.525
 9715WAT     H130727   2.182   4.521   4.600
 9715WAT     H230728   2.127   4.655   4.559
 9716WAT      O30729   1.432   4.042   4.138
 9716WAT     H130730   1.404   4.006   4.222
 9716WAT     H230731   1.426   3.969   4.077
 9717WAT      O30732   1.925   4.472   4.757
 9717WAT     H130733   1.894   4.560   4.780
 9717WAT     H230734   2.020   4.478   4.761
 9718WAT      O30735   1.777   4.893   3.817
 9718WAT     H130736   1.700   4.839   3.801
 9718WAT     H230737   1.850   4.841   3.783
 9719WAT      O30738   2.399   3.932   3.810
 9719WAT     H130739   2.318   3.882   3.803
 9719WAT     H230740   2.380   4.016   3.769
 9720WAT      O30741   2.392   4.799   4.985
 9720WAT     H130742   2.385   4.707   4.959
 9720WAT     H230743   2.329   4.809   5.056
 9721WAT      O30744   1.782   4.859   4.181
 9721WAT     H130745   1.834   4.779   4.175
 9721WAT     H230746   1.737   4.853   4.265
 9722WAT      O30747   1.530   4.556   4.872
 9722WAT     H130748   1.494   4.623   4.931
 9722WAT     H230749   1.501   4.473   4.909
 9723WAT      O30750   1.850   4.602   5.160
 9723WAT     H130751   1.820   4.616   5.071
 9723WAT     H230752   1.928   4.546   5.151
 9724WAT      O30753   2.385   5.082   4.960
 9724WAT     H130754   2.386   4.988   4.938
 9724WAT     H230755   2.314   5.090   5.024
 9725WAT      O30756   1.381   4.556   3.534
 9725WAT     H130757   1.468   4.584   3.563
 9725WAT     H230758   1.332   4.637   3.523
 9726WAT      O30759   2.328   5.246   4.669
 9726WAT     H130760   2.392   5.266   4.737
 9726WAT     H230761   2.364   5.170   4.624
 9727WAT      O30762   1.688   3.729   3.993
 9727WAT     H130763   1.675   3.728   4.088
 9727WAT     H230764   1.605   3.763   3.958
 9728WAT      O30765   2.455   5.046   4.541
 9728WAT     H130766   2.520   4.976   4.552
 9728WAT     H230767   2.508   5.124   4.523
 9729WAT      O30768   2.633   5.126   4.861
 9729WAT     H130769   2.666   5.185   4.929
 9729WAT     H230770   2.541   5.113   4.884
 9730WAT      O30771   1.418   5.477   3.591
 9730WAT     H130772   1.454   5.537   3.525
 9730WAT     H230773   1.404   5.532   3.668
 9731WAT      O30774   1.388   3.905   4.940
 9731WAT     H130775   1.316   3.925   5.000
 9731WAT     H230776   1.430   3.827   4.977
 9732WAT      O30777   1.417   5.304   5.038
 9732WAT     H130778   1.427   5.210   5.024
 9732WAT     H230779   1.351   5.330   4.973
 9733WAT      O30780   2.216   5.131   5.178
 9733WAT     H130781   2.184   5.059   5.233
 9733WAT     H230782   2.148   5.199   5.186
 9734WAT      O30783   2.020   5.216   3.673
 9734WAT     H130784   2.019   5.289   3.611
 9734WAT     H230785   1.928   5.191   3.682
 9735WAT      O30786   1.580   4.738   3.747
 9735WAT     H130787   1.519   4.812   3.748
 9735WAT     H230788   1.627   4.747   3.664
 9736WAT      O30789   2.537   4.154   4.715
 9736WAT     H130790   2.574   4.072   4.747
 9736WAT     H230791   2.451   4.160   4.756
 9737WAT      O30792   2.233   4.420   4.737
 9737WAT     H130793   2.283   4.467   4.803
 9737WAT     H230794   2.247   4.327   4.758
 9738WAT      O30795   2.474   3.950   4.081
 9738WAT     H130796   2.461   3.952   3.986
 9738WAT     H230797   2.569   3.955   4.093
 9739WAT      O30798   2.183   5.474   4.008
 9739WAT     H130799   2.208   5.470   3.916
 9739WAT     H230800   2.088   5.461   4.008
 9740WAT      O30801   1.891   4.109   3.675
 9740WAT     H130802   1.976   4.152   3.668
 9740WAT     H230803   1.854   4.140   3.757
 9741WAT      O30804   1.781   4.734   3.522
 9741WAT     H130805   1.858   4.723   3.578
 9741WAT     H230806   1.789   4.664   3.457
 9742WAT      O30807   1.650   4.477   3.590
 9742WAT     H130808   1.658   4.382   3.601
 9742WAT     H230809   1.740   4.510   3.601
 9743WAT      O30810   2.983   5.283   4.333
 9743WAT     H130811   2.996   5.365   4.381
 9743WAT     H230812   3.070   5.262   4.299
 9744WAT      O30813   1.731   5.492   4.301
 9744WAT     H130814   1.804   5.437   4.328
 9744WAT     H230815   1.769   5.579   4.287
 9745WAT      O30816   1.419   5.099   3.888
 9745WAT     H130817   1.326   5.123   3.887
 9745WAT     H230818   1.466   5.182   3.876
 9746WAT      O30819   1.631   5.411   5.219
 9746WAT     H130820   1.711   5.443   5.261
 9746WAT     H230821   1.580   5.374   5.292
 9747WAT      O30822   2.042   5.409   3.483
 9747WAT     H130823   2.121   5.438   3.438
 9747WAT     H230824   1.990   5.366   3.415
 9748WAT      O30825   2.515   5.021   5.214
 9748WAT     H130826   2.454   5.024   5.140
 9748WAT     H230827   2.484   4.948   5.268
 9749WAT      O30828   2.658   5.394   5.075
 9749WAT     H130829   2.753   5.386   5.070
 9749WAT     H230830   2.643   5.461   5.143
 9750WAT      O30831   1.403   4.659   5.114
 9750WAT     H130832   1.453   4.601   5.171
 9750WAT     H230833   1.329   4.688   5.168
 9751WAT      O30834   2.108   4.800   5.067
 9751WAT     H130835   2.032   4.857   5.059
 9751WAT     H230836   2.127   4.771   4.978
 9752WAT      O30837   2.823   4.973   5.123
 9752WAT     H130838   2.897   5.007   5.073
 9752WAT     H230839   2.746   4.990   5.068
 9753WAT      O30840   1.606   4.474   5.203
 9753WAT     H130841   1.610   4.444   5.294
 9753WAT     H230842   1.692   4.514   5.187
 9754WAT      O30843   1.800   4.331   5.000
 9754WAT     H130844   1.747   4.282   4.937
 9754WAT     H230845   1.867   4.374   4.947
 9755WAT      O30846   1.849   4.028   5.008
 9755WAT     H130847   1.840   3.966   4.936
 9755WAT     H230848   1.791   4.101   4.985
 9756WAT      O30849   2.126   3.884   4.711
 9756WAT     H130850   2.081   3.886   4.627
 9756WAT     H230851   2.062   3.844   4.771
 9757WAT      O30852   2.166   4.773   4.773
 9757WAT     H130853   2.208   4.858   4.756
 9757WAT     H230854   2.074   4.787   4.750
 9758WAT      O30855   1.874   4.341   3.414
 9758WAT     H130856   1.854   4.255   3.450
 9758WAT     H230857   1.857   4.332   3.320
 9759WAT      O30858   1.951   5.404   4.885
 9759WAT     H130859   1.898   5.476   4.853
 9759WAT     H230860   1.977   5.356   4.806
 9760WAT      O30861   2.077   4.201   5.038
 9760WAT     H130862   2.136   4.170   5.106
 9760WAT     H230863   1.995   4.154   5.053
 9761WAT      O30864   2.559   4.162   5.061
 9761WAT     H130865   2.490   4.096   5.054
 9761WAT     H230866   2.631   4.118   5.105
 9762WAT      O30867   2.622   3.822   3.667
 9762WAT     H130868   2.650   3.738   3.702
 9762WAT     H230869   2.544   3.845   3.718
 9763WAT      O30870   1.754   4.051   3.413
 9763WAT     H130871   1.784   4.052   3.322
 9763WAT     H230872   1.827   4.016   3.462
 9764WAT      O30873   2.237   5.527   4.911
 9764WAT     H130874   2.230   5.618   4.942
 9764WAT     H230875   2.147   5.496   4.908
 9765WAT      O30876   2.075   3.945   3.511
 9765WAT     H130877   2.041   3.877   3.453
 9765WAT     H230878   2.095   3.899   3.593
 9766WAT      O30879   2.292   5.444   3.673
 9766WAT     H130880   2.381   5.478   3.675
 9766WAT     H230881   2.295   5.372   3.610
 9767WAT      O30882   1.656   4.981   3.496
 9767WAT     H130883   1.700   5.036   3.562
 9767WAT     H230884   1.704   4.899   3.497
 9768WAT      O30885   1.377   5.260   4.241
 9768WAT     H130886   1.410   5.173   4.218
 9768WAT     H230887   1.420   5.281   4.324
 9769WAT      O30888   1.837   5.093   4.007
 9769WAT     H130889   1.807   5.081   4.097
 9769WAT     H230890   1.826   5.007   3.966
 9770WAT      O30891   1.426   5.347   4.515
 9770WAT     H130892   1.382   5.365   4.598
 9770WAT     H230893   1.483   5.423   4.501
 9771WAT      O30894   2.990   5.297   4.944
 9771WAT     H130895   2.930   5.303   4.869
 9771WAT     H230896   3.003   5.203   4.957
 9772WAT      O30897   1.409   4.598   4.151
 9772WAT     H130898   1.344   4.571   4.086
 9772WAT     H230899   1.493   4.587   4.106
 9773WAT      O30900   2.704   4.077   3.573
 9773WAT     H130901   2.746   4.059   3.489
 9773WAT     H230902   2.674   3.992   3.604
 9774WAT      O30903   1.513   4.637   4.605
 9774WAT     H130904   1.550   4.628   4.693
 9774WAT     H230905   1.456   4.560   4.595
 9775WAT      O30906   1.468   4.328   4.995
 9775WAT     H130907   1.379   4.324   5.029
 9775WAT     H230908   1.522   4.348   5.072
 9776WAT      O30909   1.331   4.319   3.745
 9776WAT     H130910   1.240   4.345   3.728
 9776WAT     H230911   1.379   4.346   3.667
 9777WAT      O30912   1.585   4.225   3.536
 9777WAT     H130913   1.656   4.183   3.488
 9777WAT     H230914   1.513   4.231   3.473
 9778WAT      O30915   1.550   3.830   3.440
 9778WAT     H130916   1.622   3.884   3.472
 9778WAT     H230917   1.577   3.803   3.353
 9779WAT      O30918   1.519   3.755   4.430
 9779WAT     H130919   1.584   3.700   4.386
 9779WAT     H230920   1.561   3.781   4.512
 9780WAT      O30921   2.908   3.775   4.766
 9780WAT     H130922   2.972   3.836   4.803
 9780WAT     H230923   2.923   3.778   4.672
 9781WAT      O30924   3.163   3.964   3.444
 9781WAT     H130925   3.255   3.951   3.423
 9781WAT     H230926   3.160   3.972   3.540
 9782WAT      O30927   2.864   5.445   4.106
 9782WAT     H130928   2.924   5.413   4.039
 9782WAT     H230929   2.890   5.397   4.185
 9783WAT      O30930   1.494   3.771   4.705
 9783WAT     H130931   1.459   3.816   4.781
 9783WAT     H230932   1.461   3.681   4.713
 9784WAT      O30933   1.655   5.088   5.121
 9784WAT     H130934   1.650   5.051   5.209
 9784WAT     H230935   1.668   5.182   5.135
 9785WAT      O30936   2.025   5.244   4.681
 9785WAT     H130937   2.001   5.270   4.593
 9785WAT     H230938   2.119   5.261   4.687
 9786WAT      O30939   2.245   3.890   5.057
 9786WAT     H130940   2.239   3.949   5.132
 9786WAT     H230941   2.339   3.879   5.042
 9787WAT      O30942   2.509   3.856   5.021
 9787WAT     H130943   2.570   3.887   4.955
 9787WAT     H230944   2.564   3.807   5.083
 9788WAT      O30945   1.561   3.723   5.032
 9788WAT     H130946   1.616   3.705   4.956
 9788WAT     H230947   1.568   3.644   5.086
 9789WAT      O30948   1.639   5.383   4.833
 9789WAT     H130949   1.579   5.369   4.907
 9789WAT     H230950   1.638   5.299   4.787
 9790WAT      O30951   2.583   3.712   4.653
 9790WAT     H130952   2.496   3.745   4.633
 9790WAT     H230953   2.572   3.665   4.736
 9791WAT      O30954   2.674   3.933   4.792
 9791WAT     H130955   2.641   3.851   4.754
 9791WAT     H230956   2.769   3.928   4.779
 9792WAT      O30957   2.919   5.510   4.489
 9792WAT     H130958   2.873   5.585   4.452
 9792WAT     H230959   2.856   5.438   4.483
 9793WAT      O30960   1.602   5.119   4.728
 9793WAT     H130961   1.529   5.057   4.721
 9793WAT     H230962   1.608   5.159   4.641
 9794WAT      O30963   1.962   5.341   4.407
 9794WAT     H130964   2.014   5.279   4.354
 9794WAT     H230965   2.027   5.391   4.456
 9795WAT      O30966   2.236   5.430   4.489
 9795WAT     H130967   2.265   5.404   4.402
 9795WAT     H230968   2.287   5.374   4.548
 9796WAT      O30969   2.358   3.804   4.547
 9796WAT     H130970   2.280   3.851   4.575
 9796WAT     H230971   2.329   3.713   4.536
 9797WAT      O30972   1.430   5.451   4.049
 9797WAT     H130973   1.413   5.388   4.119
 9797WAT     H230974   1.343   5.471   4.014
 9798WAT      O30975   1.492   3.834   3.799
 9798WAT     H130976   1.568   3.845   3.742
 9798WAT     H230977   1.446   3.918   3.795
 9799WAT      O30978   2.146   4.045   4.098
 9799WAT     H130979   2.065   4.008   4.064
 9799WAT     H230980   2.197   3.970   4.129
 9800WAT      O30981   1.591   5.320   3.794
 9800WAT     H130982   1.538   5.358   3.723
 9800WAT     H230983   1.583   5.383   3.866
 9801WAT      O30984   1.730   3.887   3.653
 9801WAT     H130985   1.782   3.808   3.641
 9801WAT     H230986   1.793   3.955   3.677
 9802WAT      O30987   1.949   3.860   3.959
 9802WAT     H130988   1.886   3.790   3.976
 9802WAT     H230989   1.895   3.936   3.937
 9803WAT      O30990   2.243   5.522   5.226
 9803WAT     H130991   2.336   5.498   5.230
 9803WAT     H230992   2.241   5.605   5.178
 9804WAT      O30993   3.066   5.476   3.926
 9804WAT     H130994   3.084   5.407   3.861
 9804WAT     H230995   2.997   5.529   3.887
 9805WAT      O30996   1.961   3.788   5.202
 9805WAT     H130997   1.933   3.839   5.126
 9805WAT     H230998   2.000   3.708   5.166
 9806WAT      O30999   1.851   5.515   3.681
 9806WAT     H131000   1.924   5.487   3.626
 9806WAT     H231001   1.876   5.491   3.770
 9807WAT      O31002   1.767   5.127   3.682
 9807WAT     H131003   1.704   5.174   3.736
 9807WAT     H231004   1.778   5.042   3.725
 9808WAT      O31005   2.622   3.730   5.260
 9808WAT     H131006   2.610   3.762   5.350
 9808WAT     H231007   2.703   3.770   5.231
 9809WAT      O31008   2.900   5.445   5.208
 9809WAT     H131009   2.979   5.395   5.188
 9809WAT     H231010   2.929   5.512   5.269
 9810WAT      O31011   2.512   4.532   2.297
 9810WAT     H131012   2.504   4.440   2.270
 9810WAT     H231013   2.471   4.581   2.226
 9811WAT      O31014   2.325   4.710   2.485
 9811WAT     H131015   2.248   4.662   2.514
 9811WAT     H231016   2.391   4.642   2.467
 9812WAT      O31017   1.727   4.741   2.572
 9812WAT     H131018   1.644   4.715   2.612
 9812WAT     H231019   1.788   4.748   2.646
 9813WAT      O31020   1.725   5.144   2.592
 9813WAT     H131021   1.755   5.055   2.574
 9813WAT     H231022   1.799   5.200   2.569
 9814WAT      O31023   1.568   4.237   1.951
 9814WAT     H131024   1.479   4.271   1.941
 9814WAT     H231025   1.596   4.217   1.862
 9815WAT      O31026   1.364   4.497   2.539
 9815WAT     H131027   1.421   4.420   2.539
 9815WAT     H231028   1.364   4.527   2.448
 9816WAT      O31029   2.269   4.977   2.485
 9816WAT     H131030   2.263   4.883   2.469
 9816WAT     H231031   2.346   4.986   2.543
 9817WAT      O31032   1.489   4.038   2.718
 9817WAT     H131033   1.471   3.948   2.746
 9817WAT     H231034   1.448   4.092   2.785
 9818WAT      O31035   2.373   4.258   2.508
 9818WAT     H131036   2.410   4.171   2.497
 9818WAT     H231037   2.363   4.291   2.419
 9819WAT      O31038   1.786   4.095   2.054
 9819WAT     H131039   1.796   4.185   2.085
 9819WAT     H231040   1.695   4.090   2.025
 9820WAT      O31041   2.751   4.007   2.201
 9820WAT     H131042   2.833   3.958   2.206
 9820WAT     H231043   2.754   4.066   2.277
 9821WAT      O31044   1.550   4.287   2.579
 9821WAT     H131045   1.619   4.314   2.641
 9821WAT     H231046   1.519   4.203   2.612
 9822WAT      O31047   1.970   4.392   2.488
 9822WAT     H131048   2.020   4.442   2.552
 9822WAT     H231049   2.023   4.314   2.470
 9823WAT      O31050   3.180   4.209   2.858
 9823WAT     H131051   3.109   4.248   2.806
 9823WAT     H231052   3.206   4.278   2.918
 9824WAT      O31053   1.798   3.856   2.914
 9824WAT     H131054   1.798   3.908   2.834
 9824WAT     H231055   1.715   3.808   2.912
 9825WAT      O31056   2.437   4.867   2.064
 9825WAT     H131057   2.375   4.914   2.008
 9825WAT     H231058   2.488   4.936   2.106
 9826WAT      O31059   1.923   4.820   2.732
 9826WAT     H131060   1.890   4.883   2.796
 9826WAT     H231061   1.941   4.872   2.654
 9827WAT      O31062   2.774   4.201   2.479
 9827WAT     H131063   2.704   4.230   2.537
 9827WAT     H231064   2.811   4.282   2.443
 9828WAT      O31065   1.766   4.027   2.715
 9828WAT     H131066   1.800   4.111   2.685
 9828WAT     H231067   1.672   4.042   2.727
 9829WAT      O31068   1.844   5.017   2.913
 9829WAT     H131069   1.906   5.084   2.885
 9829WAT     H231070   1.758   5.058   2.904
 9830WAT      O31071   1.374   4.936   1.801
 9830WAT     H131072   1.336   4.985   1.728
 9830WAT     H231073   1.399   5.003   1.865
 9831WAT      O31074   3.081   4.146   2.518
 9831WAT     H131075   2.987   4.149   2.531
 9831WAT     H231076   3.114   4.227   2.556
 9832WAT      O31077   2.134   3.776   2.347
 9832WAT     H131078   2.165   3.720   2.276
 9832WAT     H231079   2.041   3.789   2.329
 9833WAT      O31080   2.819   5.020   2.085
 9833WAT     H131081   2.808   4.925   2.098
 9833WAT     H231082   2.819   5.056   2.174
 9834WAT      O31083   2.373   4.582   2.021
 9834WAT     H131084   2.281   4.576   2.044
 9834WAT     H231085   2.389   4.676   2.009
 9835WAT      O31086   2.372   4.209   1.721
 9835WAT     H131087   2.278   4.226   1.729
 9835WAT     H231088   2.404   4.281   1.666
 9836WAT      O31089   3.024   4.678   2.718
 9836WAT     H131090   2.941   4.685   2.671
 9836WAT     H231091   3.084   4.736   2.672
 9837WAT      O31092   2.776   4.739   2.071
 9837WAT     H131093   2.714   4.705   2.007
 9837WAT     H231094   2.774   4.674   2.142
 9838WAT      O31095   2.720   4.356   2.813
 9838WAT     H131096   2.679   4.439   2.838
 9838WAT     H231097   2.647   4.298   2.794
 9839WAT      O31098   1.934   4.635   2.299
 9839WAT     H131099   1.893   4.564   2.250
 9839WAT     H231100   1.942   4.600   2.388
 9840WAT      O31101   1.981   5.004   2.515
 9840WAT     H131102   1.951   4.943   2.448
 9840WAT     H231103   2.076   5.007   2.504
 9841WAT      O31104   1.805   4.312   2.677
 9841WAT     H131105   1.860   4.323   2.600
 9841WAT     H231106   1.857   4.350   2.749
 9842WAT      O31107   1.890   4.977   3.181
 9842WAT     H131108   1.800   5.000   3.205
 9842WAT     H231109   1.892   4.990   3.086
 9843WAT      O31110   2.594   4.662   1.772
 9843WAT     H131111   2.638   4.579   1.757
 9843WAT     H231112   2.665   4.726   1.781
 9844WAT      O31113   1.773   4.665   3.038
 9844WAT     H131114   1.759   4.752   3.075
 9844WAT     H231115   1.684   4.630   3.024
 9845WAT      O31116   1.952   5.259   3.259
 9845WAT     H131117   1.949   5.299   3.172
 9845WAT     H231118   1.936   5.166   3.243
 9846WAT      O31119   2.952   3.788   1.603
 9846WAT     H131120   2.921   3.797   1.693
 9846WAT     H231121   3.028   3.846   1.598
 9847WAT      O31122   1.604   4.524   2.049
 9847WAT     H131123   1.592   4.597   1.988
 9847WAT     H231124   1.573   4.447   2.001
 9848WAT      O31125   1.368   4.842   2.630
 9848WAT     H131126   1.376   4.855   2.535
 9848WAT     H231127   1.429   4.771   2.649
 9849WAT      O31128   1.492   5.012   2.271
 9849WAT     H131129   1.451   5.026   2.185
 9849WAT     H231130   1.581   4.983   2.251
 9850WAT      O31131   2.672   5.455   1.904
 9850WAT     H131132   2.656   5.426   1.994
 9850WAT     H231133   2.655   5.377   1.851
 9851WAT      O31134   2.642   5.206   1.760
 9851WAT     H131135   2.572   5.206   1.694
 9851WAT     H231136   2.716   5.163   1.717
 9852WAT      O31137   3.073   4.262   3.201
 9852WAT     H131138   3.012   4.312   3.148
 9852WAT     H231139   3.041   4.171   3.195
 9853WAT      O31140   1.373   4.946   2.884
 9853WAT     H131141   1.390   4.899   2.802
 9853WAT     H231142   1.420   4.895   2.950
 9854WAT      O31143   1.851   3.859   2.387
 9854WAT     H131144   1.806   3.937   2.354
 9854WAT     H231145   1.906   3.891   2.458
 9855WAT      O31146   2.279   4.145   2.948
 9855WAT     H131147   2.233   4.166   3.029
 9855WAT     H231148   2.239   4.064   2.917
 9856WAT      O31149   2.779   4.268   3.061
 9856WAT     H131150   2.694   4.238   3.093
 9856WAT     H231151   2.763   4.292   2.970
 9857WAT      O31152   2.489   4.418   3.271
 9857WAT     H131153   2.521   4.334   3.237
 9857WAT     H231154   2.568   4.470   3.285
 9858WAT      O31155   2.162   3.821   1.875
 9858WAT     H131156   2.100   3.820   1.948
 9858WAT     H231157   2.153   3.734   1.836
 9859WAT      O31158   2.054   3.913   2.573
 9859WAT     H131159   2.084   4.004   2.565
 9859WAT     H231160   2.109   3.864   2.512
 9860WAT      O31161   1.830   4.371   2.160
 9860WAT     H131162   1.807   4.349   2.251
 9860WAT     H231163   1.752   4.414   2.126
 9861WAT      O31164   2.553   4.372   2.020
 9861WAT     H131165   2.493   4.444   2.002
 9861WAT     H231166   2.607   4.365   1.942
 9862WAT      O31167   2.074   4.461   3.227
 9862WAT     H131168   2.064   4.367   3.212
 9862WAT     H231169   2.158   4.483   3.187
 9863WAT      O31170   2.413   4.235   2.223
 9863WAT     H131171   2.453   4.267   2.142
 9863WAT     H231172   2.449   4.147   2.235
 9864WAT      O31173   1.587   4.102   3.042
 9864WAT     H131174   1.547   4.187   3.063
 9864WAT     H231175   1.518   4.038   3.061
 9865WAT      O31176   2.244   4.110   3.349
 9865WAT     H131177   2.175   4.091   3.413
 9865WAT     H231178   2.319   4.139   3.402
 9866WAT      O31179   1.317   3.894   2.445
 9866WAT     H131180   1.288   3.951   2.517
 9866WAT     H231181   1.391   3.846   2.482
 9867WAT      O31182   1.336   4.289   1.566
 9867WAT     H131183   1.327   4.383   1.581
 9867WAT     H231184   1.300   4.274   1.479
 9868WAT      O31185   2.472   4.494   2.633
 9868WAT     H131186   2.399   4.545   2.668
 9868WAT     H231187   2.432   4.413   2.603
 9869WAT      O31188   2.116   4.162   2.473
 9869WAT     H131189   2.116   4.118   2.388
 9869WAT     H231190   2.205   4.194   2.484
 9870WAT      O31191   1.701   4.150   2.369
 9870WAT     H131192   1.667   4.198   2.445
 9870WAT     H231193   1.624   4.105   2.333
 9871WAT      O31194   2.122   4.262   1.772
 9871WAT     H131195   2.134   4.258   1.867
 9871WAT     H231196   2.083   4.348   1.757
 9872WAT      O31197   2.518   4.040   2.574
 9872WAT     H131198   2.520   4.085   2.658
 9872WAT     H231199   2.493   3.950   2.595
 9873WAT      O31200   2.023   4.493   1.712
 9873WAT     H131201   1.966   4.448   1.649
 9873WAT     H231202   2.094   4.529   1.659
 9874WAT      O31203   2.861   3.781   3.158
 9874WAT     H131204   2.893   3.708   3.210
 9874WAT     H231205   2.864   3.749   3.068
 9875WAT      O31206   1.531   4.883   3.100
 9875WAT     H131207   1.492   4.819   3.160
 9875WAT     H231208   1.562   4.954   3.157
 9876WAT      O31209   2.146   4.568   2.648
 9876WAT     H131210   2.182   4.521   2.722
 9876WAT     H231211   2.127   4.655   2.682
 9877WAT      O31212   1.432   4.042   2.261
 9877WAT     H131213   1.404   4.006   2.345
 9877WAT     H231214   1.426   3.969   2.199
 9878WAT      O31215   1.925   4.472   2.880
 9878WAT     H131216   1.894   4.560   2.902
 9878WAT     H231217   2.020   4.478   2.883
 9879WAT      O31218   1.777   4.893   1.939
 9879WAT     H131219   1.700   4.839   1.923
 9879WAT     H231220   1.850   4.841   1.906
 9880WAT      O31221   2.853   4.792   2.519
 9880WAT     H131222   2.925   4.842   2.480
 9880WAT     H231223   2.833   4.724   2.454
 9881WAT      O31224   2.399   3.932   1.933
 9881WAT     H131225   2.318   3.882   1.925
 9881WAT     H231226   2.380   4.016   1.891
 9882WAT      O31227   2.671   4.369   1.763
 9882WAT     H131228   2.760   4.400   1.745
 9882WAT     H231229   2.668   4.282   1.723
 9883WAT      O31230   1.782   4.859   2.303
 9883WAT     H131231   1.834   4.779   2.298
 9883WAT     H231232   1.737   4.853   2.387
 9884WAT      O31233   2.271   4.986   1.830
 9884WAT     H131234   2.305   5.061   1.781
 9884WAT     H231235   2.188   5.017   1.867
 9885WAT      O31236   1.530   4.556   2.994
 9885WAT     H131237   1.494   4.623   3.053
 9885WAT     H231238   1.501   4.473   3.032
 9886WAT      O31239   1.850   4.602   3.283
 9886WAT     H131240   1.820   4.616   3.193
 9886WAT     H231241   1.928   4.546   3.274
 9887WAT      O31242   2.898   4.500   1.709
 9887WAT     H131243   2.890   4.543   1.624
 9887WAT     H231244   2.970   4.546   1.753
 9888WAT      O31245   3.006   4.746   3.017
 9888WAT     H131246   2.933   4.805   2.997
 9888WAT     H231247   3.059   4.745   2.937
 9889WAT      O31248   3.001   5.185   1.982
 9889WAT     H131249   2.937   5.120   2.010
 9889WAT     H231250   2.962   5.226   1.905
 9890WAT      O31251   2.559   4.918   2.367
 9890WAT     H131252   2.594   4.859   2.301
 9890WAT     H231253   2.470   4.886   2.384
 9891WAT      O31254   2.167   4.994   2.108
 9891WAT     H131255   2.236   5.049   2.146
 9891WAT     H231256   2.089   5.049   2.111
 9892WAT      O31257   1.381   4.556   1.657
 9892WAT     H131258   1.468   4.584   1.685
 9892WAT     H231259   1.332   4.637   1.645
 9893WAT      O31260   2.098   4.695   2.069
 9893WAT     H131261   2.143   4.776   2.091
 9893WAT     H231262   2.063   4.663   2.152
 9894WAT      O31263   1.688   3.729   2.116
 9894WAT     H131264   1.675   3.728   2.211
 9894WAT     H231265   1.605   3.763   2.081
 9895WAT      O31266   2.840   5.075   1.636
 9895WAT     H131267   2.817   5.003   1.695
 9895WAT     H231268   2.801   5.050   1.552
 9896WAT      O31269   1.418   5.477   1.713
 9896WAT     H131270   1.454   5.537   1.648
 9896WAT     H231271   1.404   5.532   1.791
 9897WAT      O31272   1.388   3.905   3.062
 9897WAT     H131273   1.316   3.925   3.123
 9897WAT     H231274   1.430   3.827   3.099
 9898WAT      O31275   2.798   4.866   1.802
 9898WAT     H131276   2.769   4.912   1.881
 9898WAT     H231277   2.878   4.820   1.829
 9899WAT      O31278   1.417   5.304   3.161
 9899WAT     H131279   1.427   5.210   3.147
 9899WAT     H231280   1.351   5.330   3.096
 9900WAT      O31281   2.020   5.216   1.795
 9900WAT     H131282   2.019   5.289   1.734
 9900WAT     H231283   1.928   5.191   1.804
 9901WAT      O31284   1.580   4.738   1.870
 9901WAT     H131285   1.519   4.812   1.871
 9901WAT     H231286   1.627   4.747   1.787
 9902WAT      O31287   2.537   4.154   2.837
 9902WAT     H131288   2.574   4.072   2.870
 9902WAT     H231289   2.451   4.160   2.879
 9903WAT      O31290   2.874   4.050   1.918
 9903WAT     H131291   2.811   4.060   1.847
 9903WAT     H231292   2.824   4.072   1.997
 9904WAT      O31293   2.318   5.222   1.661
 9904WAT     H131294   2.329   5.202   1.568
 9904WAT     H231295   2.228   5.196   1.682
 9905WAT      O31296   2.071   4.278   2.060
 9905WAT     H131297   2.000   4.325   2.104
 9905WAT     H231298   2.099   4.212   2.123
 9906WAT      O31299   2.233   4.420   2.860
 9906WAT     H131300   2.283   4.467   2.926
 9906WAT     H231301   2.247   4.327   2.880
 9907WAT      O31302   2.474   3.950   2.204
 9907WAT     H131303   2.461   3.952   2.109
 9907WAT     H231304   2.569   3.955   2.216
 9908WAT      O31305   1.891   4.109   1.797
 9908WAT     H131306   1.976   4.152   1.790
 9908WAT     H231307   1.854   4.140   1.880
 9909WAT      O31308   2.954   4.041   2.944
 9909WAT     H131309   2.904   4.115   2.978
 9909WAT     H231310   3.035   4.080   2.912
 9910WAT      O31311   2.783   4.566   2.288
 9910WAT     H131312   2.689   4.567   2.306
 9910WAT     H231313   2.815   4.487   2.333
 9911WAT      O31314   1.781   4.734   1.644
 9911WAT     H131315   1.858   4.723   1.701
 9911WAT     H231316   1.789   4.664   1.579
 9912WAT      O31317   1.650   4.477   1.713
 9912WAT     H131318   1.658   4.382   1.724
 9912WAT     H231319   1.740   4.510   1.723
 9913WAT      O31320   1.731   5.492   2.423
 9913WAT     H131321   1.804   5.437   2.450
 9913WAT     H231322   1.769   5.579   2.409
 9914WAT      O31323   1.419   5.099   2.011
 9914WAT     H131324   1.326   5.123   2.010
 9914WAT     H231325   1.466   5.182   1.998
 9915WAT      O31326   1.631   5.411   3.342
 9915WAT     H131327   1.711   5.443   3.383
 9915WAT     H231328   1.580   5.374   3.414
 9916WAT      O31329   2.042   5.409   1.605
 9916WAT     H131330   2.121   5.438   1.560
 9916WAT     H231331   1.990   5.366   1.538
 9917WAT      O31332   2.947   5.332   1.748
 9917WAT     H131333   2.918   5.291   1.666
 9917WAT     H231334   2.927   5.425   1.736
 9918WAT      O31335   1.403   4.659   3.236
 9918WAT     H131336   1.453   4.601   3.294
 9918WAT     H231337   1.329   4.688   3.290
 9919WAT      O31338   2.093   4.931   1.592
 9919WAT     H131339   2.083   4.870   1.664
 9919WAT     H231340   2.077   4.879   1.513
 9920WAT      O31341   2.108   4.800   3.190
 9920WAT     H131342   2.032   4.857   3.181
 9920WAT     H231343   2.127   4.771   3.100
 9921WAT      O31344   2.417   4.838   1.652
 9921WAT     H131345   2.362   4.882   1.717
 9921WAT     H231346   2.480   4.787   1.705
 9922WAT      O31347   1.606   4.474   3.326
 9922WAT     H131348   1.610   4.444   3.417
 9922WAT     H231349   1.692   4.514   3.310
 9923WAT      O31350   1.984   4.733   1.842
 9923WAT     H131351   2.026   4.717   1.926
 9923WAT     H231352   1.997   4.652   1.792
 9924WAT      O31353   1.800   4.331   3.123
 9924WAT     H131354   1.747   4.282   3.060
 9924WAT     H231355   1.867   4.374   3.069
 9925WAT      O31356   2.235   4.636   1.567
 9925WAT     H131357   2.287   4.564   1.530
 9925WAT     H231358   2.300   4.700   1.597
 9926WAT      O31359   2.690   4.778   3.099
 9926WAT     H131360   2.732   4.794   3.184
 9926WAT     H231361   2.597   4.791   3.115
 9927WAT      O31362   2.737   4.512   3.299
 9927WAT     H131363   2.796   4.437   3.291
 9927WAT     H231364   2.755   4.565   3.222
 9928WAT      O31365   1.849   4.028   3.131
 9928WAT     H131366   1.840   3.966   3.058
 9928WAT     H231367   1.791   4.101   3.108
 9929WAT      O31368   2.126   3.884   2.834
 9929WAT     H131369   2.081   3.886   2.749
 9929WAT     H231370   2.062   3.844   2.894
 9930WAT      O31371   2.166   4.773   2.896
 9930WAT     H131372   2.208   4.858   2.879
 9930WAT     H231373   2.074   4.787   2.873
 9931WAT      O31374   2.400   4.547   3.034
 9931WAT     H131375   2.412   4.487   3.108
 9931WAT     H231376   2.486   4.550   2.992
 9932WAT      O31377   2.634   4.602   2.892
 9932WAT     H131378   2.581   4.654   2.832
 9932WAT     H231379   2.668   4.665   2.955
 9933WAT      O31380   1.874   4.341   1.536
 9933WAT     H131381   1.854   4.255   1.573
 9933WAT     H231382   1.857   4.332   1.443
 9934WAT      O31383   1.951   5.404   3.008
 9934WAT     H131384   1.898   5.476   2.976
 9934WAT     H231385   1.977   5.356   2.929
 9935WAT      O31386   2.077   4.201   3.160
 9935WAT     H131387   2.136   4.170   3.229
 9935WAT     H231388   1.995   4.154   3.176
 9936WAT      O31389   2.559   4.162   3.183
 9936WAT     H131390   2.490   4.096   3.177
 9936WAT     H231391   2.631   4.118   3.228
 9937WAT      O31392   2.622   3.822   1.789
 9937WAT     H131393   2.650   3.738   1.825
 9937WAT     H231394   2.544   3.845   1.841
 9938WAT      O31395   1.754   4.051   1.535
 9938WAT     H131396   1.784   4.052   1.444
 9938WAT     H231397   1.827   4.016   1.585
 9939WAT      O31398   2.075   3.945   1.634
 9939WAT     H131399   2.041   3.877   1.576
 9939WAT     H231400   2.095   3.899   1.715
 9940WAT      O31401   1.656   4.981   1.619
 9940WAT     H131402   1.700   5.036   1.684
 9940WAT     H231403   1.704   4.899   1.619
 9941WAT      O31404   1.377   5.260   2.364
 9941WAT     H131405   1.410   5.173   2.341
 9941WAT     H231406   1.420   5.281   2.447
 9942WAT      O31407   1.837   5.093   2.130
 9942WAT     H131408   1.807   5.081   2.220
 9942WAT     H231409   1.826   5.007   2.089
 9943WAT      O31410   1.426   5.347   2.638
 9943WAT     H131411   1.382   5.365   2.721
 9943WAT     H231412   1.483   5.423   2.623
 9944WAT      O31413   3.114   5.071   1.600
 9944WAT     H131414   3.031   5.078   1.647
 9944WAT     H231415   3.132   5.160   1.570
 9945WAT      O31416   3.059   4.746   1.850
 9945WAT     H131417   3.136   4.803   1.861
 9945WAT     H231418   3.061   4.689   1.927
 9946WAT      O31419   1.409   4.598   2.273
 9946WAT     H131420   1.344   4.571   2.209
 9946WAT     H231421   1.493   4.587   2.228
 9947WAT      O31422   3.160   4.831   2.335
 9947WAT     H131423   3.197   4.753   2.294
 9947WAT     H231424   3.224   4.900   2.317
 9948WAT      O31425   3.065   4.775   1.566
 9948WAT     H131426   3.092   4.866   1.553
 9948WAT     H231427   3.046   4.769   1.660
 9949WAT      O31428   2.704   4.077   1.696
 9949WAT     H131429   2.746   4.059   1.612
 9949WAT     H231430   2.674   3.992   1.727
 9950WAT      O31431   3.054   4.569   2.065
 9950WAT     H131432   3.017   4.492   2.022
 9950WAT     H231433   2.981   4.607   2.114
 9951WAT      O31434   1.513   4.637   2.727
 9951WAT     H131435   1.550   4.628   2.815
 9951WAT     H231436   1.456   4.560   2.718
 9952WAT      O31437   2.993   4.483   3.029
 9952WAT     H131438   2.970   4.461   2.939
 9952WAT     H231439   3.019   4.575   3.024
 9953WAT      O31440   1.468   4.328   3.118
 9953WAT     H131441   1.379   4.324   3.152
 9953WAT     H231442   1.522   4.348   3.195
 9954WAT      O31443   2.837   4.006   3.307
 9954WAT     H131444   2.925   4.007   3.345
 9954WAT     H231445   2.838   3.932   3.246
 9955WAT      O31446   1.331   4.319   1.868
 9955WAT     H131447   1.240   4.345   1.850
 9955WAT     H231448   1.379   4.346   1.790
 9956WAT      O31449   2.982   4.391   2.395
 9956WAT     H131450   3.034   4.342   2.332
 9956WAT     H231451   3.040   4.405   2.470
 9957WAT      O31452   3.000   4.400   2.748
 9957WAT     H131453   2.905   4.396   2.759
 9957WAT     H231454   3.018   4.491   2.724
 9958WAT      O31455   1.585   4.225   1.659
 9958WAT     H131456   1.656   4.183   1.610
 9958WAT     H231457   1.513   4.231   1.595
 9959WAT      O31458   1.550   3.830   1.563
 9959WAT     H131459   1.622   3.884   1.594
 9959WAT     H231460   1.577   3.803   1.475
 9960WAT      O31461   2.931   4.317   1.989
 9960WAT     H131462   2.980   4.294   2.068
 9960WAT     H231463   2.911   4.233   1.948
 9961WAT      O31464   1.519   3.755   2.553
 9961WAT     H131465   1.584   3.700   2.509
 9961WAT     H231466   1.561   3.781   2.635
 9962WAT      O31467   3.074   4.181   2.243
 9962WAT     H131468   3.063   4.165   2.337
 9962WAT     H231469   3.150   4.128   2.219
 9963WAT      O31470   2.908   3.775   2.889
 9963WAT     H131471   2.972   3.836   2.925
 9963WAT     H231472   2.923   3.778   2.794
 9964WAT      O31473   3.163   3.964   1.567
 9964WAT     H131474   3.255   3.951   1.546
 9964WAT     H231475   3.160   3.972   1.662
 9965WAT      O31476   3.170   4.041   1.829
 9965WAT     H131477   3.090   4.034   1.882
 9965WAT     H231478   3.190   4.134   1.828
 9966WAT      O31479   1.494   3.771   2.827
 9966WAT     H131480   1.459   3.816   2.904
 9966WAT     H231481   1.461   3.681   2.835
 9967WAT      O31482   1.655   5.088   3.244
 9967WAT     H131483   1.650   5.051   3.332
 9967WAT     H231484   1.668   5.182   3.258
 9968WAT      O31485   2.025   5.244   2.804
 9968WAT     H131486   2.001   5.270   2.715
 9968WAT     H231487   2.119   5.261   2.809
 9969WAT      O31488   2.245   3.890   3.179
 9969WAT     H131489   2.239   3.949   3.254
 9969WAT     H231490   2.339   3.879   3.165
 9970WAT      O31491   2.509   3.856   3.143
 9970WAT     H131492   2.570   3.887   3.077
 9970WAT     H231493   2.564   3.807   3.205
 9971WAT      O31494   1.561   3.723   3.155
 9971WAT     H131495   1.616   3.705   3.078
 9971WAT     H231496   1.568   3.644   3.208
 9972WAT      O31497   1.639   5.383   2.956
 9972WAT     H131498   1.579   5.369   3.030
 9972WAT     H231499   1.638   5.299   2.909
 9973WAT      O31500   2.583   3.712   2.776
 9973WAT     H131501   2.496   3.745   2.756
 9973WAT     H231502   2.572   3.665   2.858
 9974WAT      O31503   2.674   3.933   2.914
 9974WAT     H131504   2.641   3.851   2.876
 9974WAT     H231505   2.769   3.928   2.902
 9975WAT      O31506   1.602   5.119   2.851
 9975WAT     H131507   1.529   5.057   2.844
 9975WAT     H231508   1.608   5.159   2.764
 9976WAT      O31509   1.962   5.341   2.529
 9976WAT     H131510   2.014   5.279   2.477
 9976WAT     H231511   2.027   5.391   2.578
 9977WAT      O31512   2.236   5.430   2.612
 9977WAT     H131513   2.265   5.404   2.524
 9977WAT     H231514   2.287   5.374   2.671
 9978WAT      O31515   2.358   3.804   2.670
 9978WAT     H131516   2.280   3.851   2.698
 9978WAT     H231517   2.329   3.713   2.659
 9979WAT      O31518   2.813   3.874   2.474
 9979WAT     H131519   2.857   3.868   2.390
 9979WAT     H231520   2.786   3.965   2.481
 9980WAT      O31521   2.999   3.837   2.275
 9980WAT     H131522   2.993   3.743   2.261
 9980WAT     H231523   3.077   3.848   2.330
 9981WAT      O31524   1.430   5.451   2.172
 9981WAT     H131525   1.413   5.388   2.242
 9981WAT     H231526   1.343   5.471   2.137
 9982WAT      O31527   1.492   3.834   1.922
 9982WAT     H131528   1.568   3.845   1.865
 9982WAT     H231529   1.446   3.918   1.917
 9983WAT      O31530   2.146   4.045   2.221
 9983WAT     H131531   2.065   4.008   2.187
 9983WAT     H231532   2.197   3.970   2.251
 9984WAT      O31533   2.597   3.712   2.345
 9984WAT     H131534   2.657   3.769   2.392
 9984WAT     H231535   2.523   3.768   2.323
 9985WAT      O31536   2.911   3.752   1.872
 9985WAT     H131537   2.931   3.842   1.899
 9985WAT     H231538   2.832   3.729   1.922
 9986WAT      O31539   1.591   5.320   1.916
 9986WAT     H131540   1.538   5.358   1.846
 9986WAT     H231541   1.583   5.383   1.988
 9987WAT      O31542   1.730   3.887   1.776
 9987WAT     H131543   1.782   3.808   1.763
 9987WAT     H231544   1.793   3.955   1.799
 9988WAT      O31545   1.949   3.860   2.081
 9988WAT     H131546   1.886   3.790   2.098
 9988WAT     H231547   1.895   3.936   2.060
 9989WAT      O31548   1.961   3.788   3.325
 9989WAT     H131549   1.933   3.839   3.249
 9989WAT     H231550   2.000   3.708   3.288
 9990WAT      O31551   1.767   5.127   1.804
 9990WAT     H131552   1.704   5.174   1.859
 9990WAT     H231553   1.778   5.042   1.848
 9991WAT      O31554   2.622   3.730   3.383
 9991WAT     H131555   2.610   3.762   3.472
 9991WAT     H231556   2.703   3.770   3.353
 9992WAT      O31557   2.512   4.532   0.419
 9992WAT     H131558   2.504   4.440   0.392
 9992WAT     H231559   2.471   4.581   0.349
 9993WAT      O31560   2.325   4.710   0.607
 9993WAT     H131561   2.248   4.662   0.636
 9993WAT     H231562   2.391   4.642   0.590
 9994WAT      O31563   1.727   4.741   0.695
 9994WAT     H131564   1.644   4.715   0.735
 9994WAT     H231565   1.788   4.748   0.769
 9995WAT      O31566   2.727   5.150   0.485
 9995WAT     H131567   2.681   5.073   0.518
 9995WAT     H231568   2.809   5.153   0.536
 9996WAT      O31569   1.725   5.144   0.715
 9996WAT     H131570   1.755   5.055   0.697
 9996WAT     H231571   1.799   5.200   0.692
 9997WAT      O31572   1.364   4.497   0.662
 9997WAT     H131573   1.421   4.420   0.662
 9997WAT     H231574   1.364   4.527   0.571
 9998WAT      O31575   2.350   5.379   0.447
 9998WAT     H131576   2.288   5.424   0.390
 9998WAT     H231577   2.436   5.394   0.407
 9999WAT      O31578   2.269   4.977   0.608
 9999WAT     H131579   2.263   4.883   0.592
 9999WAT     H231580   2.346   4.986   0.665
10000WAT      O31581   1.489   4.038   0.841
10000WAT     H131582   1.471   3.948   0.869
10000WAT     H231583   1.448   4.092   0.908
10001WAT      O31584   2.373   4.258   0.631
10001WAT     H131585   2.410   4.171   0.619
10001WAT     H231586   2.363   4.291   0.542
10002WAT      O31587   1.786   4.095   0.177
10002WAT     H131588   1.796   4.185   0.208
10002WAT     H231589   1.695   4.090   0.148
10003WAT      O31590   2.751   4.007   0.324
10003WAT     H131591   2.833   3.958   0.328
10003WAT     H231592   2.754   4.066   0.399
10004WAT      O31593   1.550   4.287   0.701
10004WAT     H131594   1.619   4.314   0.763
10004WAT     H231595   1.519   4.203   0.735
10005WAT      O31596   1.970   4.392   0.610
10005WAT     H131597   2.020   4.442   0.674
10005WAT     H231598   2.023   4.314   0.592
10006WAT      O31599   3.180   4.209   0.980
10006WAT     H131600   3.109   4.248   0.929
10006WAT     H231601   3.206   4.278   1.041
10007WAT      O31602   1.798   3.856   1.037
10007WAT     H131603   1.798   3.908   0.956
10007WAT     H231604   1.715   3.808   1.034
10008WAT      O31605   1.923   4.820   0.854
10008WAT     H131606   1.890   4.883   0.919
10008WAT     H231607   1.941   4.872   0.776
10009WAT      O31608   2.774   4.201   0.601
10009WAT     H131609   2.704   4.230   0.659
10009WAT     H231610   2.811   4.282   0.565
10010WAT      O31611   1.766   4.027   0.837
10010WAT     H131612   1.800   4.111   0.808
10010WAT     H231613   1.672   4.042   0.849
10011WAT      O31614   1.844   5.017   1.036
10011WAT     H131615   1.906   5.084   1.008
10011WAT     H231616   1.758   5.058   1.027
10012WAT      O31617   2.936   5.163   0.827
10012WAT     H131618   2.868   5.230   0.827
10012WAT     H231619   2.990   5.183   0.751
10013WAT      O31620   3.081   4.146   0.640
10013WAT     H131621   2.987   4.149   0.653
10013WAT     H231622   3.114   4.227   0.679
10014WAT      O31623   2.134   3.776   0.470
10014WAT     H131624   2.165   3.720   0.398
10014WAT     H231625   2.041   3.789   0.452
10015WAT      O31626   2.690   5.347   0.699
10015WAT     H131627   2.691   5.307   0.612
10015WAT     H231628   2.634   5.425   0.689
10016WAT      O31629   2.819   5.020   0.208
10016WAT     H131630   2.808   4.925   0.220
10016WAT     H231631   2.819   5.056   0.296
10017WAT      O31632   2.629   4.838   0.832
10017WAT     H131633   2.671   4.816   0.748
10017WAT     H231634   2.702   4.864   0.889
10018WAT      O31635   3.024   4.678   0.841
10018WAT     H131636   2.941   4.685   0.793
10018WAT     H231637   3.084   4.736   0.794
10019WAT      O31638   2.720   4.356   0.935
10019WAT     H131639   2.679   4.439   0.961
10019WAT     H231640   2.647   4.298   0.916
10020WAT      O31641   1.934   4.635   0.422
10020WAT     H131642   1.893   4.564   0.372
10020WAT     H231643   1.942   4.600   0.511
10021WAT      O31644   1.981   5.004   0.638
10021WAT     H131645   1.951   4.943   0.570
10021WAT     H231646   2.076   5.007   0.627
10022WAT      O31647   1.805   4.312   0.800
10022WAT     H131648   1.860   4.323   0.722
10022WAT     H231649   1.857   4.350   0.871
10023WAT      O31650   2.789   5.361   1.004
10023WAT     H131651   2.742   5.442   0.985
10023WAT     H231652   2.721   5.296   1.020
10024WAT      O31653   1.890   4.977   1.303
10024WAT     H131654   1.800   5.000   1.328
10024WAT     H231655   1.892   4.990   1.208
10025WAT      O31656   1.773   4.665   1.161
10025WAT     H131657   1.759   4.752   1.198
10025WAT     H231658   1.684   4.630   1.146
10026WAT      O31659   2.405   5.156   0.291
10026WAT     H131660   2.449   5.231   0.250
10026WAT     H231661   2.399   5.181   0.384
10027WAT      O31662   1.952   5.259   1.382
10027WAT     H131663   1.949   5.299   1.295
10027WAT     H231664   1.936   5.166   1.365
10028WAT      O31665   3.147   5.337   1.511
10028WAT     H131666   3.195   5.385   1.579
10028WAT     H231667   3.210   5.330   1.439
10029WAT      O31668   1.368   4.842   0.752
10029WAT     H131669   1.376   4.855   0.658
10029WAT     H231670   1.429   4.771   0.772
10030WAT      O31671   1.492   5.012   0.393
10030WAT     H131672   1.451   5.026   0.308
10030WAT     H231673   1.581   4.983   0.373
10031WAT      O31674   3.088   5.056   1.227
10031WAT     H131675   3.100   5.032   1.135
10031WAT     H231676   3.092   4.973   1.274
10032WAT      O31677   2.474   5.426   1.084
10032WAT     H131678   2.525   5.418   1.164
10032WAT     H231679   2.390   5.461   1.113
10033WAT      O31680   1.919   5.433   0.205
10033WAT     H131681   1.902   5.341   0.183
10033WAT     H231682   1.834   5.469   0.229
10034WAT      O31683   2.598   5.369   0.290
10034WAT     H131684   2.644   5.290   0.322
10034WAT     H231685   2.632   5.440   0.345
10035WAT      O31686   3.073   4.262   1.324
10035WAT     H131687   3.012   4.312   1.271
10035WAT     H231688   3.041   4.171   1.318
10036WAT      O31689   1.373   4.946   1.006
10036WAT     H131690   1.390   4.899   0.925
10036WAT     H231691   1.420   4.895   1.073
10037WAT      O31692   1.851   3.859   0.510
10037WAT     H131693   1.806   3.937   0.477
10037WAT     H231694   1.906   3.891   0.581
10038WAT      O31695   2.279   4.145   1.070
10038WAT     H131696   2.233   4.166   1.152
10038WAT     H231697   2.239   4.064   1.040
10039WAT      O31698   2.779   4.268   1.183
10039WAT     H131699   2.694   4.238   1.215
10039WAT     H231700   2.763   4.292   1.092
10040WAT      O31701   2.489   4.418   1.393
10040WAT     H131702   2.521   4.334   1.359
10040WAT     H231703   2.568   4.470   1.408
10041WAT      O31704   2.054   3.913   0.696
10041WAT     H131705   2.084   4.004   0.688
10041WAT     H231706   2.109   3.864   0.634
10042WAT      O31707   1.830   4.371   0.283
10042WAT     H131708   1.807   4.349   0.373
10042WAT     H231709   1.752   4.414   0.248
10043WAT      O31710   2.074   4.461   1.349
10043WAT     H131711   2.064   4.367   1.334
10043WAT     H231712   2.158   4.483   1.310
10044WAT      O31713   2.413   4.235   0.346
10044WAT     H131714   2.453   4.267   0.264
10044WAT     H231715   2.449   4.147   0.357
10045WAT      O31716   1.587   4.102   1.165
10045WAT     H131717   1.547   4.187   1.185
10045WAT     H231718   1.518   4.038   1.184
10046WAT      O31719   2.244   4.110   1.472
10046WAT     H131720   2.175   4.091   1.535
10046WAT     H231721   2.319   4.139   1.525
10047WAT      O31722   1.317   3.894   0.568
10047WAT     H131723   1.288   3.951   0.639
10047WAT     H231724   1.391   3.846   0.604
10048WAT      O31725   2.472   4.494   0.755
10048WAT     H131726   2.399   4.545   0.790
10048WAT     H231727   2.432   4.413   0.725
10049WAT      O31728   2.116   4.162   0.596
10049WAT     H131729   2.116   4.118   0.511
10049WAT     H231730   2.205   4.194   0.606
10050WAT      O31731   1.701   4.150   0.492
10050WAT     H131732   1.667   4.198   0.567
10050WAT     H231733   1.624   4.105   0.456
10051WAT      O31734   2.518   4.040   0.696
10051WAT     H131735   2.520   4.085   0.781
10051WAT     H231736   2.493   3.950   0.718
10052WAT      O31737   2.861   3.781   1.280
10052WAT     H131738   2.893   3.708   1.333
10052WAT     H231739   2.864   3.749   1.190
10053WAT      O31740   1.531   4.883   1.222
10053WAT     H131741   1.492   4.819   1.282
10053WAT     H231742   1.562   4.954   1.279
10054WAT      O31743   2.146   4.568   0.770
10054WAT     H131744   2.182   4.521   0.845
10054WAT     H231745   2.127   4.655   0.804
10055WAT      O31746   1.432   4.042   0.383
10055WAT     H131747   1.404   4.006   0.467
10055WAT     H231748   1.426   3.969   0.322
10056WAT      O31749   1.925   4.472   1.002
10056WAT     H131750   1.894   4.560   1.025
10056WAT     H231751   2.020   4.478   1.006
10057WAT      O31752   2.853   4.792   0.641
10057WAT     H131753   2.925   4.842   0.602
10057WAT     H231754   2.833   4.724   0.577
10058WAT      O31755   2.392   4.799   1.230
10058WAT     H131756   2.385   4.707   1.204
10058WAT     H231757   2.329   4.809   1.301
10059WAT      O31758   1.782   4.859   0.426
10059WAT     H131759   1.834   4.779   0.420
10059WAT     H231760   1.737   4.853   0.510
10060WAT      O31761   1.530   4.556   1.117
10060WAT     H131762   1.494   4.623   1.176
10060WAT     H231763   1.501   4.473   1.154
10061WAT      O31764   1.850   4.602   1.405
10061WAT     H131765   1.820   4.616   1.316
10061WAT     H231766   1.928   4.546   1.396
10062WAT      O31767   2.385   5.082   1.205
10062WAT     H131768   2.386   4.988   1.183
10062WAT     H231769   2.314   5.090   1.269
10063WAT      O31770   3.006   4.746   1.140
10063WAT     H131771   2.933   4.805   1.120
10063WAT     H231772   3.059   4.745   1.060
10064WAT      O31773   2.559   4.918   0.489
10064WAT     H131774   2.594   4.859   0.423
10064WAT     H231775   2.470   4.886   0.507
10065WAT      O31776   2.167   4.994   0.230
10065WAT     H131777   2.236   5.049   0.268
10065WAT     H231778   2.089   5.049   0.234
10066WAT      O31779   2.098   4.695   0.191
10066WAT     H131780   2.143   4.776   0.214
10066WAT     H231781   2.063   4.663   0.275
10067WAT      O31782   2.328   5.246   0.914
10067WAT     H131783   2.392   5.266   0.982
10067WAT     H231784   2.364   5.170   0.869
10068WAT      O31785   1.688   3.729   0.239
10068WAT     H131786   1.675   3.728   0.333
10068WAT     H231787   1.605   3.763   0.204
10069WAT      O31788   2.455   5.046   0.786
10069WAT     H131789   2.520   4.976   0.797
10069WAT     H231790   2.508   5.124   0.768
10070WAT      O31791   2.633   5.126   1.106
10070WAT     H131792   2.666   5.185   1.174
10070WAT     H231793   2.541   5.113   1.129
10071WAT      O31794   1.388   3.905   1.185
10071WAT     H131795   1.316   3.925   1.245
10071WAT     H231796   1.430   3.827   1.222
10072WAT      O31797   1.417   5.304   1.283
10072WAT     H131798   1.427   5.210   1.269
10072WAT     H231799   1.351   5.330   1.218
10073WAT      O31800   2.216   5.131   1.423
10073WAT     H131801   2.184   5.059   1.478
10073WAT     H231802   2.148   5.199   1.431
10074WAT      O31803   2.537   4.154   0.960
10074WAT     H131804   2.574   4.072   0.992
10074WAT     H231805   2.451   4.160   1.001
10075WAT      O31806   2.071   4.278   0.182
10075WAT     H131807   2.000   4.325   0.226
10075WAT     H231808   2.099   4.212   0.246
10076WAT      O31809   2.233   4.420   0.982
10076WAT     H131810   2.283   4.467   1.049
10076WAT     H231811   2.247   4.327   1.003
10077WAT      O31812   2.474   3.950   0.326
10077WAT     H131813   2.461   3.952   0.231
10077WAT     H231814   2.569   3.955   0.338
10078WAT      O31815   2.183   5.474   0.253
10078WAT     H131816   2.208   5.470   0.161
10078WAT     H231817   2.088   5.461   0.253
10079WAT      O31818   2.954   4.041   1.066
10079WAT     H131819   2.904   4.115   1.100
10079WAT     H231820   3.035   4.080   1.035
10080WAT      O31821   2.783   4.566   0.411
10080WAT     H131822   2.689   4.567   0.428
10080WAT     H231823   2.815   4.487   0.456
10081WAT      O31824   2.983   5.283   0.579
10081WAT     H131825   2.996   5.365   0.626
10081WAT     H231826   3.070   5.262   0.544
10082WAT      O31827   1.731   5.492   0.546
10082WAT     H131828   1.804   5.437   0.573
10082WAT     H231829   1.769   5.579   0.532
10083WAT      O31830   1.631   5.411   1.465
10083WAT     H131831   1.711   5.443   1.506
10083WAT     H231832   1.580   5.374   1.537
10084WAT      O31833   2.515   5.021   1.459
10084WAT     H131834   2.454   5.024   1.385
10084WAT     H231835   2.484   4.948   1.513
10085WAT      O31836   2.658   5.394   1.320
10085WAT     H131837   2.753   5.386   1.315
10085WAT     H231838   2.643   5.461   1.388
10086WAT      O31839   1.403   4.659   1.359
10086WAT     H131840   1.453   4.601   1.416
10086WAT     H231841   1.329   4.688   1.413
10087WAT      O31842   2.108   4.800   1.312
10087WAT     H131843   2.032   4.857   1.304
10087WAT     H231844   2.127   4.771   1.223
10088WAT      O31845   2.823   4.973   1.368
10088WAT     H131846   2.897   5.007   1.318
10088WAT     H231847   2.746   4.990   1.313
10089WAT      O31848   1.606   4.474   1.448
10089WAT     H131849   1.610   4.444   1.539
10089WAT     H231850   1.692   4.514   1.432
10090WAT      O31851   1.800   4.331   1.245
10090WAT     H131852   1.747   4.282   1.182
10090WAT     H231853   1.867   4.374   1.192
10091WAT      O31854   2.690   4.778   1.222
10091WAT     H131855   2.732   4.794   1.306
10091WAT     H231856   2.597   4.791   1.238
10092WAT      O31857   2.737   4.512   1.422
10092WAT     H131858   2.796   4.437   1.413
10092WAT     H231859   2.755   4.565   1.344
10093WAT      O31860   1.849   4.028   1.253
10093WAT     H131861   1.840   3.966   1.181
10093WAT     H231862   1.791   4.101   1.230
10094WAT      O31863   2.126   3.884   0.956
10094WAT     H131864   2.081   3.886   0.872
10094WAT     H231865   2.062   3.844   1.016
10095WAT      O31866   2.166   4.773   1.019
10095WAT     H131867   2.208   4.858   1.001
10095WAT     H231868   2.074   4.787   0.996
10096WAT      O31869   2.400   4.547   1.157
10096WAT     H131870   2.412   4.487   1.231
10096WAT     H231871   2.486   4.550   1.115
10097WAT      O31872   2.634   4.602   1.015
10097WAT     H131873   2.581   4.654   0.954
10097WAT     H231874   2.668   4.665   1.078
10098WAT      O31875   1.951   5.404   1.130
10098WAT     H131876   1.898   5.476   1.098
10098WAT     H231877   1.977   5.356   1.051
10099WAT      O31878   2.077   4.201   1.283
10099WAT     H131879   2.136   4.170   1.351
10099WAT     H231880   1.995   4.154   1.298
10100WAT      O31881   2.559   4.162   1.306
10100WAT     H131882   2.490   4.096   1.299
10100WAT     H231883   2.631   4.118   1.350
10101WAT      O31884   2.237   5.527   1.156
10101WAT     H131885   2.230   5.618   1.187
10101WAT     H231886   2.147   5.496   1.153
10102WAT      O31887   1.377   5.260   0.486
10102WAT     H131888   1.410   5.173   0.463
10102WAT     H231889   1.420   5.281   0.569
10103WAT      O31890   1.837   5.093   0.252
10103WAT     H131891   1.807   5.081   0.342
10103WAT     H231892   1.826   5.007   0.211
10104WAT      O31893   1.426   5.347   0.760
10104WAT     H131894   1.382   5.365   0.843
10104WAT     H231895   1.483   5.423   0.746
10105WAT      O31896   2.990   5.297   1.189
10105WAT     H131897   2.930   5.303   1.115
10105WAT     H231898   3.003   5.203   1.202
10106WAT      O31899   1.409   4.598   0.396
10106WAT     H131900   1.344   4.571   0.332
10106WAT     H231901   1.493   4.587   0.351
10107WAT      O31902   3.160   4.831   0.457
10107WAT     H131903   3.197   4.753   0.417
10107WAT     H231904   3.224   4.900   0.440
10108WAT      O31905   2.858   4.970   0.999
10108WAT     H131906   2.777   5.013   1.025
10108WAT     H231907   2.899   5.031   0.937
10109WAT      O31908   3.054   4.569   0.188
10109WAT     H131909   3.017   4.492   0.145
10109WAT     H231910   2.981   4.607   0.237
10110WAT      O31911   1.513   4.637   0.850
10110WAT     H131912   1.550   4.628   0.938
10110WAT     H231913   1.456   4.560   0.840
10111WAT      O31914   2.993   4.483   1.151
10111WAT     H131915   2.970   4.461   1.061
10111WAT     H231916   3.019   4.575   1.147
10112WAT      O31917   1.468   4.328   1.241
10112WAT     H131918   1.379   4.324   1.275
10112WAT     H231919   1.522   4.348   1.317
10113WAT      O31920   2.837   4.006   1.429
10113WAT     H131921   2.925   4.007   1.467
10113WAT     H231922   2.838   3.932   1.368
10114WAT      O31923   2.982   4.391   0.518
10114WAT     H131924   3.034   4.342   0.455
10114WAT     H231925   3.040   4.405   0.592
10115WAT      O31926   3.000   4.400   0.870
10115WAT     H131927   2.905   4.396   0.882
10115WAT     H231928   3.018   4.491   0.847
10116WAT      O31929   1.519   3.755   0.675
10116WAT     H131930   1.584   3.700   0.631
10116WAT     H231931   1.561   3.781   0.758
10117WAT      O31932   3.074   4.181   0.365
10117WAT     H131933   3.063   4.165   0.459
10117WAT     H231934   3.150   4.128   0.341
10118WAT      O31935   2.908   3.775   1.011
10118WAT     H131936   2.972   3.836   1.048
10118WAT     H231937   2.923   3.778   0.917
10119WAT      O31938   2.864   5.445   0.351
10119WAT     H131939   2.924   5.413   0.284
10119WAT     H231940   2.890   5.397   0.430
10120WAT      O31941   1.494   3.771   0.950
10120WAT     H131942   1.459   3.816   1.026
10120WAT     H231943   1.461   3.681   0.958
10121WAT      O31944   1.655   5.088   1.366
10121WAT     H131945   1.650   5.051   1.454
10121WAT     H231946   1.668   5.182   1.380
10122WAT      O31947   2.025   5.244   0.926
10122WAT     H131948   2.001   5.270   0.838
10122WAT     H231949   2.119   5.261   0.932
10123WAT      O31950   2.245   3.890   1.302
10123WAT     H131951   2.239   3.949   1.377
10123WAT     H231952   2.339   3.879   1.287
10124WAT      O31953   2.509   3.856   1.266
10124WAT     H131954   2.570   3.887   1.200
10124WAT     H231955   2.564   3.807   1.328
10125WAT      O31956   3.151   5.445   1.006
10125WAT     H131957   3.101   5.485   0.935
10125WAT     H231958   3.090   5.383   1.046
10126WAT      O31959   1.561   3.723   1.277
10126WAT     H131960   1.616   3.705   1.201
10126WAT     H231961   1.568   3.644   1.331
10127WAT      O31962   1.639   5.383   1.078
10127WAT     H131963   1.579   5.369   1.152
10127WAT     H231964   1.638   5.299   1.032
10128WAT      O31965   2.583   3.712   0.899
10128WAT     H131966   2.496   3.745   0.878
10128WAT     H231967   2.572   3.665   0.981
10129WAT      O31968   2.674   3.933   1.037
10129WAT     H131969   2.641   3.851   0.999
10129WAT     H231970   2.769   3.928   1.025
10130WAT      O31971   2.919   5.510   0.734
10130WAT     H131972   2.873   5.585   0.697
10130WAT     H231973   2.856   5.438   0.728
10131WAT      O31974   1.602   5.119   0.973
10131WAT     H131975   1.529   5.057   0.967
10131WAT     H231976   1.608   5.159   0.886
10132WAT      O31977   1.962   5.341   0.652
10132WAT     H131978   2.014   5.279   0.599
10132WAT     H231979   2.027   5.391   0.701
10133WAT      O31980   2.236   5.430   0.734
10133WAT     H131981   2.265   5.404   0.647
10133WAT     H231982   2.287   5.374   0.794
10134WAT      O31983   2.358   3.804   0.792
10134WAT     H131984   2.280   3.851   0.820
10134WAT     H231985   2.329   3.713   0.782
10135WAT      O31986   2.813   3.874   0.597
10135WAT     H131987   2.857   3.868   0.512
10135WAT     H231988   2.786   3.965   0.604
10136WAT      O31989   2.999   3.837   0.398
10136WAT     H131990   2.993   3.743   0.383
10136WAT     H231991   3.077   3.848   0.453
10137WAT      O31992   1.430   5.451   0.294
10137WAT     H131993   1.413   5.388   0.364
10137WAT     H231994   1.343   5.471   0.259
10138WAT      O31995   2.146   4.045   0.344
10138WAT     H131996   2.065   4.008   0.310
10138WAT     H231997   2.197   3.970   0.374
10139WAT      O31998   2.597   3.712   0.467
10139WAT     H131999   2.657   3.769   0.515
10139WAT     H232000   2.523   3.768   0.445
10140WAT      O32001   1.949   3.860   0.204
10140WAT     H132002   1.886   3.790   0.221
10140WAT     H232003   1.895   3.936   0.182
10141WAT      O32004   2.243   5.522   1.471
10141WAT     H132005   2.336   5.498   1.476
10141WAT     H232006   2.241   5.605   1.423
10142WAT      O32007   1.961   3.788   1.448
10142WAT     H132008   1.933   3.839   1.371
10142WAT     H232009   2.000   3.708   1.411
10143WAT      O32010   2.622   3.730   1.505
10143WAT     H132011   2.610   3.762   1.595
10143WAT     H232012   2.703   3.770   1.476
10144WAT      O32013   2.900   5.445   1.454
10144WAT     H132014   2.979   5.395   1.433
10144WAT     H232015   2.929   5.512   1.514
10145WAT      O32016   2.512   2.654   6.051
10145WAT     H132017   2.504   2.563   6.024
10145WAT     H232018   2.471   2.704   5.981
10146WAT      O32019   2.325   2.832   6.240
10146WAT     H132020   2.248   2.784   6.269
10146WAT     H232021   2.391   2.764   6.222
10147WAT      O32022   1.727   2.863   6.327
10147WAT     H132023   1.644   2.838   6.367
10147WAT     H232024   1.788   2.870   6.401
10148WAT      O32025   2.727   3.273   6.118
10148WAT     H132026   2.681   3.196   6.150
10148WAT     H232027   2.809   3.275   6.168
10149WAT      O32028   1.725   3.267   6.347
10149WAT     H132029   1.755   3.178   6.329
10149WAT     H232030   1.799   3.322   6.324
10150WAT      O32031   1.568   2.359   5.706
10150WAT     H132032   1.479   2.393   5.696
10150WAT     H232033   1.596   2.339   5.617
10151WAT      O32034   1.364   2.619   6.294
10151WAT     H132035   1.421   2.543   6.294
10151WAT     H232036   1.364   2.649   6.203
10152WAT      O32037   2.350   3.501   6.080
10152WAT     H132038   2.288   3.547   6.023
10152WAT     H232039   2.436   3.517   6.039
10153WAT      O32040   2.269   3.100   6.240
10153WAT     H132041   2.263   3.006   6.224
10153WAT     H232042   2.346   3.109   6.297
10154WAT      O32043   1.489   2.160   6.473
10154WAT     H132044   1.471   2.070   6.501
10154WAT     H232045   1.448   2.215   6.540
10155WAT      O32046   2.373   2.380   6.263
10155WAT     H132047   2.410   2.293   6.252
10155WAT     H232048   2.363   2.414   6.174
10156WAT      O32049   1.786   2.218   5.809
10156WAT     H132050   1.796   2.308   5.840
10156WAT     H232051   1.695   2.213   5.780
10157WAT      O32052   2.751   2.130   5.956
10157WAT     H132053   2.833   2.081   5.960
10157WAT     H232054   2.754   2.189   6.032
10158WAT      O32055   1.550   2.410   6.334
10158WAT     H132056   1.619   2.436   6.396
10158WAT     H232057   1.519   2.326   6.367
10159WAT      O32058   1.970   2.514   6.242
10159WAT     H132059   2.020   2.564   6.306
10159WAT     H232060   2.023   2.437   6.225
10160WAT      O32061   2.437   2.990   5.819
10160WAT     H132062   2.375   3.036   5.763
10160WAT     H232063   2.488   3.059   5.861
10161WAT      O32064   1.923   2.942   6.487
10161WAT     H132065   1.890   3.005   6.551
10161WAT     H232066   1.941   2.995   6.409
10162WAT      O32067   2.774   2.324   6.234
10162WAT     H132068   2.704   2.353   6.292
10162WAT     H232069   2.811   2.405   6.198
10163WAT      O32070   1.766   2.150   6.470
10163WAT     H132071   1.800   2.234   6.440
10163WAT     H232072   1.672   2.164   6.481
10164WAT      O32073   1.374   3.058   5.556
10164WAT     H132074   1.336   3.107   5.483
10164WAT     H232075   1.399   3.125   5.619
10165WAT      O32076   2.936   3.286   6.460
10165WAT     H132077   2.868   3.353   6.459
10165WAT     H232078   2.990   3.305   6.383
10166WAT      O32079   3.081   2.268   6.273
10166WAT     H132080   2.987   2.272   6.286
10166WAT     H232081   3.114   2.350   6.311
10167WAT      O32082   2.134   1.898   6.102
10167WAT     H132083   2.165   1.843   6.031
10167WAT     H232084   2.041   1.912   6.084
10168WAT      O32085   2.690   3.470   6.331
10168WAT     H132086   2.691   3.430   6.244
10168WAT     H232087   2.634   3.548   6.321
10169WAT      O32088   2.819   3.142   5.840
10169WAT     H132089   2.808   3.048   5.853
10169WAT     H232090   2.819   3.178   5.929
10170WAT      O32091   2.629   2.960   6.464
10170WAT     H132092   2.671   2.939   6.381
10170WAT     H232093   2.702   2.986   6.521
10171WAT      O32094   2.373   2.705   5.776
10171WAT     H132095   2.281   2.698   5.799
10171WAT     H232096   2.389   2.799   5.764
10172WAT      O32097   2.372   2.332   5.475
10172WAT     H132098   2.278   2.348   5.484
10172WAT     H232099   2.404   2.404   5.421
10173WAT      O32100   3.024   2.800   6.473
10173WAT     H132101   2.941   2.807   6.426
10173WAT     H232102   3.084   2.859   6.426
10174WAT      O32103   2.776   2.861   5.826
10174WAT     H132104   2.714   2.827   5.761
10174WAT     H232105   2.774   2.797   5.897
10175WAT      O32106   2.720   2.479   6.568
10175WAT     H132107   2.679   2.561   6.593
10175WAT     H232108   2.647   2.420   6.549
10176WAT      O32109   1.934   2.758   6.054
10176WAT     H132110   1.893   2.686   6.004
10176WAT     H232111   1.942   2.723   6.143
10177WAT      O32112   1.981   3.126   6.270
10177WAT     H132113   1.951   3.066   6.202
10177WAT     H232114   2.076   3.130   6.259
10178WAT      O32115   1.805   2.435   6.432
10178WAT     H132116   1.860   2.446   6.354
10178WAT     H232117   1.857   2.472   6.504
10179WAT      O32118   2.789   3.484   6.637
10179WAT     H132119   2.742   3.564   6.617
10179WAT     H232120   2.721   3.418   6.652
10180WAT      O32121   2.594   2.785   5.527
10180WAT     H132122   2.638   2.701   5.512
10180WAT     H232123   2.665   2.848   5.535
10181WAT      O32124   2.405   3.279   5.924
10181WAT     H132125   2.449   3.353   5.882
10181WAT     H232126   2.399   3.303   6.016
10182WAT      O32127   1.604   2.647   5.804
10182WAT     H132128   1.592   2.720   5.743
10182WAT     H232129   1.573   2.570   5.756
10183WAT      O32130   1.368   2.964   6.385
10183WAT     H132131   1.376   2.978   6.290
10183WAT     H232132   1.429   2.893   6.404
10184WAT      O32133   1.492   3.134   6.026
10184WAT     H132134   1.451   3.148   5.940
10184WAT     H232135   1.581   3.106   6.005
10185WAT      O32136   2.672   3.578   5.659
10185WAT     H132137   2.656   3.549   5.749
10185WAT     H232138   2.655   3.500   5.606
10186WAT      O32139   1.919   3.556   5.837
10186WAT     H132140   1.902   3.464   5.816
10186WAT     H232141   1.834   3.591   5.861
10187WAT      O32142   2.642   3.328   5.515
10187WAT     H132143   2.572   3.328   5.449
10187WAT     H232144   2.716   3.286   5.472
10188WAT      O32145   2.598   3.491   5.923
10188WAT     H132146   2.644   3.413   5.954
10188WAT     H232147   2.632   3.562   5.977
10189WAT      O32148   1.851   1.981   6.142
10189WAT     H132149   1.806   2.059   6.109
10189WAT     H232150   1.906   2.014   6.213
10190WAT      O32151   2.162   1.943   5.630
10190WAT     H132152   2.100   1.943   5.703
10190WAT     H232153   2.153   1.857   5.591
10191WAT      O32154   2.054   2.036   6.328
10191WAT     H132155   2.084   2.126   6.320
10191WAT     H232156   2.109   1.987   6.267
10192WAT      O32157   1.830   2.494   5.915
10192WAT     H132158   1.807   2.472   6.006
10192WAT     H232159   1.752   2.537   5.881
10193WAT      O32160   2.553   2.494   5.775
10193WAT     H132161   2.493   2.567   5.757
10193WAT     H232162   2.607   2.488   5.697
10194WAT      O32163   2.413   2.358   5.978
10194WAT     H132164   2.453   2.390   5.897
10194WAT     H232165   2.449   2.270   5.989
10195WAT      O32166   1.317   2.017   6.200
10195WAT     H132167   1.288   2.074   6.272
10195WAT     H232168   1.391   1.969   6.237
10196WAT      O32169   1.336   2.411   5.321
10196WAT     H132170   1.327   2.505   5.336
10196WAT     H232171   1.300   2.397   5.233
10197WAT      O32172   2.472   2.617   6.388
10197WAT     H132173   2.399   2.668   6.422
10197WAT     H232174   2.432   2.535   6.357
10198WAT      O32175   2.116   2.285   6.228
10198WAT     H132176   2.116   2.240   6.143
10198WAT     H232177   2.205   2.317   6.239
10199WAT      O32178   1.701   2.273   6.124
10199WAT     H132179   1.667   2.321   6.200
10199WAT     H232180   1.624   2.227   6.088
10200WAT      O32181   2.122   2.385   5.527
10200WAT     H132182   2.134   2.381   5.622
10200WAT     H232183   2.083   2.471   5.512
10201WAT      O32184   2.518   2.162   6.329
10201WAT     H132185   2.520   2.207   6.413
10201WAT     H232186   2.493   2.072   6.350
10202WAT      O32187   2.023   2.616   5.467
10202WAT     H132188   1.966   2.571   5.404
10202WAT     H232189   2.094   2.652   5.414
10203WAT      O32190   2.146   2.691   6.403
10203WAT     H132191   2.182   2.643   6.477
10203WAT     H232192   2.127   2.778   6.437
10204WAT      O32193   1.432   2.165   6.016
10204WAT     H132194   1.404   2.129   6.099
10204WAT     H232195   1.426   2.092   5.954
10205WAT      O32196   1.777   3.015   5.694
10205WAT     H132197   1.700   2.961   5.678
10205WAT     H232198   1.850   2.963   5.660
10206WAT      O32199   2.853   2.915   6.273
10206WAT     H132200   2.925   2.964   6.234
10206WAT     H232201   2.833   2.847   6.209
10207WAT      O32202   2.399   2.054   5.688
10207WAT     H132203   2.318   2.004   5.680
10207WAT     H232204   2.380   2.138   5.646
10208WAT      O32205   2.671   2.491   5.517
10208WAT     H132206   2.760   2.523   5.500
10208WAT     H232207   2.668   2.404   5.478
10209WAT      O32208   1.782   2.982   6.058
10209WAT     H132209   1.834   2.902   6.053
10209WAT     H232210   1.737   2.976   6.142
10210WAT      O32211   2.271   3.109   5.585
10210WAT     H132212   2.305   3.183   5.536
10210WAT     H232213   2.188   3.140   5.622
10211WAT      O32214   2.898   2.623   5.464
10211WAT     H132215   2.890   2.666   5.379
10211WAT     H232216   2.970   2.669   5.507
10212WAT      O32217   3.001   3.308   5.737
10212WAT     H132218   2.937   3.243   5.764
10212WAT     H232219   2.962   3.349   5.659
10213WAT      O32220   2.559   3.041   6.122
10213WAT     H132221   2.594   2.981   6.056
10213WAT     H232222   2.470   3.008   6.139
10214WAT      O32223   2.167   3.117   5.862
10214WAT     H132224   2.236   3.172   5.901
10214WAT     H232225   2.089   3.171   5.866
10215WAT      O32226   1.381   2.679   5.412
10215WAT     H132227   1.468   2.707   5.440
10215WAT     H232228   1.332   2.760   5.400
10216WAT      O32229   2.098   2.817   5.824
10216WAT     H132230   2.143   2.898   5.846
10216WAT     H232231   2.063   2.786   5.907
10217WAT      O32232   2.328   3.368   6.547
10217WAT     H132233   2.392   3.389   6.614
10217WAT     H232234   2.364   3.292   6.501
10218WAT      O32235   1.688   1.852   5.871
10218WAT     H132236   1.675   1.851   5.966
10218WAT     H232237   1.605   1.886   5.836
10219WAT      O32238   2.455   3.169   6.418
10219WAT     H132239   2.520   3.099   6.430
10219WAT     H232240   2.508   3.247   6.400
10220WAT      O32241   2.840   3.197   5.391
10220WAT     H132242   2.817   3.125   5.450
10220WAT     H232243   2.801   3.172   5.307
10221WAT      O32244   1.418   3.600   5.468
10221WAT     H132245   1.454   3.660   5.403
10221WAT     H232246   1.404   3.654   5.546
10222WAT      O32247   2.798   2.989   5.557
10222WAT     H132248   2.769   3.035   5.636
10222WAT     H232249   2.878   2.943   5.584
10223WAT      O32250   2.020   3.338   5.550
10223WAT     H132251   2.019   3.411   5.488
10223WAT     H232252   1.928   3.313   5.559
10224WAT      O32253   1.580   2.860   5.624
10224WAT     H132254   1.519   2.934   5.625
10224WAT     H232255   1.627   2.869   5.542
10225WAT      O32256   2.537   2.277   6.592
10225WAT     H132257   2.574   2.195   6.625
10225WAT     H232258   2.451   2.283   6.634
10226WAT      O32259   2.874   2.172   5.673
10226WAT     H132260   2.811   2.183   5.601
10226WAT     H232261   2.824   2.194   5.752
10227WAT      O32262   2.318   3.344   5.416
10227WAT     H132263   2.329   3.324   5.323
10227WAT     H232264   2.228   3.319   5.437
10228WAT      O32265   2.071   2.400   5.814
10228WAT     H132266   2.000   2.447   5.859
10228WAT     H232267   2.099   2.334   5.878
10229WAT      O32268   2.474   2.073   5.958
10229WAT     H132269   2.461   2.075   5.864
10229WAT     H232270   2.569   2.078   5.970
10230WAT      O32271   2.183   3.596   5.886
10230WAT     H132272   2.208   3.593   5.793
10230WAT     H232273   2.088   3.584   5.885
10231WAT      O32274   1.891   2.231   5.552
10231WAT     H132275   1.976   2.275   5.545
10231WAT     H232276   1.854   2.262   5.635
10232WAT      O32277   2.783   2.688   6.043
10232WAT     H132278   2.689   2.690   6.061
10232WAT     H232279   2.815   2.610   6.088
10233WAT      O32280   1.781   2.856   5.399
10233WAT     H132281   1.858   2.845   5.456
10233WAT     H232282   1.789   2.787   5.334
10234WAT      O32283   1.650   2.600   5.468
10234WAT     H132284   1.658   2.505   5.479
10234WAT     H232285   1.740   2.633   5.478
10235WAT      O32286   2.983   3.405   6.211
10235WAT     H132287   2.996   3.488   6.258
10235WAT     H232288   3.070   3.384   6.176
10236WAT      O32289   1.731   3.615   6.178
10236WAT     H132290   1.804   3.560   6.205
10236WAT     H232291   1.769   3.701   6.164
10237WAT      O32292   1.419   3.221   5.765
10237WAT     H132293   1.326   3.246   5.764
10237WAT     H232294   1.466   3.304   5.753
10238WAT      O32295   2.042   3.532   5.360
10238WAT     H132296   2.121   3.561   5.315
10238WAT     H232297   1.990   3.489   5.292
10239WAT      O32298   2.947   3.455   5.503
10239WAT     H132299   2.918   3.413   5.421
10239WAT     H232300   2.927   3.547   5.491
10240WAT      O32301   2.093   3.054   5.347
10240WAT     H132302   2.083   2.992   5.419
10240WAT     H232303   2.077   3.002   5.268
10241WAT      O32304   2.417   2.960   5.407
10241WAT     H132305   2.362   3.005   5.472
10241WAT     H232306   2.480   2.910   5.459
10242WAT      O32307   1.984   2.856   5.597
10242WAT     H132308   2.026   2.839   5.681
10242WAT     H232309   1.997   2.775   5.547
10243WAT      O32310   2.235   2.758   5.322
10243WAT     H132311   2.287   2.687   5.285
10243WAT     H232312   2.300   2.822   5.352
10244WAT      O32313   2.126   2.006   6.589
10244WAT     H132314   2.081   2.009   6.504
10244WAT     H232315   2.062   1.967   6.648
10245WAT      O32316   2.166   2.896   6.651
10245WAT     H132317   2.208   2.980   6.634
10245WAT     H232318   2.074   2.910   6.628
10246WAT      O32319   1.874   2.463   5.291
10246WAT     H132320   1.854   2.377   5.327
10246WAT     H232321   1.857   2.455   5.198
10247WAT      O32322   2.622   1.944   5.544
10247WAT     H132323   2.650   1.860   5.580
10247WAT     H232324   2.544   1.968   5.596
10248WAT      O32325   1.754   2.173   5.290
10248WAT     H132326   1.784   2.174   5.199
10248WAT     H232327   1.827   2.138   5.340
10249WAT      O32328   2.075   2.068   5.389
10249WAT     H132329   2.041   2.000   5.331
10249WAT     H232330   2.095   2.022   5.470
10250WAT      O32331   2.292   3.567   5.551
10250WAT     H132332   2.381   3.600   5.553
10250WAT     H232333   2.295   3.494   5.488
10251WAT      O32334   1.656   3.104   5.373
10251WAT     H132335   1.700   3.158   5.439
10251WAT     H232336   1.704   3.021   5.374
10252WAT      O32337   1.377   3.383   6.119
10252WAT     H132338   1.410   3.296   6.095
10252WAT     H232339   1.420   3.403   6.202
10253WAT      O32340   1.837   3.216   5.885
10253WAT     H132341   1.807   3.203   5.975
10253WAT     H232342   1.826   3.130   5.844
10254WAT      O32343   1.426   3.469   6.392
10254WAT     H132344   1.382   3.487   6.476
10254WAT     H232345   1.483   3.545   6.378
10255WAT      O32346   3.114   3.194   5.355
10255WAT     H132347   3.031   3.201   5.402
10255WAT     H232348   3.132   3.283   5.325
10256WAT      O32349   3.059   2.868   5.605
10256WAT     H132350   3.136   2.925   5.616
10256WAT     H232351   3.061   2.812   5.682
10257WAT      O32352   1.409   2.721   6.028
10257WAT     H132353   1.344   2.694   5.964
10257WAT     H232354   1.493   2.710   5.983
10258WAT      O32355   3.160   2.954   6.090
10258WAT     H132356   3.197   2.875   6.049
10258WAT     H232357   3.224   3.023   6.072
10259WAT      O32358   3.065   2.898   5.321
10259WAT     H132359   3.092   2.988   5.308
10259WAT     H232360   3.046   2.891   5.415
10260WAT      O32361   2.704   2.200   5.450
10260WAT     H132362   2.746   2.181   5.366
10260WAT     H232363   2.674   2.115   5.482
10261WAT      O32364   3.054   2.691   5.820
10261WAT     H132365   3.017   2.615   5.777
10261WAT     H232366   2.981   2.730   5.869
10262WAT      O32367   1.513   2.759   6.482
10262WAT     H132368   1.550   2.750   6.570
10262WAT     H232369   1.456   2.683   6.472
10263WAT      O32370   1.331   2.442   5.623
10263WAT     H132371   1.240   2.468   5.605
10263WAT     H232372   1.379   2.469   5.545
10264WAT      O32373   2.982   2.514   6.150
10264WAT     H132374   3.034   2.464   6.087
10264WAT     H232375   3.040   2.527   6.225
10265WAT      O32376   3.000   2.522   6.503
10265WAT     H132377   2.905   2.519   6.514
10265WAT     H232378   3.018   2.613   6.479
10266WAT      O32379   1.585   2.347   5.414
10266WAT     H132380   1.656   2.305   5.365
10266WAT     H232381   1.513   2.354   5.350
10267WAT      O32382   1.550   1.953   5.318
10267WAT     H132383   1.622   2.007   5.349
10267WAT     H232384   1.577   1.925   5.230
10268WAT      O32385   2.931   2.440   5.744
10268WAT     H132386   2.980   2.416   5.823
10268WAT     H232387   2.911   2.356   5.703
10269WAT      O32388   1.519   1.878   6.308
10269WAT     H132389   1.584   1.823   6.264
10269WAT     H232390   1.561   1.903   6.390
10270WAT      O32391   3.074   2.303   5.998
10270WAT     H132392   3.063   2.288   6.091
10270WAT     H232393   3.150   2.250   5.973
10271WAT      O32394   3.163   2.086   5.322
10271WAT     H132395   3.255   2.073   5.301
10271WAT     H232396   3.160   2.094   5.417
10272WAT      O32397   3.170   2.163   5.584
10272WAT     H132398   3.090   2.157   5.637
10272WAT     H232399   3.190   2.257   5.583
10273WAT      O32400   2.864   3.567   5.984
10273WAT     H132401   2.924   3.535   5.916
10273WAT     H232402   2.890   3.520   6.063
10274WAT      O32403   2.025   3.366   6.559
10274WAT     H132404   2.001   3.393   6.470
10274WAT     H232405   2.119   3.383   6.564
10275WAT      O32406   2.583   1.834   6.531
10275WAT     H132407   2.496   1.868   6.511
10275WAT     H232408   2.572   1.787   6.613
10276WAT      O32409   2.919   3.632   6.367
10276WAT     H132410   2.873   3.707   6.329
10276WAT     H232411   2.856   3.560   6.361
10277WAT      O32412   1.602   3.242   6.606
10277WAT     H132413   1.529   3.180   6.599
10277WAT     H232414   1.608   3.281   6.519
10278WAT      O32415   1.962   3.463   6.284
10278WAT     H132416   2.014   3.402   6.232
10278WAT     H232417   2.027   3.513   6.333
10279WAT      O32418   2.236   3.552   6.367
10279WAT     H132419   2.265   3.527   6.279
10279WAT     H232420   2.287   3.497   6.426
10280WAT      O32421   2.358   1.926   6.425
10280WAT     H132422   2.280   1.974   6.453
10280WAT     H232423   2.329   1.836   6.414
10281WAT      O32424   2.813   1.996   6.229
10281WAT     H132425   2.857   1.991   6.144
10281WAT     H232426   2.786   2.088   6.236
10282WAT      O32427   2.999   1.959   6.030
10282WAT     H132428   2.993   1.865   6.016
10282WAT     H232429   3.077   1.970   6.085
10283WAT      O32430   1.430   3.573   5.927
10283WAT     H132431   1.413   3.510   5.996
10283WAT     H232432   1.343   3.594   5.892
10284WAT      O32433   1.492   1.957   5.677
10284WAT     H132434   1.568   1.968   5.620
10284WAT     H232435   1.446   2.040   5.672
10285WAT      O32436   2.146   2.168   5.976
10285WAT     H132437   2.065   2.131   5.942
10285WAT     H232438   2.197   2.092   6.006
10286WAT      O32439   2.597   1.834   6.100
10286WAT     H132440   2.657   1.892   6.147
10286WAT     H232441   2.523   1.891   6.077
10287WAT      O32442   2.911   1.875   5.627
10287WAT     H132443   2.931   1.964   5.654
10287WAT     H232444   2.832   1.851   5.676
10288WAT      O32445   1.591   3.443   5.671
10288WAT     H132446   1.538   3.481   5.601
10288WAT     H232447   1.583   3.505   5.743
10289WAT      O32448   1.730   2.009   5.531
10289WAT     H132449   1.782   1.931   5.518
10289WAT     H232450   1.793   2.077   5.554
10290WAT      O32451   1.949   1.983   5.836
10290WAT     H132452   1.886   1.913   5.853
10290WAT     H232453   1.895   2.059   5.815
10291WAT      O32454   3.066   3.599   5.803
10291WAT     H132455   3.084   3.530   5.739
10291WAT     H232456   2.997   3.651   5.764
10292WAT      O32457   1.851   3.638   5.559
10292WAT     H132458   1.924   3.609   5.504
10292WAT     H232459   1.876   3.614   5.648
10293WAT      O32460   1.767   3.249   5.559
10293WAT     H132461   1.704   3.296   5.614
10293WAT     H232462   1.778   3.165   5.602
10294WAT      O32463   1.727   2.863   4.450
10294WAT     H132464   1.644   2.838   4.490
10294WAT     H232465   1.788   2.870   4.523
10295WAT      O32466   1.725   3.267   4.469
10295WAT     H132467   1.755   3.178   4.452
10295WAT     H232468   1.799   3.322   4.447
10296WAT      O32469   1.568   2.359   3.828
10296WAT     H132470   1.479   2.393   3.818
10296WAT     H232471   1.596   2.339   3.739
10297WAT      O32472   1.364   2.619   4.417
10297WAT     H132473   1.421   2.543   4.417
10297WAT     H232474   1.364   2.649   4.326
10298WAT      O32475   2.350   3.501   4.202
10298WAT     H132476   2.288   3.547   4.145
10298WAT     H232477   2.436   3.517   4.162
10299WAT      O32478   2.269   3.100   4.363
10299WAT     H132479   2.263   3.006   4.347
10299WAT     H232480   2.346   3.109   4.420
10300WAT      O32481   1.489   2.160   4.595
10300WAT     H132482   1.471   2.070   4.623
10300WAT     H232483   1.448   2.215   4.663
10301WAT      O32484   1.786   2.218   3.932
10301WAT     H132485   1.796   2.308   3.962
10301WAT     H232486   1.695   2.213   3.903
10302WAT      O32487   1.550   2.410   4.456
10302WAT     H132488   1.619   2.436   4.518
10302WAT     H232489   1.519   2.326   4.490
10303WAT      O32490   1.970   2.514   4.365
10303WAT     H132491   2.020   2.564   4.429
10303WAT     H232492   2.023   2.437   4.347
10304WAT      O32493   1.923   2.942   4.609
10304WAT     H132494   1.890   3.005   4.674
10304WAT     H232495   1.941   2.995   4.531
10305WAT      O32496   1.844   3.139   4.791
10305WAT     H132497   1.906   3.207   4.763
10305WAT     H232498   1.758   3.180   4.782
10306WAT      O32499   1.374   3.058   3.679
10306WAT     H132500   1.336   3.107   3.606
10306WAT     H232501   1.399   3.125   3.742
10307WAT      O32502   2.690   3.470   4.454
10307WAT     H132503   2.691   3.430   4.367
10307WAT     H232504   2.634   3.548   4.443
10308WAT      O32505   2.372   2.332   3.598
10308WAT     H132506   2.278   2.348   3.607
10308WAT     H232507   2.404   2.404   3.543
10309WAT      O32508   1.981   3.126   4.393
10309WAT     H132509   1.951   3.066   4.325
10309WAT     H232510   2.076   3.130   4.382
10310WAT      O32511   1.805   2.435   4.555
10310WAT     H132512   1.860   2.446   4.477
10310WAT     H232513   1.857   2.472   4.626
10311WAT      O32514   2.789   3.484   4.759
10311WAT     H132515   2.742   3.564   4.740
10311WAT     H232516   2.721   3.418   4.774
10312WAT      O32517   1.890   3.100   5.058
10312WAT     H132518   1.800   3.122   5.083
10312WAT     H232519   1.892   3.112   4.963
10313WAT      O32520   1.773   2.787   4.916
10313WAT     H132521   1.759   2.874   4.952
10313WAT     H232522   1.684   2.753   4.901
10314WAT      O32523   2.405   3.279   4.046
10314WAT     H132524   2.449   3.353   4.005
10314WAT     H232525   2.399   3.303   4.139
10315WAT      O32526   1.952   3.381   5.136
10315WAT     H132527   1.949   3.422   5.050
10315WAT     H232528   1.936   3.288   5.120
10316WAT      O32529   2.952   1.910   3.481
10316WAT     H132530   2.921   1.920   3.571
10316WAT     H232531   3.028   1.968   3.476
10317WAT      O32532   1.604   2.647   3.927
10317WAT     H132533   1.592   2.720   3.865
10317WAT     H232534   1.573   2.570   3.879
10318WAT      O32535   3.147   3.460   5.266
10318WAT     H132536   3.195   3.507   5.334
10318WAT     H232537   3.210   3.453   5.194
10319WAT      O32538   1.368   2.964   4.507
10319WAT     H132539   1.376   2.978   4.413
10319WAT     H232540   1.429   2.893   4.527
10320WAT      O32541   1.492   3.134   4.148
10320WAT     H132542   1.451   3.148   4.063
10320WAT     H232543   1.581   3.106   4.128
10321WAT      O32544   2.474   3.549   4.839
10321WAT     H132545   2.525   3.540   4.919
10321WAT     H232546   2.390   3.584   4.868
10322WAT      O32547   2.672   3.578   3.782
10322WAT     H132548   2.656   3.549   3.872
10322WAT     H232549   2.655   3.500   3.728
10323WAT      O32550   1.919   3.556   3.960
10323WAT     H132551   1.902   3.464   3.938
10323WAT     H232552   1.834   3.591   3.984
10324WAT      O32553   2.642   3.328   3.638
10324WAT     H132554   2.572   3.328   3.572
10324WAT     H232555   2.716   3.286   3.595
10325WAT      O32556   2.598   3.491   4.045
10325WAT     H132557   2.644   3.413   4.077
10325WAT     H232558   2.632   3.562   4.100
10326WAT      O32559   3.073   2.384   5.079
10326WAT     H132560   3.012   2.435   5.026
10326WAT     H232561   3.041   2.294   5.073
10327WAT      O32562   1.373   3.068   4.761
10327WAT     H132563   1.390   3.021   4.679
10327WAT     H232564   1.420   3.017   4.828
10328WAT      O32565   2.489   2.540   5.148
10328WAT     H132566   2.521   2.457   5.114
10328WAT     H232567   2.568   2.592   5.163
10329WAT      O32568   2.162   1.943   3.753
10329WAT     H132569   2.100   1.943   3.825
10329WAT     H232570   2.153   1.857   3.713
10330WAT      O32571   1.830   2.494   4.038
10330WAT     H132572   1.807   2.472   4.128
10330WAT     H232573   1.752   2.537   4.003
10331WAT      O32574   2.074   2.584   5.104
10331WAT     H132575   2.064   2.489   5.089
10331WAT     H232576   2.158   2.606   5.065
10332WAT      O32577   1.587   2.225   4.920
10332WAT     H132578   1.547   2.309   4.940
10332WAT     H232579   1.518   2.161   4.939
10333WAT      O32580   2.244   2.233   5.227
10333WAT     H132581   2.175   2.214   5.290
10333WAT     H232582   2.319   2.261   5.280
10334WAT      O32583   1.317   2.017   4.323
10334WAT     H132584   1.288   2.074   4.394
10334WAT     H232585   1.391   1.969   4.359
10335WAT      O32586   1.336   2.411   3.444
10335WAT     H132587   1.327   2.505   3.458
10335WAT     H232588   1.300   2.397   3.356
10336WAT      O32589   2.122   2.385   3.650
10336WAT     H132590   2.134   2.381   3.745
10336WAT     H232591   2.083   2.471   3.634
10337WAT      O32592   2.023   2.616   3.590
10337WAT     H132593   1.966   2.571   3.527
10337WAT     H232594   2.094   2.652   3.536
10338WAT      O32595   1.531   3.006   4.977
10338WAT     H132596   1.492   2.942   5.037
10338WAT     H232597   1.562   3.076   5.034
10339WAT      O32598   2.146   2.691   4.525
10339WAT     H132599   2.182   2.643   4.600
10339WAT     H232600   2.127   2.778   4.559
10340WAT      O32601   1.432   2.165   4.138
10340WAT     H132602   1.404   2.129   4.222
10340WAT     H232603   1.426   2.092   4.077
10341WAT      O32604   1.925   2.595   4.757
10341WAT     H132605   1.894   2.683   4.780
10341WAT     H232606   2.020   2.601   4.761
10342WAT      O32607   1.777   3.015   3.817
10342WAT     H132608   1.700   2.961   3.801
10342WAT     H232609   1.850   2.963   3.783
10343WAT      O32610   2.392   2.922   4.985
10343WAT     H132611   2.385   2.830   4.959
10343WAT     H232612   2.329   2.932   5.056
10344WAT      O32613   1.782   2.982   4.181
10344WAT     H132614   1.834   2.902   4.175
10344WAT     H232615   1.737   2.976   4.265
10345WAT      O32616   2.271   3.109   3.708
10345WAT     H132617   2.305   3.183   3.658
10345WAT     H232618   2.188   3.140   3.744
10346WAT      O32619   1.530   2.679   4.872
10346WAT     H132620   1.494   2.745   4.931
10346WAT     H232621   1.501   2.595   4.909
10347WAT      O32622   1.850   2.724   5.160
10347WAT     H132623   1.820   2.739   5.071
10347WAT     H232624   1.928   2.669   5.151
10348WAT      O32625   2.385   3.204   4.960
10348WAT     H132626   2.386   3.111   4.938
10348WAT     H232627   2.314   3.213   5.024
10349WAT      O32628   2.559   3.041   4.244
10349WAT     H132629   2.594   2.981   4.178
10349WAT     H232630   2.470   3.008   4.261
10350WAT      O32631   2.167   3.117   3.985
10350WAT     H132632   2.236   3.172   4.023
10350WAT     H232633   2.089   3.171   3.989
10351WAT      O32634   1.381   2.679   3.534
10351WAT     H132635   1.468   2.707   3.563
10351WAT     H232636   1.332   2.760   3.523
10352WAT      O32637   2.328   3.368   4.669
10352WAT     H132638   2.392   3.389   4.737
10352WAT     H232639   2.364   3.292   4.624
10353WAT      O32640   1.688   1.852   3.993
10353WAT     H132641   1.675   1.851   4.088
10353WAT     H232642   1.605   1.886   3.958
10354WAT      O32643   2.455   3.169   4.541
10354WAT     H132644   2.520   3.099   4.552
10354WAT     H232645   2.508   3.247   4.523
10355WAT      O32646   2.840   3.197   3.513
10355WAT     H132647   2.817   3.125   3.573
10355WAT     H232648   2.801   3.172   3.430
10356WAT      O32649   2.633   3.249   4.861
10356WAT     H132650   2.666   3.307   4.929
10356WAT     H232651   2.541   3.236   4.884
10357WAT      O32652   1.418   3.600   3.591
10357WAT     H132653   1.454   3.660   3.525
10357WAT     H232654   1.404   3.654   3.668
10358WAT      O32655   1.388   2.028   4.940
10358WAT     H132656   1.316   2.048   5.000
10358WAT     H232657   1.430   1.950   4.977
10359WAT      O32658   1.417   3.426   5.038
10359WAT     H132659   1.427   3.332   5.024
10359WAT     H232660   1.351   3.453   4.973
10360WAT      O32661   2.216   3.254   5.178
10360WAT     H132662   2.184   3.182   5.233
10360WAT     H232663   2.148   3.321   5.186
10361WAT      O32664   2.020   3.338   3.673
10361WAT     H132665   2.019   3.411   3.611
10361WAT     H232666   1.928   3.313   3.682
10362WAT      O32667   1.580   2.860   3.747
10362WAT     H132668   1.519   2.934   3.748
10362WAT     H232669   1.627   2.869   3.664
10363WAT      O32670   2.318   3.344   3.539
10363WAT     H132671   2.329   3.324   3.446
10363WAT     H232672   2.228   3.319   3.559
10364WAT      O32673   2.071   2.400   3.937
10364WAT     H132674   2.000   2.447   3.981
10364WAT     H232675   2.099   2.334   4.000
10365WAT      O32676   2.233   2.542   4.737
10365WAT     H132677   2.283   2.590   4.803
10365WAT     H232678   2.247   2.450   4.758
10366WAT      O32679   2.183   3.596   4.008
10366WAT     H132680   2.208   3.593   3.916
10366WAT     H232681   2.088   3.584   4.008
10367WAT      O32682   1.891   2.231   3.675
10367WAT     H132683   1.976   2.275   3.668
10367WAT     H232684   1.854   2.262   3.757
10368WAT      O32685   1.781   2.856   3.522
10368WAT     H132686   1.858   2.845   3.578
10368WAT     H232687   1.789   2.787   3.457
10369WAT      O32688   1.650   2.600   3.590
10369WAT     H132689   1.658   2.505   3.601
10369WAT     H232690   1.740   2.633   3.601
10370WAT      O32691   1.731   3.615   4.301
10370WAT     H132692   1.804   3.560   4.328
10370WAT     H232693   1.769   3.701   4.287
10371WAT      O32694   1.419   3.221   3.888
10371WAT     H132695   1.326   3.246   3.887
10371WAT     H232696   1.466   3.304   3.876
10372WAT      O32697   1.631   3.533   5.219
10372WAT     H132698   1.711   3.565   5.261
10372WAT     H232699   1.580   3.497   5.292
10373WAT      O32700   2.042   3.532   3.483
10373WAT     H132701   2.121   3.561   3.438
10373WAT     H232702   1.990   3.489   3.415
10374WAT      O32703   2.515   3.144   5.214
10374WAT     H132704   2.454   3.146   5.140
10374WAT     H232705   2.484   3.071   5.268
10375WAT      O32706   2.658   3.517   5.075
10375WAT     H132707   2.753   3.508   5.070
10375WAT     H232708   2.643   3.583   5.143
10376WAT      O32709   1.403   2.782   5.114
10376WAT     H132710   1.453   2.724   5.171
10376WAT     H232711   1.329   2.810   5.168
10377WAT      O32712   2.093   3.054   3.469
10377WAT     H132713   2.083   2.992   3.542
10377WAT     H232714   2.077   3.002   3.391
10378WAT      O32715   2.108   2.923   5.067
10378WAT     H132716   2.032   2.979   5.059
10378WAT     H232717   2.127   2.893   4.978
10379WAT      O32718   2.417   2.960   3.530
10379WAT     H132719   2.362   3.005   3.594
10379WAT     H232720   2.480   2.910   3.582
10380WAT      O32721   2.823   3.096   5.123
10380WAT     H132722   2.897   3.129   5.073
10380WAT     H232723   2.746   3.112   5.068
10381WAT      O32724   1.606   2.596   5.203
10381WAT     H132725   1.610   2.566   5.294
10381WAT     H232726   1.692   2.636   5.187
10382WAT      O32727   1.984   2.856   3.719
10382WAT     H132728   2.026   2.839   3.804
10382WAT     H232729   1.997   2.775   3.670
10383WAT      O32730   1.800   2.454   5.000
10383WAT     H132731   1.747   2.405   4.937
10383WAT     H232732   1.867   2.497   4.947
10384WAT      O32733   2.235   2.758   3.444
10384WAT     H132734   2.287   2.687   3.407
10384WAT     H232735   2.300   2.822   3.474
10385WAT      O32736   2.690   2.901   4.976
10385WAT     H132737   2.732   2.916   5.061
10385WAT     H232738   2.597   2.913   4.993
10386WAT      O32739   2.737   2.635   5.177
10386WAT     H132740   2.796   2.559   5.168
10386WAT     H232741   2.755   2.688   5.099
10387WAT      O32742   1.849   2.151   5.008
10387WAT     H132743   1.840   2.089   4.936
10387WAT     H232744   1.791   2.223   4.985
10388WAT      O32745   2.166   2.896   4.773
10388WAT     H132746   2.208   2.980   4.756
10388WAT     H232747   2.074   2.910   4.750
10389WAT      O32748   2.400   2.669   4.912
10389WAT     H132749   2.412   2.609   4.986
10389WAT     H232750   2.486   2.673   4.870
10390WAT      O32751   1.874   2.463   3.414
10390WAT     H132752   1.854   2.377   3.450
10390WAT     H232753   1.857   2.455   3.320
10391WAT      O32754   1.951   3.526   4.885
10391WAT     H132755   1.898   3.599   4.853
10391WAT     H232756   1.977   3.479   4.806
10392WAT      O32757   2.077   2.323   5.038
10392WAT     H132758   2.136   2.292   5.106
10392WAT     H232759   1.995   2.276   5.053
10393WAT      O32760   2.622   1.944   3.667
10393WAT     H132761   2.650   1.860   3.702
10393WAT     H232762   2.544   1.968   3.718
10394WAT      O32763   1.754   2.173   3.413
10394WAT     H132764   1.784   2.174   3.322
10394WAT     H232765   1.827   2.138   3.462
10395WAT      O32766   2.237   3.650   4.911
10395WAT     H132767   2.230   3.740   4.942
10395WAT     H232768   2.147   3.618   4.908
10396WAT      O32769   2.075   2.068   3.511
10396WAT     H132770   2.041   2.000   3.453
10396WAT     H232771   2.095   2.022   3.593
10397WAT      O32772   2.292   3.567   3.673
10397WAT     H132773   2.381   3.600   3.675
10397WAT     H232774   2.295   3.494   3.610
10398WAT      O32775   1.656   3.104   3.496
10398WAT     H132776   1.700   3.158   3.562
10398WAT     H232777   1.704   3.021   3.497
10399WAT      O32778   1.377   3.383   4.241
10399WAT     H132779   1.410   3.296   4.218
10399WAT     H232780   1.420   3.403   4.324
10400WAT      O32781   1.837   3.216   4.007
10400WAT     H132782   1.807   3.203   4.097
10400WAT     H232783   1.826   3.130   3.966
10401WAT      O32784   1.426   3.469   4.515
10401WAT     H132785   1.382   3.487   4.598
10401WAT     H232786   1.483   3.545   4.501
10402WAT      O32787   2.990   3.420   4.944
10402WAT     H132788   2.930   3.426   4.869
10402WAT     H232789   3.003   3.326   4.957
10403WAT      O32790   1.409   2.721   4.151
10403WAT     H132791   1.344   2.694   4.086
10403WAT     H232792   1.493   2.710   4.106
10404WAT      O32793   2.704   2.200   3.573
10404WAT     H132794   2.746   2.181   3.489
10404WAT     H232795   2.674   2.115   3.604
10405WAT      O32796   1.513   2.759   4.605
10405WAT     H132797   1.550   2.750   4.693
10405WAT     H232798   1.456   2.683   4.595
10406WAT      O32799   1.468   2.450   4.995
10406WAT     H132800   1.379   2.447   5.029
10406WAT     H232801   1.522   2.470   5.072
10407WAT      O32802   1.331   2.442   3.745
10407WAT     H132803   1.240   2.468   3.728
10407WAT     H232804   1.379   2.469   3.667
10408WAT      O32805   1.585   2.347   3.536
10408WAT     H132806   1.656   2.305   3.488
10408WAT     H232807   1.513   2.354   3.473
10409WAT      O32808   1.550   1.953   3.440
10409WAT     H132809   1.622   2.007   3.472
10409WAT     H232810   1.577   1.925   3.353
10410WAT      O32811   1.519   1.878   4.430
10410WAT     H132812   1.584   1.823   4.386
10410WAT     H232813   1.561   1.903   4.512
10411WAT      O32814   3.163   2.086   3.444
10411WAT     H132815   3.255   2.073   3.423
10411WAT     H232816   3.160   2.094   3.540
10412WAT      O32817   3.170   2.163   3.707
10412WAT     H132818   3.090   2.157   3.760
10412WAT     H232819   3.190   2.257   3.706
10413WAT      O32820   1.494   1.893   4.705
10413WAT     H132821   1.459   1.939   4.781
10413WAT     H232822   1.461   1.804   4.713
10414WAT      O32823   1.655   3.210   5.121
10414WAT     H132824   1.650   3.173   5.209
10414WAT     H232825   1.668   3.304   5.135
10415WAT      O32826   2.025   3.366   4.681
10415WAT     H132827   2.001   3.393   4.593
10415WAT     H232828   2.119   3.383   4.687
10416WAT      O32829   3.151   3.568   4.761
10416WAT     H132830   3.101   3.608   4.690
10416WAT     H232831   3.090   3.506   4.801
10417WAT      O32832   1.561   1.846   5.032
10417WAT     H132833   1.616   1.828   4.956
10417WAT     H232834   1.568   1.767   5.086
10418WAT      O32835   1.639   3.505   4.833
10418WAT     H132836   1.579   3.492   4.907
10418WAT     H232837   1.638   3.421   4.787
10419WAT      O32838   2.919   3.632   4.489
10419WAT     H132839   2.873   3.707   4.452
10419WAT     H232840   2.856   3.560   4.483
10420WAT      O32841   1.602   3.242   4.728
10420WAT     H132842   1.529   3.180   4.721
10420WAT     H232843   1.608   3.281   4.641
10421WAT      O32844   1.962   3.463   4.407
10421WAT     H132845   2.014   3.402   4.354
10421WAT     H232846   2.027   3.513   4.456
10422WAT      O32847   2.236   3.552   4.489
10422WAT     H132848   2.265   3.527   4.402
10422WAT     H232849   2.287   3.497   4.548
10423WAT      O32850   1.430   3.573   4.049
10423WAT     H132851   1.413   3.510   4.119
10423WAT     H232852   1.343   3.594   4.014
10424WAT      O32853   1.492   1.957   3.799
10424WAT     H132854   1.568   1.968   3.742
10424WAT     H232855   1.446   2.040   3.795
10425WAT      O32856   2.911   1.875   3.750
10425WAT     H132857   2.931   1.964   3.776
10425WAT     H232858   2.832   1.851   3.799
10426WAT      O32859   1.591   3.443   3.794
10426WAT     H132860   1.538   3.481   3.723
10426WAT     H232861   1.583   3.505   3.866
10427WAT      O32862   1.730   2.009   3.653
10427WAT     H132863   1.782   1.931   3.641
10427WAT     H232864   1.793   2.077   3.677
10428WAT      O32865   2.243   3.644   5.226
10428WAT     H132866   2.336   3.621   5.230
10428WAT     H232867   2.241   3.727   5.178
10429WAT      O32868   1.961   1.911   5.202
10429WAT     H132869   1.933   1.961   5.126
10429WAT     H232870   2.000   1.831   5.166
10430WAT      O32871   1.851   3.638   3.681
10430WAT     H132872   1.924   3.609   3.626
10430WAT     H232873   1.876   3.614   3.770
10431WAT      O32874   1.767   3.249   3.682
10431WAT     H132875   1.704   3.296   3.736
10431WAT     H232876   1.778   3.165   3.725
10432WAT      O32877   2.900   3.567   5.208
10432WAT     H132878   2.979   3.518   5.188
10432WAT     H232879   2.929   3.635   5.269
10433WAT      O32880   2.512   2.654   2.297
10433WAT     H132881   2.504   2.563   2.270
10433WAT     H232882   2.471   2.704   2.226
10434WAT      O32883   2.325   2.832   2.485
10434WAT     H132884   2.248   2.784   2.514
10434WAT     H232885   2.391   2.764   2.467
10435WAT      O32886   1.727   2.863   2.572
10435WAT     H132887   1.644   2.838   2.612
10435WAT     H232888   1.788   2.870   2.646
10436WAT      O32889   2.727   3.273   2.363
10436WAT     H132890   2.681   3.196   2.396
10436WAT     H232891   2.809   3.275   2.413
10437WAT      O32892   1.725   3.267   2.592
10437WAT     H132893   1.755   3.178   2.574
10437WAT     H232894   1.799   3.322   2.569
10438WAT      O32895   1.568   2.359   1.951
10438WAT     H132896   1.479   2.393   1.941
10438WAT     H232897   1.596   2.339   1.862
10439WAT      O32898   1.364   2.619   2.539
10439WAT     H132899   1.421   2.543   2.539
10439WAT     H232900   1.364   2.649   2.448
10440WAT      O32901   2.350   3.501   2.325
10440WAT     H132902   2.288   3.547   2.268
10440WAT     H232903   2.436   3.517   2.285
10441WAT      O32904   2.269   3.100   2.485
10441WAT     H132905   2.263   3.006   2.469
10441WAT     H232906   2.346   3.109   2.543
10442WAT      O32907   1.489   2.160   2.718
10442WAT     H132908   1.471   2.070   2.746
10442WAT     H232909   1.448   2.215   2.785
10443WAT      O32910   2.373   2.380   2.508
10443WAT     H132911   2.410   2.293   2.497
10443WAT     H232912   2.363   2.414   2.419
10444WAT      O32913   1.786   2.218   2.054
10444WAT     H132914   1.796   2.308   2.085
10444WAT     H232915   1.695   2.213   2.025
10445WAT      O32916   2.751   2.130   2.201
10445WAT     H132917   2.833   2.081   2.206
10445WAT     H232918   2.754   2.189   2.277
10446WAT      O32919   1.550   2.410   2.579
10446WAT     H132920   1.619   2.436   2.641
10446WAT     H232921   1.519   2.326   2.612
10447WAT      O32922   1.970   2.514   2.488
10447WAT     H132923   2.020   2.564   2.552
10447WAT     H232924   2.023   2.437   2.470
10448WAT      O32925   3.180   2.332   2.858
10448WAT     H132926   3.109   2.370   2.806
10448WAT     H232927   3.206   2.401   2.918
10449WAT      O32928   1.798   1.978   2.914
10449WAT     H132929   1.798   2.030   2.834
10449WAT     H232930   1.715   1.931   2.912
10450WAT      O32931   2.437   2.990   2.064
10450WAT     H132932   2.375   3.036   2.008
10450WAT     H232933   2.488   3.059   2.106
10451WAT      O32934   1.923   2.942   2.732
10451WAT     H132935   1.890   3.005   2.796
10451WAT     H232936   1.941   2.995   2.654
10452WAT      O32937   2.774   2.324   2.479
10452WAT     H132938   2.704   2.353   2.537
10452WAT     H232939   2.811   2.405   2.443
10453WAT      O32940   1.766   2.150   2.715
10453WAT     H132941   1.800   2.234   2.685
10453WAT     H232942   1.672   2.164   2.727
10454WAT      O32943   1.844   3.139   2.913
10454WAT     H132944   1.906   3.207   2.885
10454WAT     H232945   1.758   3.180   2.904
10455WAT      O32946   1.374   3.058   1.801
10455WAT     H132947   1.336   3.107   1.728
10455WAT     H232948   1.399   3.125   1.865
10456WAT      O32949   2.936   3.286   2.705
10456WAT     H132950   2.868   3.353   2.704
10456WAT     H232951   2.990   3.305   2.628
10457WAT      O32952   3.081   2.268   2.518
10457WAT     H132953   2.987   2.272   2.531
10457WAT     H232954   3.114   2.350   2.556
10458WAT      O32955   2.134   1.898   2.347
10458WAT     H132956   2.165   1.843   2.276
10458WAT     H232957   2.041   1.912   2.329
10459WAT      O32958   2.690   3.470   2.576
10459WAT     H132959   2.691   3.430   2.490
10459WAT     H232960   2.634   3.548   2.566
10460WAT      O32961   2.819   3.142   2.085
10460WAT     H132962   2.808   3.048   2.098
10460WAT     H232963   2.819   3.178   2.174
10461WAT      O32964   2.629   2.960   2.709
10461WAT     H132965   2.671   2.939   2.626
10461WAT     H232966   2.702   2.986   2.766
10462WAT      O32967   2.373   2.705   2.021
10462WAT     H132968   2.281   2.698   2.044
10462WAT     H232969   2.389   2.799   2.009
10463WAT      O32970   2.372   2.332   1.721
10463WAT     H132971   2.278   2.348   1.729
10463WAT     H232972   2.404   2.404   1.666
10464WAT      O32973   3.024   2.800   2.718
10464WAT     H132974   2.941   2.807   2.671
10464WAT     H232975   3.084   2.859   2.672
10465WAT      O32976   2.776   2.861   2.071
10465WAT     H132977   2.714   2.827   2.007
10465WAT     H232978   2.774   2.797   2.142
10466WAT      O32979   2.720   2.479   2.813
10466WAT     H132980   2.679   2.561   2.838
10466WAT     H232981   2.647   2.420   2.794
10467WAT      O32982   1.934   2.758   2.299
10467WAT     H132983   1.893   2.686   2.250
10467WAT     H232984   1.942   2.723   2.388
10468WAT      O32985   1.981   3.126   2.515
10468WAT     H132986   1.951   3.066   2.448
10468WAT     H232987   2.076   3.130   2.504
10469WAT      O32988   1.805   2.435   2.677
10469WAT     H132989   1.860   2.446   2.600
10469WAT     H232990   1.857   2.472   2.749
10470WAT      O32991   2.789   3.484   2.882
10470WAT     H132992   2.742   3.564   2.862
10470WAT     H232993   2.721   3.418   2.897
10471WAT      O32994   1.890   3.100   3.181
10471WAT     H132995   1.800   3.122   3.205
10471WAT     H232996   1.892   3.112   3.086
10472WAT      O32997   2.594   2.785   1.772
10472WAT     H132998   2.638   2.701   1.757
10472WAT     H232999   2.665   2.848   1.781
10473WAT      O33000   1.773   2.787   3.038
10473WAT     H133001   1.759   2.874   3.075
10473WAT     H233002   1.684   2.753   3.024
10474WAT      O33003   2.405   3.279   2.169
10474WAT     H133004   2.449   3.353   2.127
10474WAT     H233005   2.399   3.303   2.261
10475WAT      O33006   1.952   3.381   3.259
10475WAT     H133007   1.949   3.422   3.172
10475WAT     H233008   1.936   3.288   3.243
10476WAT      O33009   2.952   1.910   1.603
10476WAT     H133010   2.921   1.920   1.693
10476WAT     H233011   3.028   1.968   1.598
10477WAT      O33012   1.604   2.647   2.049
10477WAT     H133013   1.592   2.720   1.988
10477WAT     H233014   1.573   2.570   2.001
10478WAT      O33015   1.368   2.964   2.630
10478WAT     H133016   1.376   2.978   2.535
10478WAT     H233017   1.429   2.893   2.649
10479WAT      O33018   1.492   3.134   2.271
10479WAT     H133019   1.451   3.148   2.185
10479WAT     H233020   1.581   3.106   2.251
10480WAT      O33021   2.474   3.549   2.962
10480WAT     H133022   2.525   3.540   3.042
10480WAT     H233023   2.390   3.584   2.991
10481WAT      O33024   2.672   3.578   1.904
10481WAT     H133025   2.656   3.549   1.994
10481WAT     H233026   2.655   3.500   1.851
10482WAT      O33027   1.919   3.556   2.082
10482WAT     H133028   1.902   3.464   2.061
10482WAT     H233029   1.834   3.591   2.106
10483WAT      O33030   2.642   3.328   1.760
10483WAT     H133031   2.572   3.328   1.694
10483WAT     H233032   2.716   3.286   1.717
10484WAT      O33033   2.598   3.491   2.168
10484WAT     H133034   2.644   3.413   2.199
10484WAT     H233035   2.632   3.562   2.222
10485WAT      O33036   3.073   2.384   3.201
10485WAT     H133037   3.012   2.435   3.148
10485WAT     H233038   3.041   2.294   3.195
10486WAT      O33039   1.373   3.068   2.884
10486WAT     H133040   1.390   3.021   2.802
10486WAT     H233041   1.420   3.017   2.950
10487WAT      O33042   1.851   1.981   2.387
10487WAT     H133043   1.806   2.059   2.354
10487WAT     H233044   1.906   2.014   2.458
10488WAT      O33045   2.279   2.268   2.948
10488WAT     H133046   2.233   2.289   3.029
10488WAT     H233047   2.239   2.187   2.917
10489WAT      O33048   2.779   2.390   3.061
10489WAT     H133049   2.694   2.360   3.093
10489WAT     H233050   2.763   2.415   2.970
10490WAT      O33051   2.489   2.540   3.271
10490WAT     H133052   2.521   2.457   3.237
10490WAT     H233053   2.568   2.592   3.285
10491WAT      O33054   2.162   1.943   1.875
10491WAT     H133055   2.100   1.943   1.948
10491WAT     H233056   2.153   1.857   1.836
10492WAT      O33057   2.054   2.036   2.573
10492WAT     H133058   2.084   2.126   2.565
10492WAT     H233059   2.109   1.987   2.512
10493WAT      O33060   1.830   2.494   2.160
10493WAT     H133061   1.807   2.472   2.251
10493WAT     H233062   1.752   2.537   2.126
10494WAT      O33063   2.553   2.494   2.020
10494WAT     H133064   2.493   2.567   2.002
10494WAT     H233065   2.607   2.488   1.942
10495WAT      O33066   2.074   2.584   3.227
10495WAT     H133067   2.064   2.489   3.212
10495WAT     H233068   2.158   2.606   3.187
10496WAT      O33069   2.413   2.358   2.223
10496WAT     H133070   2.453   2.390   2.142
10496WAT     H233071   2.449   2.270   2.235
10497WAT      O33072   1.587   2.225   3.042
10497WAT     H133073   1.547   2.309   3.063
10497WAT     H233074   1.518   2.161   3.061
10498WAT      O33075   2.244   2.233   3.349
10498WAT     H133076   2.175   2.214   3.413
10498WAT     H233077   2.319   2.261   3.402
10499WAT      O33078   1.317   2.017   2.445
10499WAT     H133079   1.288   2.074   2.517
10499WAT     H233080   1.391   1.969   2.482
10500WAT      O33081   1.336   2.411   1.566
10500WAT     H133082   1.327   2.505   1.581
10500WAT     H233083   1.300   2.397   1.479
10501WAT      O33084   2.472   2.617   2.633
10501WAT     H133085   2.399   2.668   2.668
10501WAT     H233086   2.432   2.535   2.603
10502WAT      O33087   2.116   2.285   2.473
10502WAT     H133088   2.116   2.240   2.388
10502WAT     H233089   2.205   2.317   2.484
10503WAT      O33090   1.701   2.273   2.369
10503WAT     H133091   1.667   2.321   2.445
10503WAT     H233092   1.624   2.227   2.333
10504WAT      O33093   2.122   2.385   1.772
10504WAT     H133094   2.134   2.381   1.867
10504WAT     H233095   2.083   2.471   1.757
10505WAT      O33096   2.518   2.162   2.574
10505WAT     H133097   2.520   2.207   2.658
10505WAT     H233098   2.493   2.072   2.595
10506WAT      O33099   2.023   2.616   1.712
10506WAT     H133100   1.966   2.571   1.649
10506WAT     H233101   2.094   2.652   1.659
10507WAT      O33102   2.861   1.904   3.158
10507WAT     H133103   2.893   1.831   3.210
10507WAT     H233104   2.864   1.872   3.068
10508WAT      O33105   1.531   3.006   3.100
10508WAT     H133106   1.492   2.942   3.160
10508WAT     H233107   1.562   3.076   3.157
10509WAT      O33108   2.146   2.691   2.648
10509WAT     H133109   2.182   2.643   2.722
10509WAT     H233110   2.127   2.778   2.682
10510WAT      O33111   1.432   2.165   2.261
10510WAT     H133112   1.404   2.129   2.345
10510WAT     H233113   1.426   2.092   2.199
10511WAT      O33114   1.925   2.595   2.880
10511WAT     H133115   1.894   2.683   2.902
10511WAT     H233116   2.020   2.601   2.883
10512WAT      O33117   1.777   3.015   1.939
10512WAT     H133118   1.700   2.961   1.923
10512WAT     H233119   1.850   2.963   1.906
10513WAT      O33120   2.853   2.915   2.519
10513WAT     H133121   2.925   2.964   2.480
10513WAT     H233122   2.833   2.847   2.454
10514WAT      O33123   2.399   2.054   1.933
10514WAT     H133124   2.318   2.004   1.925
10514WAT     H233125   2.380   2.138   1.891
10515WAT      O33126   2.392   2.922   3.107
10515WAT     H133127   2.385   2.830   3.082
10515WAT     H233128   2.329   2.932   3.179
10516WAT      O33129   2.671   2.491   1.763
10516WAT     H133130   2.760   2.523   1.745
10516WAT     H233131   2.668   2.404   1.723
10517WAT      O33132   1.782   2.982   2.303
10517WAT     H133133   1.834   2.902   2.298
10517WAT     H233134   1.737   2.976   2.387
10518WAT      O33135   2.271   3.109   1.830
10518WAT     H133136   2.305   3.183   1.781
10518WAT     H233137   2.188   3.140   1.867
10519WAT      O33138   1.530   2.679   2.994
10519WAT     H133139   1.494   2.745   3.053
10519WAT     H233140   1.501   2.595   3.032
10520WAT      O33141   1.850   2.724   3.283
10520WAT     H133142   1.820   2.739   3.193
10520WAT     H233143   1.928   2.669   3.274
10521WAT      O33144   2.385   3.204   3.082
10521WAT     H133145   2.386   3.111   3.061
10521WAT     H233146   2.314   3.213   3.146
10522WAT      O33147   2.898   2.623   1.709
10522WAT     H133148   2.890   2.666   1.624
10522WAT     H233149   2.970   2.669   1.753
10523WAT      O33150   3.006   2.868   3.017
10523WAT     H133151   2.933   2.928   2.997
10523WAT     H233152   3.059   2.867   2.937
10524WAT      O33153   3.001   3.308   1.982
10524WAT     H133154   2.937   3.243   2.010
10524WAT     H233155   2.962   3.349   1.905
10525WAT      O33156   2.559   3.041   2.367
10525WAT     H133157   2.594   2.981   2.301
10525WAT     H233158   2.470   3.008   2.384
10526WAT      O33159   2.167   3.117   2.108
10526WAT     H133160   2.236   3.172   2.146
10526WAT     H233161   2.089   3.171   2.111
10527WAT      O33162   1.381   2.679   1.657
10527WAT     H133163   1.468   2.707   1.685
10527WAT     H233164   1.332   2.760   1.645
10528WAT      O33165   2.098   2.817   2.069
10528WAT     H133166   2.143   2.898   2.091
10528WAT     H233167   2.063   2.786   2.152
10529WAT      O33168   2.328   3.368   2.792
10529WAT     H133169   2.392   3.389   2.859
10529WAT     H233170   2.364   3.292   2.746
10530WAT      O33171   1.688   1.852   2.116
10530WAT     H133172   1.675   1.851   2.211
10530WAT     H233173   1.605   1.886   2.081
10531WAT      O33174   2.455   3.169   2.664
10531WAT     H133175   2.520   3.099   2.675
10531WAT     H233176   2.508   3.247   2.645
10532WAT      O33177   2.840   3.197   1.636
10532WAT     H133178   2.817   3.125   1.695
10532WAT     H233179   2.801   3.172   1.552
10533WAT      O33180   2.633   3.249   2.984
10533WAT     H133181   2.666   3.307   3.052
10533WAT     H233182   2.541   3.236   3.007
10534WAT      O33183   1.418   3.600   1.713
10534WAT     H133184   1.454   3.660   1.648
10534WAT     H233185   1.404   3.654   1.791
10535WAT      O33186   1.388   2.028   3.062
10535WAT     H133187   1.316   2.048   3.123
10535WAT     H233188   1.430   1.950   3.099
10536WAT      O33189   2.798   2.989   1.802
10536WAT     H133190   2.769   3.035   1.881
10536WAT     H233191   2.878   2.943   1.829
10537WAT      O33192   1.417   3.426   3.161
10537WAT     H133193   1.427   3.332   3.147
10537WAT     H233194   1.351   3.453   3.096
10538WAT      O33195   2.216   3.254   3.301
10538WAT     H133196   2.184   3.182   3.355
10538WAT     H233197   2.148   3.321   3.308
10539WAT      O33198   2.020   3.338   1.795
10539WAT     H133199   2.019   3.411   1.734
10539WAT     H233200   1.928   3.313   1.804
10540WAT      O33201   1.580   2.860   1.870
10540WAT     H133202   1.519   2.934   1.871
10540WAT     H233203   1.627   2.869   1.787
10541WAT      O33204   2.537   2.277   2.837
10541WAT     H133205   2.574   2.195   2.870
10541WAT     H233206   2.451   2.283   2.879
10542WAT      O33207   2.874   2.172   1.918
10542WAT     H133208   2.811   2.183   1.847
10542WAT     H233209   2.824   2.194   1.997
10543WAT      O33210   2.318   3.344   1.661
10543WAT     H133211   2.329   3.324   1.568
10543WAT     H233212   2.228   3.319   1.682
10544WAT      O33213   2.071   2.400   2.060
10544WAT     H133214   2.000   2.447   2.104
10544WAT     H233215   2.099   2.334   2.123
10545WAT      O33216   2.233   2.542   2.860
10545WAT     H133217   2.283   2.590   2.926
10545WAT     H233218   2.247   2.450   2.880
10546WAT      O33219   2.474   2.073   2.204
10546WAT     H133220   2.461   2.075   2.109
10546WAT     H233221   2.569   2.078   2.216
10547WAT      O33222   2.183   3.596   2.131
10547WAT     H133223   2.208   3.593   2.039
10547WAT     H233224   2.088   3.584   2.130
10548WAT      O33225   1.891   2.231   1.797
10548WAT     H133226   1.976   2.275   1.790
10548WAT     H233227   1.854   2.262   1.880
10549WAT      O33228   2.954   2.164   2.944
10549WAT     H133229   2.904   2.238   2.978
10549WAT     H233230   3.035   2.203   2.912
10550WAT      O33231   2.783   2.688   2.288
10550WAT     H133232   2.689   2.690   2.306
10550WAT     H233233   2.815   2.610   2.333
10551WAT      O33234   1.781   2.856   1.644
10551WAT     H133235   1.858   2.845   1.701
10551WAT     H233236   1.789   2.787   1.579
10552WAT      O33237   1.650   2.600   1.713
10552WAT     H133238   1.658   2.505   1.724
10552WAT     H233239   1.740   2.633   1.723
10553WAT      O33240   2.983   3.405   2.456
10553WAT     H133241   2.996   3.488   2.503
10553WAT     H233242   3.070   3.384   2.421
10554WAT      O33243   1.731   3.615   2.423
10554WAT     H133244   1.804   3.560   2.450
10554WAT     H233245   1.769   3.701   2.409
10555WAT      O33246   1.419   3.221   2.011
10555WAT     H133247   1.326   3.246   2.010
10555WAT     H233248   1.466   3.304   1.998
10556WAT      O33249   1.631   3.533   3.342
10556WAT     H133250   1.711   3.565   3.383
10556WAT     H233251   1.580   3.497   3.414
10557WAT      O33252   2.042   3.532   1.605
10557WAT     H133253   2.121   3.561   1.560
10557WAT     H233254   1.990   3.489   1.538
10558WAT      O33255   2.515   3.144   3.337
10558WAT     H133256   2.454   3.146   3.263
10558WAT     H233257   2.484   3.071   3.390
10559WAT      O33258   2.658   3.517   3.198
10559WAT     H133259   2.753   3.508   3.193
10559WAT     H233260   2.643   3.583   3.265
10560WAT      O33261   2.947   3.455   1.748
10560WAT     H133262   2.918   3.413   1.666
10560WAT     H233263   2.927   3.547   1.736
10561WAT      O33264   1.403   2.782   3.236
10561WAT     H133265   1.453   2.724   3.294
10561WAT     H233266   1.329   2.810   3.290
10562WAT      O33267   2.093   3.054   1.592
10562WAT     H133268   2.083   2.992   1.664
10562WAT     H233269   2.077   3.002   1.513
10563WAT      O33270   2.108   2.923   3.190
10563WAT     H133271   2.032   2.979   3.181
10563WAT     H233272   2.127   2.893   3.100
10564WAT      O33273   2.417   2.960   1.652
10564WAT     H133274   2.362   3.005   1.717
10564WAT     H233275   2.480   2.910   1.705
10565WAT      O33276   1.606   2.596   3.326
10565WAT     H133277   1.610   2.566   3.417
10565WAT     H233278   1.692   2.636   3.310
10566WAT      O33279   1.984   2.856   1.842
10566WAT     H133280   2.026   2.839   1.926
10566WAT     H233281   1.997   2.775   1.792
10567WAT      O33282   1.800   2.454   3.123
10567WAT     H133283   1.747   2.405   3.060
10567WAT     H233284   1.867   2.497   3.069
10568WAT      O33285   2.235   2.758   1.567
10568WAT     H133286   2.287   2.687   1.530
10568WAT     H233287   2.300   2.822   1.597
10569WAT      O33288   2.690   2.901   3.099
10569WAT     H133289   2.732   2.916   3.184
10569WAT     H233290   2.597   2.913   3.115
10570WAT      O33291   2.737   2.635   3.299
10570WAT     H133292   2.796   2.559   3.291
10570WAT     H233293   2.755   2.688   3.222
10571WAT      O33294   1.849   2.151   3.131
10571WAT     H133295   1.840   2.089   3.058
10571WAT     H233296   1.791   2.223   3.108
10572WAT      O33297   2.126   2.006   2.834
10572WAT     H133298   2.081   2.009   2.749
10572WAT     H233299   2.062   1.967   2.894
10573WAT      O33300   2.166   2.896   2.896
10573WAT     H133301   2.208   2.980   2.879
10573WAT     H233302   2.074   2.910   2.873
10574WAT      O33303   2.400   2.669   3.034
10574WAT     H133304   2.412   2.609   3.108
10574WAT     H233305   2.486   2.673   2.992
10575WAT      O33306   2.634   2.724   2.892
10575WAT     H133307   2.581   2.777   2.832
10575WAT     H233308   2.668   2.788   2.955
10576WAT      O33309   1.874   2.463   1.536
10576WAT     H133310   1.854   2.377   1.573
10576WAT     H233311   1.857   2.455   1.443
10577WAT      O33312   1.951   3.526   3.008
10577WAT     H133313   1.898   3.599   2.976
10577WAT     H233314   1.977   3.479   2.929
10578WAT      O33315   2.077   2.323   3.160
10578WAT     H133316   2.136   2.292   3.229
10578WAT     H233317   1.995   2.276   3.176
10579WAT      O33318   2.559   2.285   3.183
10579WAT     H133319   2.490   2.219   3.177
10579WAT     H233320   2.631   2.240   3.228
10580WAT      O33321   2.622   1.944   1.789
10580WAT     H133322   2.650   1.860   1.825
10580WAT     H233323   2.544   1.968   1.841
10581WAT      O33324   1.754   2.173   1.535
10581WAT     H133325   1.784   2.174   1.444
10581WAT     H233326   1.827   2.138   1.585
10582WAT      O33327   2.237   3.650   3.033
10582WAT     H133328   2.230   3.740   3.064
10582WAT     H233329   2.147   3.618   3.031
10583WAT      O33330   2.075   2.068   1.634
10583WAT     H133331   2.041   2.000   1.576
10583WAT     H233332   2.095   2.022   1.715
10584WAT      O33333   2.292   3.567   1.796
10584WAT     H133334   2.381   3.600   1.798
10584WAT     H233335   2.295   3.494   1.733
10585WAT      O33336   1.656   3.104   1.619
10585WAT     H133337   1.700   3.158   1.684
10585WAT     H233338   1.704   3.021   1.619
10586WAT      O33339   1.377   3.383   2.364
10586WAT     H133340   1.410   3.296   2.341
10586WAT     H233341   1.420   3.403   2.447
10587WAT      O33342   1.837   3.216   2.130
10587WAT     H133343   1.807   3.203   2.220
10587WAT     H233344   1.826   3.130   2.089
10588WAT      O33345   1.426   3.469   2.638
10588WAT     H133346   1.382   3.487   2.721
10588WAT     H233347   1.483   3.545   2.623
10589WAT      O33348   3.114   3.194   1.600
10589WAT     H133349   3.031   3.201   1.647
10589WAT     H233350   3.132   3.283   1.570
10590WAT      O33351   3.059   2.868   1.850
10590WAT     H133352   3.136   2.925   1.861
10590WAT     H233353   3.061   2.812   1.927
10591WAT      O33354   1.409   2.721   2.273
10591WAT     H133355   1.344   2.694   2.209
10591WAT     H233356   1.493   2.710   2.228
10592WAT      O33357   3.160   2.954   2.335
10592WAT     H133358   3.197   2.875   2.294
10592WAT     H233359   3.224   3.023   2.317
10593WAT      O33360   2.858   3.092   2.876
10593WAT     H133361   2.777   3.135   2.902
10593WAT     H233362   2.899   3.153   2.815
10594WAT      O33363   3.065   2.898   1.566
10594WAT     H133364   3.092   2.988   1.553
10594WAT     H233365   3.046   2.891   1.660
10595WAT      O33366   2.704   2.200   1.696
10595WAT     H133367   2.746   2.181   1.612
10595WAT     H233368   2.674   2.115   1.727
10596WAT      O33369   3.054   2.691   2.065
10596WAT     H133370   3.017   2.615   2.022
10596WAT     H233371   2.981   2.730   2.114
10597WAT      O33372   1.513   2.759   2.727
10597WAT     H133373   1.550   2.750   2.815
10597WAT     H233374   1.456   2.683   2.718
10598WAT      O33375   2.993   2.606   3.029
10598WAT     H133376   2.970   2.583   2.939
10598WAT     H233377   3.019   2.698   3.024
10599WAT      O33378   1.468   2.450   3.118
10599WAT     H133379   1.379   2.447   3.152
10599WAT     H233380   1.522   2.470   3.195
10600WAT      O33381   2.837   2.129   3.307
10600WAT     H133382   2.925   2.129   3.345
10600WAT     H233383   2.838   2.055   3.246
10601WAT      O33384   1.331   2.442   1.868
10601WAT     H133385   1.240   2.468   1.850
10601WAT     H233386   1.379   2.469   1.790
10602WAT      O33387   2.982   2.514   2.395
10602WAT     H133388   3.034   2.464   2.332
10602WAT     H233389   3.040   2.527   2.470
10603WAT      O33390   3.000   2.522   2.748
10603WAT     H133391   2.905   2.519   2.759
10603WAT     H233392   3.018   2.613   2.724
10604WAT      O33393   1.585   2.347   1.659
10604WAT     H133394   1.656   2.305   1.610
10604WAT     H233395   1.513   2.354   1.595
10605WAT      O33396   1.550   1.953   1.563
10605WAT     H133397   1.622   2.007   1.594
10605WAT     H233398   1.577   1.925   1.475
10606WAT      O33399   2.931   2.440   1.989
10606WAT     H133400   2.980   2.416   2.068
10606WAT     H233401   2.911   2.356   1.948
10607WAT      O33402   1.519   1.878   2.553
10607WAT     H133403   1.584   1.823   2.509
10607WAT     H233404   1.561   1.903   2.635
10608WAT      O33405   3.074   2.303   2.243
10608WAT     H133406   3.063   2.288   2.337
10608WAT     H233407   3.150   2.250   2.219
10609WAT      O33408   2.908   1.897   2.889
10609WAT     H133409   2.972   1.958   2.925
10609WAT     H233410   2.923   1.901   2.794
10610WAT      O33411   3.163   2.086   1.567
10610WAT     H133412   3.255   2.073   1.546
10610WAT     H233413   3.160   2.094   1.662
10611WAT      O33414   3.170   2.163   1.829
10611WAT     H133415   3.090   2.157   1.882
10611WAT     H233416   3.190   2.257   1.828
10612WAT      O33417   2.864   3.567   2.229
10612WAT     H133418   2.924   3.535   2.161
10612WAT     H233419   2.890   3.520   2.308
10613WAT      O33420   1.494   1.893   2.827
10613WAT     H133421   1.459   1.939   2.904
10613WAT     H233422   1.461   1.804   2.835
10614WAT      O33423   1.655   3.210   3.244
10614WAT     H133424   1.650   3.173   3.332
10614WAT     H233425   1.668   3.304   3.258
10615WAT      O33426   2.025   3.366   2.804
10615WAT     H133427   2.001   3.393   2.715
10615WAT     H233428   2.119   3.383   2.809
10616WAT      O33429   2.245   2.012   3.179
10616WAT     H133430   2.239   2.072   3.254
10616WAT     H233431   2.339   2.002   3.165
10617WAT      O33432   2.509   1.978   3.143
10617WAT     H133433   2.570   2.010   3.077
10617WAT     H233434   2.564   1.930   3.205
10618WAT      O33435   1.561   1.846   3.155
10618WAT     H133436   1.616   1.828   3.078
10618WAT     H233437   1.568   1.767   3.208
10619WAT      O33438   1.639   3.505   2.956
10619WAT     H133439   1.579   3.492   3.030
10619WAT     H233440   1.638   3.421   2.909
10620WAT      O33441   2.583   1.834   2.776
10620WAT     H133442   2.496   1.868   2.756
10620WAT     H233443   2.572   1.787   2.858
10621WAT      O33444   2.674   2.055   2.914
10621WAT     H133445   2.641   1.974   2.876
10621WAT     H233446   2.769   2.051   2.902
10622WAT      O33447   2.919   3.632   2.612
10622WAT     H133448   2.873   3.707   2.574
10622WAT     H233449   2.856   3.560   2.606
10623WAT      O33450   1.602   3.242   2.851
10623WAT     H133451   1.529   3.180   2.844
10623WAT     H233452   1.608   3.281   2.764
10624WAT      O33453   1.962   3.463   2.529
10624WAT     H133454   2.014   3.402   2.477
10624WAT     H233455   2.027   3.513   2.578
10625WAT      O33456   2.236   3.552   2.612
10625WAT     H133457   2.265   3.527   2.524
10625WAT     H233458   2.287   3.497   2.671
10626WAT      O33459   2.358   1.926   2.670
10626WAT     H133460   2.280   1.974   2.698
10626WAT     H233461   2.329   1.836   2.659
10627WAT      O33462   2.813   1.996   2.474
10627WAT     H133463   2.857   1.991   2.390
10627WAT     H233464   2.786   2.088   2.481
10628WAT      O33465   2.999   1.959   2.275
10628WAT     H133466   2.993   1.865   2.261
10628WAT     H233467   3.077   1.970   2.330
10629WAT      O33468   1.430   3.573   2.172
10629WAT     H133469   1.413   3.510   2.242
10629WAT     H233470   1.343   3.594   2.137
10630WAT      O33471   1.492   1.957   1.922
10630WAT     H133472   1.568   1.968   1.865
10630WAT     H233473   1.446   2.040   1.917
10631WAT      O33474   2.146   2.168   2.221
10631WAT     H133475   2.065   2.131   2.187
10631WAT     H233476   2.197   2.092   2.251
10632WAT      O33477   2.597   1.834   2.345
10632WAT     H133478   2.657   1.892   2.392
10632WAT     H233479   2.523   1.891   2.323
10633WAT      O33480   2.911   1.875   1.872
10633WAT     H133481   2.931   1.964   1.899
10633WAT     H233482   2.832   1.851   1.922
10634WAT      O33483   1.591   3.443   1.916
10634WAT     H133484   1.538   3.481   1.846
10634WAT     H233485   1.583   3.505   1.988
10635WAT      O33486   1.730   2.009   1.776
10635WAT     H133487   1.782   1.931   1.763
10635WAT     H233488   1.793   2.077   1.799
10636WAT      O33489   1.949   1.983   2.081
10636WAT     H133490   1.886   1.913   2.098
10636WAT     H233491   1.895   2.059   2.060
10637WAT      O33492   2.243   3.644   3.349
10637WAT     H133493   2.336   3.621   3.353
10637WAT     H233494   2.241   3.727   3.300
10638WAT      O33495   3.066   3.599   2.048
10638WAT     H133496   3.084   3.530   1.984
10638WAT     H233497   2.997   3.651   2.009
10639WAT      O33498   1.961   1.911   3.325
10639WAT     H133499   1.933   1.961   3.249
10639WAT     H233500   2.000   1.831   3.288
10640WAT      O33501   1.851   3.638   1.804
10640WAT     H133502   1.924   3.609   1.749
10640WAT     H233503   1.876   3.614   1.893
10641WAT      O33504   1.767   3.249   1.804
10641WAT     H133505   1.704   3.296   1.859
10641WAT     H233506   1.778   3.165   1.848
10642WAT      O33507   2.622   1.852   3.383
10642WAT     H133508   2.610   1.884   3.472
10642WAT     H233509   2.703   1.892   3.353
10643WAT      O33510   2.512   2.654   0.419
10643WAT     H133511   2.504   2.563   0.392
10643WAT     H233512   2.471   2.704   0.349
10644WAT      O33513   2.325   2.832   0.607
10644WAT     H133514   2.248   2.784   0.636
10644WAT     H233515   2.391   2.764   0.590
10645WAT      O33516   1.727   2.863   0.695
10645WAT     H133517   1.644   2.838   0.735
10645WAT     H233518   1.788   2.870   0.769
10646WAT      O33519   2.727   3.273   0.485
10646WAT     H133520   2.681   3.196   0.518
10646WAT     H233521   2.809   3.275   0.536
10647WAT      O33522   1.725   3.267   0.715
10647WAT     H133523   1.755   3.178   0.697
10647WAT     H233524   1.799   3.322   0.692
10648WAT      O33525   1.364   2.619   0.662
10648WAT     H133526   1.421   2.543   0.662
10648WAT     H233527   1.364   2.649   0.571
10649WAT      O33528   2.350   3.501   0.447
10649WAT     H133529   2.288   3.547   0.390
10649WAT     H233530   2.436   3.517   0.407
10650WAT      O33531   2.269   3.100   0.608
10650WAT     H133532   2.263   3.006   0.592
10650WAT     H233533   2.346   3.109   0.665
10651WAT      O33534   1.489   2.160   0.841
10651WAT     H133535   1.471   2.070   0.869
10651WAT     H233536   1.448   2.215   0.908
10652WAT      O33537   2.373   2.380   0.631
10652WAT     H133538   2.410   2.293   0.619
10652WAT     H233539   2.363   2.414   0.542
10653WAT      O33540   1.786   2.218   0.177
10653WAT     H133541   1.796   2.308   0.208
10653WAT     H233542   1.695   2.213   0.148
10654WAT      O33543   2.751   2.130   0.324
10654WAT     H133544   2.833   2.081   0.328
10654WAT     H233545   2.754   2.189   0.399
10655WAT      O33546   1.550   2.410   0.701
10655WAT     H133547   1.619   2.436   0.763
10655WAT     H233548   1.519   2.326   0.735
10656WAT      O33549   1.970   2.514   0.610
10656WAT     H133550   2.020   2.564   0.674
10656WAT     H233551   2.023   2.437   0.592
10657WAT      O33552   3.180   2.332   0.980
10657WAT     H133553   3.109   2.370   0.929
10657WAT     H233554   3.206   2.401   1.041
10658WAT      O33555   1.798   1.978   1.037
10658WAT     H133556   1.798   2.030   0.956
10658WAT     H233557   1.715   1.931   1.034
10659WAT      O33558   1.923   2.942   0.854
10659WAT     H133559   1.890   3.005   0.919
10659WAT     H233560   1.941   2.995   0.776
10660WAT      O33561   2.774   2.324   0.601
10660WAT     H133562   2.704   2.353   0.659
10660WAT     H233563   2.811   2.405   0.565
10661WAT      O33564   1.766   2.150   0.837
10661WAT     H133565   1.800   2.234   0.808
10661WAT     H233566   1.672   2.164   0.849
10662WAT      O33567   1.844   3.139   1.036
10662WAT     H133568   1.906   3.207   1.008
10662WAT     H233569   1.758   3.180   1.027
10663WAT      O33570   2.936   3.286   0.827
10663WAT     H133571   2.868   3.353   0.827
10663WAT     H233572   2.990   3.305   0.751
10664WAT      O33573   3.081   2.268   0.640
10664WAT     H133574   2.987   2.272   0.653
10664WAT     H233575   3.114   2.350   0.679
10665WAT      O33576   2.134   1.898   0.470
10665WAT     H133577   2.165   1.843   0.398
10665WAT     H233578   2.041   1.912   0.452
10666WAT      O33579   2.690   3.470   0.699
10666WAT     H133580   2.691   3.430   0.612
10666WAT     H233581   2.634   3.548   0.689
10667WAT      O33582   2.819   3.142   0.208
10667WAT     H133583   2.808   3.048   0.220
10667WAT     H233584   2.819   3.178   0.296
10668WAT      O33585   2.629   2.960   0.832
10668WAT     H133586   2.671   2.939   0.748
10668WAT     H233587   2.702   2.986   0.889
10669WAT      O33588   3.024   2.800   0.841
10669WAT     H133589   2.941   2.807   0.793
10669WAT     H233590   3.084   2.859   0.794
10670WAT      O33591   2.720   2.479   0.935
10670WAT     H133592   2.679   2.561   0.961
10670WAT     H233593   2.647   2.420   0.916
10671WAT      O33594   1.934   2.758   0.422
10671WAT     H133595   1.893   2.686   0.372
10671WAT     H233596   1.942   2.723   0.511
10672WAT      O33597   1.981   3.126   0.638
10672WAT     H133598   1.951   3.066   0.570
10672WAT     H233599   2.076   3.130   0.627
10673WAT      O33600   1.805   2.435   0.800
10673WAT     H133601   1.860   2.446   0.722
10673WAT     H233602   1.857   2.472   0.871
10674WAT      O33603   2.789   3.484   1.004
10674WAT     H133604   2.742   3.564   0.985
10674WAT     H233605   2.721   3.418   1.020
10675WAT      O33606   1.890   3.100   1.303
10675WAT     H133607   1.800   3.122   1.328
10675WAT     H233608   1.892   3.112   1.208
10676WAT      O33609   1.773   2.787   1.161
10676WAT     H133610   1.759   2.874   1.198
10676WAT     H233611   1.684   2.753   1.146
10677WAT      O33612   2.405   3.279   0.291
10677WAT     H133613   2.449   3.353   0.250
10677WAT     H233614   2.399   3.303   0.384
10678WAT      O33615   1.952   3.381   1.382
10678WAT     H133616   1.949   3.422   1.295
10678WAT     H233617   1.936   3.288   1.365
10679WAT      O33618   3.147   3.460   1.511
10679WAT     H133619   3.195   3.507   1.579
10679WAT     H233620   3.210   3.453   1.439
10680WAT      O33621   1.368   2.964   0.752
10680WAT     H133622   1.376   2.978   0.658
10680WAT     H233623   1.429   2.893   0.772
10681WAT      O33624   1.492   3.134   0.393
10681WAT     H133625   1.451   3.148   0.308
10681WAT     H233626   1.581   3.106   0.373
10682WAT      O33627   3.088   3.179   1.227
10682WAT     H133628   3.100   3.155   1.135
10682WAT     H233629   3.092   3.096   1.274
10683WAT      O33630   2.474   3.549   1.084
10683WAT     H133631   2.525   3.540   1.164
10683WAT     H233632   2.390   3.584   1.113
10684WAT      O33633   1.919   3.556   0.205
10684WAT     H133634   1.902   3.464   0.183
10684WAT     H233635   1.834   3.591   0.229
10685WAT      O33636   2.598   3.491   0.290
10685WAT     H133637   2.644   3.413   0.322
10685WAT     H233638   2.632   3.562   0.345
10686WAT      O33639   3.073   2.384   1.324
10686WAT     H133640   3.012   2.435   1.271
10686WAT     H233641   3.041   2.294   1.318
10687WAT      O33642   1.373   3.068   1.006
10687WAT     H133643   1.390   3.021   0.925
10687WAT     H233644   1.420   3.017   1.073
10688WAT      O33645   1.851   1.981   0.510
10688WAT     H133646   1.806   2.059   0.477
10688WAT     H233647   1.906   2.014   0.581
10689WAT      O33648   2.279   2.268   1.070
10689WAT     H133649   2.233   2.289   1.152
10689WAT     H233650   2.239   2.187   1.040
10690WAT      O33651   2.779   2.390   1.183
10690WAT     H133652   2.694   2.360   1.215
10690WAT     H233653   2.763   2.415   1.092
10691WAT      O33654   2.489   2.540   1.393
10691WAT     H133655   2.521   2.457   1.359
10691WAT     H233656   2.568   2.592   1.408
10692WAT      O33657   2.054   2.036   0.696
10692WAT     H133658   2.084   2.126   0.688
10692WAT     H233659   2.109   1.987   0.634
10693WAT      O33660   1.830   2.494   0.283
10693WAT     H133661   1.807   2.472   0.373
10693WAT     H233662   1.752   2.537   0.248
10694WAT      O33663   2.074   2.584   1.349
10694WAT     H133664   2.064   2.489   1.334
10694WAT     H233665   2.158   2.606   1.310
10695WAT      O33666   2.413   2.358   0.346
10695WAT     H133667   2.453   2.390   0.264
10695WAT     H233668   2.449   2.270   0.357
10696WAT      O33669   1.587   2.225   1.165
10696WAT     H133670   1.547   2.309   1.185
10696WAT     H233671   1.518   2.161   1.184
10697WAT      O33672   2.244   2.233   1.472
10697WAT     H133673   2.175   2.214   1.535
10697WAT     H233674   2.319   2.261   1.525
10698WAT      O33675   1.317   2.017   0.568
10698WAT     H133676   1.288   2.074   0.639
10698WAT     H233677   1.391   1.969   0.604
10699WAT      O33678   2.472   2.617   0.755
10699WAT     H133679   2.399   2.668   0.790
10699WAT     H233680   2.432   2.535   0.725
10700WAT      O33681   2.116   2.285   0.596
10700WAT     H133682   2.116   2.240   0.511
10700WAT     H233683   2.205   2.317   0.606
10701WAT      O33684   1.701   2.273   0.492
10701WAT     H133685   1.667   2.321   0.567
10701WAT     H233686   1.624   2.227   0.456
10702WAT      O33687   2.518   2.162   0.696
10702WAT     H133688   2.520   2.207   0.781
10702WAT     H233689   2.493   2.072   0.718
10703WAT      O33690   2.861   1.904   1.280
10703WAT     H133691   2.893   1.831   1.333
10703WAT     H233692   2.864   1.872   1.190
10704WAT      O33693   1.531   3.006   1.222
10704WAT     H133694   1.492   2.942   1.282
10704WAT     H233695   1.562   3.076   1.279
10705WAT      O33696   2.146   2.691   0.770
10705WAT     H133697   2.182   2.643   0.845
10705WAT     H233698   2.127   2.778   0.804
10706WAT      O33699   1.432   2.165   0.383
10706WAT     H133700   1.404   2.129   0.467
10706WAT     H233701   1.426   2.092   0.322
10707WAT      O33702   1.925   2.595   1.002
10707WAT     H133703   1.894   2.683   1.025
10707WAT     H233704   2.020   2.601   1.006
10708WAT      O33705   2.853   2.915   0.641
10708WAT     H133706   2.925   2.964   0.602
10708WAT     H233707   2.833   2.847   0.577
10709WAT      O33708   2.392   2.922   1.230
10709WAT     H133709   2.385   2.830   1.204
10709WAT     H233710   2.329   2.932   1.301
10710WAT      O33711   1.782   2.982   0.426
10710WAT     H133712   1.834   2.902   0.420
10710WAT     H233713   1.737   2.976   0.510
10711WAT      O33714   1.530   2.679   1.117
10711WAT     H133715   1.494   2.745   1.176
10711WAT     H233716   1.501   2.595   1.154
10712WAT      O33717   1.850   2.724   1.405
10712WAT     H133718   1.820   2.739   1.316
10712WAT     H233719   1.928   2.669   1.396
10713WAT      O33720   2.385   3.204   1.205
10713WAT     H133721   2.386   3.111   1.183
10713WAT     H233722   2.314   3.213   1.269
10714WAT      O33723   3.006   2.868   1.140
10714WAT     H133724   2.933   2.928   1.120
10714WAT     H233725   3.059   2.867   1.060
10715WAT      O33726   2.559   3.041   0.489
10715WAT     H133727   2.594   2.981   0.423
10715WAT     H233728   2.470   3.008   0.507
10716WAT      O33729   2.167   3.117   0.230
10716WAT     H133730   2.236   3.172   0.268
10716WAT     H233731   2.089   3.171   0.234
10717WAT      O33732   2.098   2.817   0.191
10717WAT     H133733   2.143   2.898   0.214
10717WAT     H233734   2.063   2.786   0.275
10718WAT      O33735   2.328   3.368   0.914
10718WAT     H133736   2.392   3.389   0.982
10718WAT     H233737   2.364   3.292   0.869
10719WAT      O33738   1.688   1.852   0.239
10719WAT     H133739   1.675   1.851   0.333
10719WAT     H233740   1.605   1.886   0.204
10720WAT      O33741   2.455   3.169   0.786
10720WAT     H133742   2.520   3.099   0.797
10720WAT     H233743   2.508   3.247   0.768
10721WAT      O33744   2.633   3.249   1.106
10721WAT     H133745   2.666   3.307   1.174
10721WAT     H233746   2.541   3.236   1.129
10722WAT      O33747   1.388   2.028   1.185
10722WAT     H133748   1.316   2.048   1.245
10722WAT     H233749   1.430   1.950   1.222
10723WAT      O33750   1.417   3.426   1.283
10723WAT     H133751   1.427   3.332   1.269
10723WAT     H233752   1.351   3.453   1.218
10724WAT      O33753   2.216   3.254   1.423
10724WAT     H133754   2.184   3.182   1.478
10724WAT     H233755   2.148   3.321   1.431
10725WAT      O33756   2.537   2.277   0.960
10725WAT     H133757   2.574   2.195   0.992
10725WAT     H233758   2.451   2.283   1.001
10726WAT      O33759   2.071   2.400   0.182
10726WAT     H133760   2.000   2.447   0.226
10726WAT     H233761   2.099   2.334   0.246
10727WAT      O33762   2.233   2.542   0.982
10727WAT     H133763   2.283   2.590   1.049
10727WAT     H233764   2.247   2.450   1.003
10728WAT      O33765   2.474   2.073   0.326
10728WAT     H133766   2.461   2.075   0.231
10728WAT     H233767   2.569   2.078   0.338
10729WAT      O33768   2.183   3.596   0.253
10729WAT     H133769   2.208   3.593   0.161
10729WAT     H233770   2.088   3.584   0.253
10730WAT      O33771   2.954   2.164   1.066
10730WAT     H133772   2.904   2.238   1.100
10730WAT     H233773   3.035   2.203   1.035
10731WAT      O33774   2.783   2.688   0.411
10731WAT     H133775   2.689   2.690   0.428
10731WAT     H233776   2.815   2.610   0.456
10732WAT      O33777   2.983   3.405   0.579
10732WAT     H133778   2.996   3.488   0.626
10732WAT     H233779   3.070   3.384   0.544
10733WAT      O33780   1.731   3.615   0.546
10733WAT     H133781   1.804   3.560   0.573
10733WAT     H233782   1.769   3.701   0.532
10734WAT      O33783   1.631   3.533   1.465
10734WAT     H133784   1.711   3.565   1.506
10734WAT     H233785   1.580   3.497   1.537
10735WAT      O33786   2.515   3.144   1.459
10735WAT     H133787   2.454   3.146   1.385
10735WAT     H233788   2.484   3.071   1.513
10736WAT      O33789   2.658   3.517   1.320
10736WAT     H133790   2.753   3.508   1.315
10736WAT     H233791   2.643   3.583   1.388
10737WAT      O33792   1.403   2.782   1.359
10737WAT     H133793   1.453   2.724   1.416
10737WAT     H233794   1.329   2.810   1.413
10738WAT      O33795   2.108   2.923   1.312
10738WAT     H133796   2.032   2.979   1.304
10738WAT     H233797   2.127   2.893   1.223
10739WAT      O33798   2.823   3.096   1.368
10739WAT     H133799   2.897   3.129   1.318
10739WAT     H233800   2.746   3.112   1.313
10740WAT      O33801   1.606   2.596   1.448
10740WAT     H133802   1.610   2.566   1.539
10740WAT     H233803   1.692   2.636   1.432
10741WAT      O33804   1.800   2.454   1.245
10741WAT     H133805   1.747   2.405   1.182
10741WAT     H233806   1.867   2.497   1.192
10742WAT      O33807   2.690   2.901   1.222
10742WAT     H133808   2.732   2.916   1.306
10742WAT     H233809   2.597   2.913   1.238
10743WAT      O33810   2.737   2.635   1.422
10743WAT     H133811   2.796   2.559   1.413
10743WAT     H233812   2.755   2.688   1.344
10744WAT      O33813   1.849   2.151   1.253
10744WAT     H133814   1.840   2.089   1.181
10744WAT     H233815   1.791   2.223   1.230
10745WAT      O33816   2.126   2.006   0.956
10745WAT     H133817   2.081   2.009   0.872
10745WAT     H233818   2.062   1.967   1.016
10746WAT      O33819   2.166   2.896   1.019
10746WAT     H133820   2.208   2.980   1.001
10746WAT     H233821   2.074   2.910   0.996
10747WAT      O33822   2.400   2.669   1.157
10747WAT     H133823   2.412   2.609   1.231
10747WAT     H233824   2.486   2.673   1.115
10748WAT      O33825   2.634   2.724   1.015
10748WAT     H133826   2.581   2.777   0.954
10748WAT     H233827   2.668   2.788   1.078
10749WAT      O33828   1.951   3.526   1.130
10749WAT     H133829   1.898   3.599   1.098
10749WAT     H233830   1.977   3.479   1.051
10750WAT      O33831   2.077   2.323   1.283
10750WAT     H133832   2.136   2.292   1.351
10750WAT     H233833   1.995   2.276   1.298
10751WAT      O33834   2.559   2.285   1.306
10751WAT     H133835   2.490   2.219   1.299
10751WAT     H233836   2.631   2.240   1.350
10752WAT      O33837   2.237   3.650   1.156
10752WAT     H133838   2.230   3.740   1.187
10752WAT     H233839   2.147   3.618   1.153
10753WAT      O33840   1.377   3.383   0.486
10753WAT     H133841   1.410   3.296   0.463
10753WAT     H233842   1.420   3.403   0.569
10754WAT      O33843   1.837   3.216   0.252
10754WAT     H133844   1.807   3.203   0.342
10754WAT     H233845   1.826   3.130   0.211
10755WAT      O33846   1.426   3.469   0.760
10755WAT     H133847   1.382   3.487   0.843
10755WAT     H233848   1.483   3.545   0.746
10756WAT      O33849   2.990   3.420   1.189
10756WAT     H133850   2.930   3.426   1.115
10756WAT     H233851   3.003   3.326   1.202
10757WAT      O33852   1.409   2.721   0.396
10757WAT     H133853   1.344   2.694   0.332
10757WAT     H233854   1.493   2.710   0.351
10758WAT      O33855   3.160   2.954   0.457
10758WAT     H133856   3.197   2.875   0.417
10758WAT     H233857   3.224   3.023   0.440
10759WAT      O33858   2.858   3.092   0.999
10759WAT     H133859   2.777   3.135   1.025
10759WAT     H233860   2.899   3.153   0.937
10760WAT      O33861   3.054   2.691   0.188
10760WAT     H133862   3.017   2.615   0.145
10760WAT     H233863   2.981   2.730   0.237
10761WAT      O33864   1.513   2.759   0.850
10761WAT     H133865   1.550   2.750   0.938
10761WAT     H233866   1.456   2.683   0.840
10762WAT      O33867   2.993   2.606   1.151
10762WAT     H133868   2.970   2.583   1.061
10762WAT     H233869   3.019   2.698   1.147
10763WAT      O33870   1.468   2.450   1.241
10763WAT     H133871   1.379   2.447   1.275
10763WAT     H233872   1.522   2.470   1.317
10764WAT      O33873   2.837   2.129   1.429
10764WAT     H133874   2.925   2.129   1.467
10764WAT     H233875   2.838   2.055   1.368
10765WAT      O33876   2.982   2.514   0.518
10765WAT     H133877   3.034   2.464   0.455
10765WAT     H233878   3.040   2.527   0.592
10766WAT      O33879   3.000   2.522   0.870
10766WAT     H133880   2.905   2.519   0.882
10766WAT     H233881   3.018   2.613   0.847
10767WAT      O33882   1.519   1.878   0.675
10767WAT     H133883   1.584   1.823   0.631
10767WAT     H233884   1.561   1.903   0.758
10768WAT      O33885   3.074   2.303   0.365
10768WAT     H133886   3.063   2.288   0.459
10768WAT     H233887   3.150   2.250   0.341
10769WAT      O33888   2.908   1.897   1.011
10769WAT     H133889   2.972   1.958   1.048
10769WAT     H233890   2.923   1.901   0.917
10770WAT      O33891   2.864   3.567   0.351
10770WAT     H133892   2.924   3.535   0.284
10770WAT     H233893   2.890   3.520   0.430
10771WAT      O33894   1.494   1.893   0.950
10771WAT     H133895   1.459   1.939   1.026
10771WAT     H233896   1.461   1.804   0.958
10772WAT      O33897   1.655   3.210   1.366
10772WAT     H133898   1.650   3.173   1.454
10772WAT     H233899   1.668   3.304   1.380
10773WAT      O33900   2.025   3.366   0.926
10773WAT     H133901   2.001   3.393   0.838
10773WAT     H233902   2.119   3.383   0.932
10774WAT      O33903   2.245   2.012   1.302
10774WAT     H133904   2.239   2.072   1.377
10774WAT     H233905   2.339   2.002   1.287
10775WAT      O33906   2.509   1.978   1.266
10775WAT     H133907   2.570   2.010   1.200
10775WAT     H233908   2.564   1.930   1.328
10776WAT      O33909   3.151   3.568   1.006
10776WAT     H133910   3.101   3.608   0.935
10776WAT     H233911   3.090   3.506   1.046
10777WAT      O33912   1.561   1.846   1.277
10777WAT     H133913   1.616   1.828   1.201
10777WAT     H233914   1.568   1.767   1.331
10778WAT      O33915   1.639   3.505   1.078
10778WAT     H133916   1.579   3.492   1.152
10778WAT     H233917   1.638   3.421   1.032
10779WAT      O33918   2.583   1.834   0.899
10779WAT     H133919   2.496   1.868   0.878
10779WAT     H233920   2.572   1.787   0.981
10780WAT      O33921   2.674   2.055   1.037
10780WAT     H133922   2.641   1.974   0.999
10780WAT     H233923   2.769   2.051   1.025
10781WAT      O33924   2.919   3.632   0.734
10781WAT     H133925   2.873   3.707   0.697
10781WAT     H233926   2.856   3.560   0.728
10782WAT      O33927   1.602   3.242   0.973
10782WAT     H133928   1.529   3.180   0.967
10782WAT     H233929   1.608   3.281   0.886
10783WAT      O33930   1.962   3.463   0.652
10783WAT     H133931   2.014   3.402   0.599
10783WAT     H233932   2.027   3.513   0.701
10784WAT      O33933   2.236   3.552   0.734
10784WAT     H133934   2.265   3.527   0.647
10784WAT     H233935   2.287   3.497   0.794
10785WAT      O33936   2.358   1.926   0.792
10785WAT     H133937   2.280   1.974   0.820
10785WAT     H233938   2.329   1.836   0.782
10786WAT      O33939   2.813   1.996   0.597
10786WAT     H133940   2.857   1.991   0.512
10786WAT     H233941   2.786   2.088   0.604
10787WAT      O33942   2.999   1.959   0.398
10787WAT     H133943   2.993   1.865   0.383
10787WAT     H233944   3.077   1.970   0.453
10788WAT      O33945   1.430   3.573   0.294
10788WAT     H133946   1.413   3.510   0.364
10788WAT     H233947   1.343   3.594   0.259
10789WAT      O33948   2.146   2.168   0.344
10789WAT     H133949   2.065   2.131   0.310
10789WAT     H233950   2.197   2.092   0.374
10790WAT      O33951   2.597   1.834   0.467
10790WAT     H133952   2.657   1.892   0.515
10790WAT     H233953   2.523   1.891   0.445
10791WAT      O33954   1.949   1.983   0.204
10791WAT     H133955   1.886   1.913   0.221
10791WAT     H233956   1.895   2.059   0.182
10792WAT      O33957   2.243   3.644   1.471
10792WAT     H133958   2.336   3.621   1.476
10792WAT     H233959   2.241   3.727   1.423
10793WAT      O33960   1.961   1.911   1.448
10793WAT     H133961   1.933   1.961   1.371
10793WAT     H233962   2.000   1.831   1.411
10794WAT      O33963   2.622   1.852   1.505
10794WAT     H133964   2.610   1.884   1.595
10794WAT     H233965   2.703   1.892   1.476
10795WAT      O33966   2.900   3.567   1.454
10795WAT     H133967   2.979   3.518   1.433
10795WAT     H233968   2.929   3.635   1.514
10796WAT      O33969   2.512   0.777   6.051
10796WAT     H133970   2.504   0.685   6.024
10796WAT     H233971   2.471   0.827   5.981
10797WAT      O33972   2.325   0.955   6.240
10797WAT     H133973   2.248   0.907   6.269
10797WAT     H233974   2.391   0.887   6.222
10798WAT      O33975   1.727   0.986   6.327
10798WAT     H133976   1.644   0.960   6.367
10798WAT     H233977   1.788   0.993   6.401
10799WAT      O33978   2.727   1.395   6.118
10799WAT     H133979   2.681   1.318   6.150
10799WAT     H233980   2.809   1.398   6.168
10800WAT      O33981   1.725   1.389   6.347
10800WAT     H133982   1.755   1.300   6.329
10800WAT     H233983   1.799   1.445   6.324
10801WAT      O33984   1.568   0.482   5.706
10801WAT     H133985   1.479   0.516   5.696
10801WAT     H233986   1.596   0.462   5.617
10802WAT      O33987   1.364   0.742   6.294
10802WAT     H133988   1.421   0.665   6.294
10802WAT     H233989   1.364   0.772   6.203
10803WAT      O33990   2.350   1.624   6.080
10803WAT     H133991   2.288   1.669   6.023
10803WAT     H233992   2.436   1.639   6.039
10804WAT      O33993   2.269   1.222   6.240
10804WAT     H133994   2.263   1.128   6.224
10804WAT     H233995   2.346   1.231   6.297
10805WAT      O33996   1.489   0.283   6.473
10805WAT     H133997   1.471   0.193   6.501
10805WAT     H233998   1.448   0.337   6.540
10806WAT      O33999   2.373   0.503   6.263
10806WAT     H134000   2.410   0.416   6.252
10806WAT     H234001   2.363   0.537   6.174
10807WAT      O34002   1.786   0.340   5.809
10807WAT     H134003   1.796   0.430   5.840
10807WAT     H234004   1.695   0.335   5.780
10808WAT      O34005   2.751   0.252   5.956
10808WAT     H134006   2.833   0.203   5.960
10808WAT     H234007   2.754   0.311   6.032
10809WAT      O34008   1.550   0.532   6.334
10809WAT     H134009   1.619   0.559   6.396
10809WAT     H234010   1.519   0.448   6.367
10810WAT      O34011   1.970   0.637   6.242
10810WAT     H134012   2.020   0.687   6.306
10810WAT     H234013   2.023   0.559   6.225
10811WAT      O34014   2.437   1.112   5.819
10811WAT     H134015   2.375   1.159   5.763
10811WAT     H234016   2.488   1.181   5.861
10812WAT      O34017   1.923   1.065   6.487
10812WAT     H134018   1.890   1.128   6.551
10812WAT     H234019   1.941   1.118   6.409
10813WAT      O34020   2.774   0.446   6.234
10813WAT     H134021   2.704   0.475   6.292
10813WAT     H234022   2.811   0.527   6.198
10814WAT      O34023   1.766   0.272   6.470
10814WAT     H134024   1.800   0.357   6.440
10814WAT     H234025   1.672   0.287   6.481
10815WAT      O34026   1.374   1.181   5.556
10815WAT     H134027   1.336   1.230   5.483
10815WAT     H234028   1.399   1.248   5.619
10816WAT      O34029   2.936   1.408   6.460
10816WAT     H134030   2.868   1.475   6.459
10816WAT     H234031   2.990   1.428   6.383
10817WAT      O34032   3.081   0.391   6.273
10817WAT     H134033   2.987   0.394   6.286
10817WAT     H234034   3.114   0.472   6.311
10818WAT      O34035   2.690   1.593   6.331
10818WAT     H134036   2.691   1.552   6.244
10818WAT     H234037   2.634   1.670   6.321
10819WAT      O34038   2.819   1.265   5.840
10819WAT     H134039   2.808   1.171   5.853
10819WAT     H234040   2.819   1.301   5.929
10820WAT      O34041   2.629   1.083   6.464
10820WAT     H134042   2.671   1.062   6.381
10820WAT     H234043   2.702   1.109   6.521
10821WAT      O34044   2.373   0.827   5.776
10821WAT     H134045   2.281   0.821   5.799
10821WAT     H234046   2.389   0.921   5.764
10822WAT      O34047   2.372   0.455   5.475
10822WAT     H134048   2.278   0.471   5.484
10822WAT     H234049   2.404   0.526   5.421
10823WAT      O34050   3.024   0.923   6.473
10823WAT     H134051   2.941   0.930   6.426
10823WAT     H234052   3.084   0.981   6.426
10824WAT      O34053   2.776   0.984   5.826
10824WAT     H134054   2.714   0.950   5.761
10824WAT     H234055   2.774   0.919   5.897
10825WAT      O34056   2.720   0.601   6.568
10825WAT     H134057   2.679   0.684   6.593
10825WAT     H234058   2.647   0.543   6.549
10826WAT      O34059   1.934   0.880   6.054
10826WAT     H134060   1.893   0.809   6.004
10826WAT     H234061   1.942   0.846   6.143
10827WAT      O34062   1.981   1.249   6.270
10827WAT     H134063   1.951   1.188   6.202
10827WAT     H234064   2.076   1.253   6.259
10828WAT      O34065   1.805   0.558   6.432
10828WAT     H134066   1.860   0.568   6.354
10828WAT     H234067   1.857   0.595   6.504
10829WAT      O34068   2.789   1.606   6.637
10829WAT     H134069   2.742   1.687   6.617
10829WAT     H234070   2.721   1.541   6.652
10830WAT      O34071   2.594   0.908   5.527
10830WAT     H134072   2.638   0.824   5.512
10830WAT     H234073   2.665   0.971   5.535
10831WAT      O34074   2.405   1.401   5.924
10831WAT     H134075   2.449   1.476   5.882
10831WAT     H234076   2.399   1.426   6.016
10832WAT      O34077   1.604   0.770   5.804
10832WAT     H134078   1.592   0.842   5.743
10832WAT     H234079   1.573   0.693   5.756
10833WAT      O34080   1.368   1.087   6.385
10833WAT     H134081   1.376   1.100   6.290
10833WAT     H234082   1.429   1.016   6.404
10834WAT      O34083   1.492   1.257   6.026
10834WAT     H134084   1.451   1.271   5.940
10834WAT     H234085   1.581   1.228   6.005
10835WAT      O34086   2.672   1.700   5.659
10835WAT     H134087   2.656   1.671   5.749
10835WAT     H234088   2.655   1.623   5.606
10836WAT      O34089   1.919   1.678   5.837
10836WAT     H134090   1.902   1.586   5.816
10836WAT     H234091   1.834   1.714   5.861
10837WAT      O34092   2.642   1.451   5.515
10837WAT     H134093   2.572   1.451   5.449
10837WAT     H234094   2.716   1.409   5.472
10838WAT      O34095   2.598   1.614   5.923
10838WAT     H134096   2.644   1.536   5.954
10838WAT     H234097   2.632   1.685   5.977
10839WAT      O34098   1.830   0.616   5.915
10839WAT     H134099   1.807   0.595   6.006
10839WAT     H234100   1.752   0.659   5.881
10840WAT      O34101   2.553   0.617   5.775
10840WAT     H134102   2.493   0.689   5.757
10840WAT     H234103   2.607   0.611   5.697
10841WAT      O34104   2.413   0.480   5.978
10841WAT     H134105   2.453   0.512   5.897
10841WAT     H234106   2.449   0.393   5.989
10842WAT      O34107   1.336   0.534   5.321
10842WAT     H134108   1.327   0.628   5.336
10842WAT     H234109   1.300   0.519   5.233
10843WAT      O34110   2.472   0.740   6.388
10843WAT     H134111   2.399   0.790   6.422
10843WAT     H234112   2.432   0.658   6.357
10844WAT      O34113   2.116   0.407   6.228
10844WAT     H134114   2.116   0.363   6.143
10844WAT     H234115   2.205   0.439   6.239
10845WAT      O34116   1.701   0.395   6.124
10845WAT     H134117   1.667   0.443   6.200
10845WAT     H234118   1.624   0.350   6.088
10846WAT      O34119   2.122   0.507   5.527
10846WAT     H134120   2.134   0.503   5.622
10846WAT     H234121   2.083   0.593   5.512
10847WAT      O34122   2.518   0.285   6.329
10847WAT     H134123   2.520   0.330   6.413
10847WAT     H234124   2.493   0.195   6.350
10848WAT      O34125   2.023   0.738   5.467
10848WAT     H134126   1.966   0.693   5.404
10848WAT     H234127   2.094   0.774   5.414
10849WAT      O34128   2.146   0.813   6.403
10849WAT     H134129   2.182   0.766   6.477
10849WAT     H234130   2.127   0.901   6.437
10850WAT      O34131   1.432   0.288   6.016
10850WAT     H134132   1.404   0.251   6.099
10850WAT     H234133   1.426   0.214   5.954
10851WAT      O34134   1.777   1.138   5.694
10851WAT     H134135   1.700   1.084   5.678
10851WAT     H234136   1.850   1.086   5.660
10852WAT      O34137   2.853   1.037   6.273
10852WAT     H134138   2.925   1.087   6.234
10852WAT     H234139   2.833   0.970   6.209
10853WAT      O34140   2.399   0.177   5.688
10853WAT     H134141   2.318   0.127   5.680
10853WAT     H234142   2.380   0.261   5.646
10854WAT      O34143   2.671   0.614   5.517
10854WAT     H134144   2.760   0.645   5.500
10854WAT     H234145   2.668   0.527   5.478
10855WAT      O34146   1.782   1.105   6.058
10855WAT     H134147   1.834   1.024   6.053
10855WAT     H234148   1.737   1.098   6.142
10856WAT      O34149   2.271   1.231   5.585
10856WAT     H134150   2.305   1.306   5.536
10856WAT     H234151   2.188   1.263   5.622
10857WAT      O34152   2.898   0.745   5.464
10857WAT     H134153   2.890   0.788   5.379
10857WAT     H234154   2.970   0.791   5.507
10858WAT      O34155   3.001   1.431   5.737
10858WAT     H134156   2.937   1.365   5.764
10858WAT     H234157   2.962   1.471   5.659
10859WAT      O34158   2.559   1.163   6.122
10859WAT     H134159   2.594   1.104   6.056
10859WAT     H234160   2.470   1.131   6.139
10860WAT      O34161   2.167   1.239   5.862
10860WAT     H134162   2.236   1.294   5.901
10860WAT     H234163   2.089   1.294   5.866
10861WAT      O34164   1.381   0.801   5.412
10861WAT     H134165   1.468   0.829   5.440
10861WAT     H234166   1.332   0.882   5.400
10862WAT      O34167   2.098   0.940   5.824
10862WAT     H134168   2.143   1.021   5.846
10862WAT     H234169   2.063   0.908   5.907
10863WAT      O34170   2.328   1.491   6.547
10863WAT     H134171   2.392   1.512   6.614
10863WAT     H234172   2.364   1.415   6.501
10864WAT      O34173   2.455   1.291   6.418
10864WAT     H134174   2.520   1.221   6.430
10864WAT     H234175   2.508   1.369   6.400
10865WAT      O34176   1.418   1.722   5.468
10865WAT     H134177   1.454   1.782   5.403
10865WAT     H234178   1.404   1.777   5.546
10866WAT      O34179   2.798   1.111   5.557
10866WAT     H134180   2.769   1.158   5.636
10866WAT     H234181   2.878   1.065   5.584
10867WAT      O34182   2.020   1.461   5.550
10867WAT     H134183   2.019   1.534   5.488
10867WAT     H234184   1.928   1.436   5.559
10868WAT      O34185   1.580   0.983   5.624
10868WAT     H134186   1.519   1.057   5.625
10868WAT     H234187   1.627   0.992   5.542
10869WAT      O34188   2.537   0.399   6.592
10869WAT     H134189   2.574   0.317   6.625
10869WAT     H234190   2.451   0.405   6.634
10870WAT      O34191   2.874   0.295   5.673
10870WAT     H134192   2.811   0.305   5.601
10870WAT     H234193   2.824   0.317   5.752
10871WAT      O34194   2.318   1.467   5.416
10871WAT     H134195   2.329   1.447   5.323
10871WAT     H234196   2.228   1.442   5.437
10872WAT      O34197   2.071   0.523   5.814
10872WAT     H134198   2.000   0.570   5.859
10872WAT     H234199   2.099   0.457   5.878
10873WAT      O34200   2.474   0.195   5.958
10873WAT     H134201   2.461   0.197   5.864
10873WAT     H234202   2.569   0.200   5.970
10874WAT      O34203   2.183   1.719   5.886
10874WAT     H134204   2.208   1.715   5.793
10874WAT     H234205   2.088   1.706   5.885
10875WAT      O34206   1.891   0.354   5.552
10875WAT     H134207   1.976   0.397   5.545
10875WAT     H234208   1.854   0.385   5.635
10876WAT      O34209   2.783   0.811   6.043
10876WAT     H134210   2.689   0.812   6.061
10876WAT     H234211   2.815   0.732   6.088
10877WAT      O34212   1.781   0.979   5.399
10877WAT     H134213   1.858   0.968   5.456
10877WAT     H234214   1.789   0.909   5.334
10878WAT      O34215   1.650   0.722   5.468
10878WAT     H134216   1.658   0.627   5.479
10878WAT     H234217   1.740   0.755   5.478
10879WAT      O34218   2.983   1.528   6.211
10879WAT     H134219   2.996   1.610   6.258
10879WAT     H234220   3.070   1.507   6.176
10880WAT      O34221   1.731   1.737   6.178
10880WAT     H134222   1.804   1.682   6.205
10880WAT     H234223   1.769   1.824   6.164
10881WAT      O34224   1.419   1.344   5.765
10881WAT     H134225   1.326   1.368   5.764
10881WAT     H234226   1.466   1.427   5.753
10882WAT      O34227   2.042   1.654   5.360
10882WAT     H134228   2.121   1.683   5.315
10882WAT     H234229   1.990   1.611   5.292
10883WAT      O34230   2.093   1.177   5.347
10883WAT     H134231   2.083   1.115   5.419
10883WAT     H234232   2.077   1.124   5.268
10884WAT      O34233   2.417   1.083   5.407
10884WAT     H134234   2.362   1.127   5.472
10884WAT     H234235   2.480   1.032   5.459
10885WAT      O34236   1.984   0.979   5.597
10885WAT     H134237   2.026   0.962   5.681
10885WAT     H234238   1.997   0.898   5.547
10886WAT      O34239   2.235   0.881   5.322
10886WAT     H134240   2.287   0.809   5.285
10886WAT     H234241   2.300   0.945   5.352
10887WAT      O34242   2.166   1.018   6.651
10887WAT     H134243   2.208   1.103   6.634
10887WAT     H234244   2.074   1.032   6.628
10888WAT      O34245   1.874   0.586   5.291
10888WAT     H134246   1.854   0.500   5.327
10888WAT     H234247   1.857   0.577   5.198
10889WAT      O34248   1.754   0.296   5.290
10889WAT     H134249   1.784   0.297   5.199
10889WAT     H234250   1.827   0.261   5.340
10890WAT      O34251   2.292   1.689   5.551
10890WAT     H134252   2.381   1.723   5.553
10890WAT     H234253   2.295   1.617   5.488
10891WAT      O34254   1.656   1.226   5.373
10891WAT     H134255   1.700   1.281   5.439
10891WAT     H234256   1.704   1.144   5.374
10892WAT      O34257   1.377   1.505   6.119
10892WAT     H134258   1.410   1.418   6.095
10892WAT     H234259   1.420   1.526   6.202
10893WAT      O34260   1.837   1.338   5.885
10893WAT     H134261   1.807   1.326   5.975
10893WAT     H234262   1.826   1.252   5.844
10894WAT      O34263   1.426   1.592   6.392
10894WAT     H134264   1.382   1.610   6.476
10894WAT     H234265   1.483   1.668   6.378
10895WAT      O34266   3.114   1.316   5.355
10895WAT     H134267   3.031   1.323   5.402
10895WAT     H234268   3.132   1.405   5.325
10896WAT      O34269   3.059   0.991   5.605
10896WAT     H134270   3.136   1.048   5.616
10896WAT     H234271   3.061   0.934   5.682
10897WAT      O34272   1.409   0.843   6.028
10897WAT     H134273   1.344   0.816   5.964
10897WAT     H234274   1.493   0.832   5.983
10898WAT      O34275   3.160   1.076   6.090
10898WAT     H134276   3.197   0.998   6.049
10898WAT     H234277   3.224   1.145   6.072
10899WAT      O34278   3.065   1.020   5.321
10899WAT     H134279   3.092   1.111   5.308
10899WAT     H234280   3.046   1.014   5.415
10900WAT      O34281   2.704   0.323   5.450
10900WAT     H134282   2.746   0.304   5.366
10900WAT     H234283   2.674   0.237   5.482
10901WAT      O34284   3.054   0.814   5.820
10901WAT     H134285   3.017   0.737   5.777
10901WAT     H234286   2.981   0.852   5.869
10902WAT      O34287   1.513   0.882   6.482
10902WAT     H134288   1.550   0.873   6.570
10902WAT     H234289   1.456   0.805   6.472
10903WAT      O34290   1.331   0.564   5.623
10903WAT     H134291   1.240   0.590   5.605
10903WAT     H234292   1.379   0.591   5.545
10904WAT      O34293   2.982   0.636   6.150
10904WAT     H134294   3.034   0.587   6.087
10904WAT     H234295   3.040   0.650   6.225
10905WAT      O34296   3.000   0.645   6.503
10905WAT     H134297   2.905   0.641   6.514
10905WAT     H234298   3.018   0.736   6.479
10906WAT      O34299   1.585   0.470   5.414
10906WAT     H134300   1.656   0.428   5.365
10906WAT     H234301   1.513   0.477   5.350
10907WAT      O34302   2.931   0.562   5.744
10907WAT     H134303   2.980   0.539   5.823
10907WAT     H234304   2.911   0.478   5.703
10908WAT      O34305   3.074   0.426   5.998
10908WAT     H134306   3.063   0.410   6.091
10908WAT     H234307   3.150   0.373   5.973
10909WAT      O34308   3.163   0.209   5.322
10909WAT     H134309   3.255   0.196   5.301
10909WAT     H234310   3.160   0.217   5.417
10910WAT      O34311   3.170   0.286   5.584
10910WAT     H134312   3.090   0.279   5.637
10910WAT     H234313   3.190   0.379   5.583
10911WAT      O34314   2.864   1.690   5.984
10911WAT     H134315   2.924   1.658   5.916
10911WAT     H234316   2.890   1.643   6.063
10912WAT      O34317   2.025   1.489   6.559
10912WAT     H134318   2.001   1.515   6.470
10912WAT     H234319   2.119   1.506   6.564
10913WAT      O34320   2.919   1.755   6.367
10913WAT     H134321   2.873   1.830   6.329
10913WAT     H234322   2.856   1.683   6.361
10914WAT      O34323   1.602   1.364   6.606
10914WAT     H134324   1.529   1.302   6.599
10914WAT     H234325   1.608   1.404   6.519
10915WAT      O34326   1.962   1.586   6.284
10915WAT     H134327   2.014   1.525   6.232
10915WAT     H234328   2.027   1.636   6.333
10916WAT      O34329   2.236   1.675   6.367
10916WAT     H134330   2.265   1.649   6.279
10916WAT     H234331   2.287   1.620   6.426
10917WAT      O34332   1.430   1.696   5.927
10917WAT     H134333   1.413   1.633   5.996
10917WAT     H234334   1.343   1.717   5.892
10918WAT      O34335   2.146   0.291   5.976
10918WAT     H134336   2.065   0.253   5.942
10918WAT     H234337   2.197   0.215   6.006
10919WAT      O34338   1.591   1.565   5.671
10919WAT     H134339   1.538   1.603   5.601
10919WAT     H234340   1.583   1.628   5.743
10920WAT      O34341   3.066   1.721   5.803
10920WAT     H134342   3.084   1.653   5.739
10920WAT     H234343   2.997   1.774   5.764
10921WAT      O34344   1.851   1.760   5.559
10921WAT     H134345   1.924   1.732   5.504
10921WAT     H234346   1.876   1.736   5.648
10922WAT      O34347   1.767   1.372   5.559
10922WAT     H134348   1.704   1.419   5.614
10922WAT     H234349   1.778   1.287   5.602
10923WAT      O34350   2.512   0.777   4.174
10923WAT     H134351   2.504   0.685   4.147
10923WAT     H234352   2.471   0.827   4.103
10924WAT      O34353   2.325   0.955   4.362
10924WAT     H134354   2.248   0.907   4.391
10924WAT     H234355   2.391   0.887   4.345
10925WAT      O34356   1.727   0.986   4.450
10925WAT     H134357   1.644   0.960   4.490
10925WAT     H234358   1.788   0.993   4.523
10926WAT      O34359   2.727   1.395   4.240
10926WAT     H134360   2.681   1.318   4.273
10926WAT     H234361   2.809   1.398   4.291
10927WAT      O34362   1.725   1.389   4.469
10927WAT     H134363   1.755   1.300   4.452
10927WAT     H234364   1.799   1.445   4.447
10928WAT      O34365   1.568   0.482   3.828
10928WAT     H134366   1.479   0.516   3.818
10928WAT     H234367   1.596   0.462   3.739
10929WAT      O34368   1.364   0.742   4.417
10929WAT     H134369   1.421   0.665   4.417
10929WAT     H234370   1.364   0.772   4.326
10930WAT      O34371   2.269   1.222   4.363
10930WAT     H134372   2.263   1.128   4.347
10930WAT     H234373   2.346   1.231   4.420
10931WAT      O34374   1.489   0.283   4.595
10931WAT     H134375   1.471   0.193   4.623
10931WAT     H234376   1.448   0.337   4.663
10932WAT      O34377   2.373   0.503   4.386
10932WAT     H134378   2.410   0.416   4.374
10932WAT     H234379   2.363   0.537   4.296
10933WAT      O34380   1.786   0.340   3.932
10933WAT     H134381   1.796   0.430   3.962
10933WAT     H234382   1.695   0.335   3.903
10934WAT      O34383   2.751   0.252   4.079
10934WAT     H134384   2.833   0.203   4.083
10934WAT     H234385   2.754   0.311   4.154
10935WAT      O34386   1.550   0.532   4.456
10935WAT     H134387   1.619   0.559   4.518
10935WAT     H234388   1.519   0.448   4.490
10936WAT      O34389   1.970   0.637   4.365
10936WAT     H134390   2.020   0.687   4.429
10936WAT     H234391   2.023   0.559   4.347
10937WAT      O34392   3.180   0.454   4.735
10937WAT     H134393   3.109   0.493   4.683
10937WAT     H234394   3.206   0.524   4.795
10938WAT      O34395   2.437   1.112   3.941
10938WAT     H134396   2.375   1.159   3.885
10938WAT     H234397   2.488   1.181   3.983
10939WAT      O34398   1.923   1.065   4.609
10939WAT     H134399   1.890   1.128   4.674
10939WAT     H234400   1.941   1.118   4.531
10940WAT      O34401   2.774   0.446   4.356
10940WAT     H134402   2.704   0.475   4.414
10940WAT     H234403   2.811   0.527   4.320
10941WAT      O34404   1.766   0.272   4.592
10941WAT     H134405   1.800   0.357   4.563
10941WAT     H234406   1.672   0.287   4.604
10942WAT      O34407   1.844   1.262   4.791
10942WAT     H134408   1.906   1.329   4.763
10942WAT     H234409   1.758   1.303   4.782
10943WAT      O34410   1.374   1.181   3.679
10943WAT     H134411   1.336   1.230   3.606
10943WAT     H234412   1.399   1.248   3.742
10944WAT      O34413   2.936   1.408   4.582
10944WAT     H134414   2.868   1.475   4.582
10944WAT     H234415   2.990   1.428   4.506
10945WAT      O34416   3.081   0.391   4.395
10945WAT     H134417   2.987   0.394   4.408
10945WAT     H234418   3.114   0.472   4.434
10946WAT      O34419   2.819   1.265   3.963
10946WAT     H134420   2.808   1.171   3.975
10946WAT     H234421   2.819   1.301   4.051
10947WAT      O34422   2.629   1.083   4.587
10947WAT     H134423   2.671   1.062   4.503
10947WAT     H234424   2.702   1.109   4.644
10948WAT      O34425   2.373   0.827   3.898
10948WAT     H134426   2.281   0.821   3.921
10948WAT     H234427   2.389   0.921   3.887
10949WAT      O34428   2.372   0.455   3.598
10949WAT     H134429   2.278   0.471   3.607
10949WAT     H234430   2.404   0.526   3.543
10950WAT      O34431   3.024   0.923   4.596
10950WAT     H134432   2.941   0.930   4.548
10950WAT     H234433   3.084   0.981   4.549
10951WAT      O34434   2.776   0.984   3.949
10951WAT     H134435   2.714   0.950   3.884
10951WAT     H234436   2.774   0.919   4.019
10952WAT      O34437   2.720   0.601   4.690
10952WAT     H134438   2.679   0.684   4.716
10952WAT     H234439   2.647   0.543   4.671
10953WAT      O34440   1.934   0.880   4.177
10953WAT     H134441   1.893   0.809   4.127
10953WAT     H234442   1.942   0.846   4.265
10954WAT      O34443   1.981   1.249   4.393
10954WAT     H134444   1.951   1.188   4.325
10954WAT     H234445   2.076   1.253   4.382
10955WAT      O34446   1.805   0.558   4.555
10955WAT     H134447   1.860   0.568   4.477
10955WAT     H234448   1.857   0.595   4.626
10956WAT      O34449   1.890   1.223   5.058
10956WAT     H134450   1.800   1.245   5.083
10956WAT     H234451   1.892   1.235   4.963
10957WAT      O34452   2.594   0.908   3.649
10957WAT     H134453   2.638   0.824   3.635
10957WAT     H234454   2.665   0.971   3.658
10958WAT      O34455   1.773   0.910   4.916
10958WAT     H134456   1.759   0.997   4.952
10958WAT     H234457   1.684   0.875   4.901
10959WAT      O34458   1.952   1.504   5.136
10959WAT     H134459   1.949   1.544   5.050
10959WAT     H234460   1.936   1.411   5.120
10960WAT      O34461   1.604   0.770   3.927
10960WAT     H134462   1.592   0.842   3.865
10960WAT     H234463   1.573   0.693   3.879
10961WAT      O34464   1.368   1.087   4.507
10961WAT     H134465   1.376   1.100   4.413
10961WAT     H234466   1.429   1.016   4.527
10962WAT      O34467   1.492   1.257   4.148
10962WAT     H134468   1.451   1.271   4.063
10962WAT     H234469   1.581   1.228   4.128
10963WAT      O34470   3.088   1.301   4.982
10963WAT     H134471   3.100   1.277   4.890
10963WAT     H234472   3.092   1.218   5.029
10964WAT      O34473   2.672   1.700   3.782
10964WAT     H134474   2.656   1.671   3.872
10964WAT     H234475   2.655   1.623   3.728
10965WAT      O34476   2.642   1.451   3.638
10965WAT     H134477   2.572   1.451   3.572
10965WAT     H234478   2.716   1.409   3.595
10966WAT      O34479   2.598   1.614   4.045
10966WAT     H134480   2.644   1.536   4.077
10966WAT     H234481   2.632   1.685   4.100
10967WAT      O34482   3.073   0.507   5.079
10967WAT     H134483   3.012   0.557   5.026
10967WAT     H234484   3.041   0.417   5.073
10968WAT      O34485   1.373   1.191   4.761
10968WAT     H134486   1.390   1.144   4.679
10968WAT     H234487   1.420   1.140   4.828
10969WAT      O34488   2.279   0.391   4.825
10969WAT     H134489   2.233   0.411   4.906
10969WAT     H234490   2.239   0.309   4.795
10970WAT      O34491   2.779   0.513   4.938
10970WAT     H134492   2.694   0.483   4.970
10970WAT     H234493   2.763   0.537   4.847
10971WAT      O34494   2.489   0.663   5.148
10971WAT     H134495   2.521   0.579   5.114
10971WAT     H234496   2.568   0.715   5.163
10972WAT      O34497   1.830   0.616   4.038
10972WAT     H134498   1.807   0.595   4.128
10972WAT     H234499   1.752   0.659   4.003
10973WAT      O34500   2.553   0.617   3.898
10973WAT     H134501   2.493   0.689   3.879
10973WAT     H234502   2.607   0.611   3.819
10974WAT      O34503   2.074   0.706   5.104
10974WAT     H134504   2.064   0.612   5.089
10974WAT     H234505   2.158   0.728   5.065
10975WAT      O34506   2.413   0.480   4.101
10975WAT     H134507   2.453   0.512   4.019
10975WAT     H234508   2.449   0.393   4.112
10976WAT      O34509   1.587   0.347   4.920
10976WAT     H134510   1.547   0.432   4.940
10976WAT     H234511   1.518   0.283   4.939
10977WAT      O34512   2.244   0.356   5.227
10977WAT     H134513   2.175   0.336   5.290
10977WAT     H234514   2.319   0.384   5.280
10978WAT      O34515   1.336   0.534   3.444
10978WAT     H134516   1.327   0.628   3.458
10978WAT     H234517   1.300   0.519   3.356
10979WAT      O34518   2.472   0.740   4.510
10979WAT     H134519   2.399   0.790   4.545
10979WAT     H234520   2.432   0.658   4.480
10980WAT      O34521   2.116   0.407   4.351
10980WAT     H134522   2.116   0.363   4.266
10980WAT     H234523   2.205   0.439   4.361
10981WAT      O34524   1.701   0.395   4.247
10981WAT     H134525   1.667   0.443   4.322
10981WAT     H234526   1.624   0.350   4.211
10982WAT      O34527   2.122   0.507   3.650
10982WAT     H134528   2.134   0.503   3.745
10982WAT     H234529   2.083   0.593   3.634
10983WAT      O34530   2.518   0.285   4.451
10983WAT     H134531   2.520   0.330   4.536
10983WAT     H234532   2.493   0.195   4.473
10984WAT      O34533   2.023   0.738   3.590
10984WAT     H134534   1.966   0.693   3.527
10984WAT     H234535   2.094   0.774   3.536
10985WAT      O34536   1.531   1.128   4.977
10985WAT     H134537   1.492   1.064   5.037
10985WAT     H234538   1.562   1.199   5.034
10986WAT      O34539   2.146   0.813   4.525
10986WAT     H134540   2.182   0.766   4.600
10986WAT     H234541   2.127   0.901   4.559
10987WAT      O34542   1.432   0.288   4.138
10987WAT     H134543   1.404   0.251   4.222
10987WAT     H234544   1.426   0.214   4.077
10988WAT      O34545   1.925   0.717   4.757
10988WAT     H134546   1.894   0.805   4.780
10988WAT     H234547   2.020   0.723   4.761
10989WAT      O34548   1.777   1.138   3.817
10989WAT     H134549   1.700   1.084   3.801
10989WAT     H234550   1.850   1.086   3.783
10990WAT      O34551   2.853   1.037   4.396
10990WAT     H134552   2.925   1.087   4.357
10990WAT     H234553   2.833   0.970   4.332
10991WAT      O34554   2.399   0.177   3.810
10991WAT     H134555   2.318   0.127   3.803
10991WAT     H234556   2.380   0.261   3.769
10992WAT      O34557   2.392   1.045   4.985
10992WAT     H134558   2.385   0.952   4.959
10992WAT     H234559   2.329   1.054   5.056
10993WAT      O34560   2.671   0.614   3.640
10993WAT     H134561   2.760   0.645   3.622
10993WAT     H234562   2.668   0.527   3.601
10994WAT      O34563   1.782   1.105   4.181
10994WAT     H134564   1.834   1.024   4.175
10994WAT     H234565   1.737   1.098   4.265
10995WAT      O34566   2.271   1.231   3.708
10995WAT     H134567   2.305   1.306   3.658
10995WAT     H234568   2.188   1.263   3.744
10996WAT      O34569   1.530   0.801   4.872
10996WAT     H134570   1.494   0.868   4.931
10996WAT     H234571   1.501   0.718   4.909
10997WAT      O34572   1.850   0.847   5.160
10997WAT     H134573   1.820   0.862   5.071
10997WAT     H234574   1.928   0.791   5.151
10998WAT      O34575   2.898   0.745   3.587
10998WAT     H134576   2.890   0.788   3.502
10998WAT     H234577   2.970   0.791   3.630
10999WAT      O34578   3.006   0.991   4.894
10999WAT     H134579   2.933   1.050   4.875
10999WAT     H234580   3.059   0.990   4.815
11000WAT      O34581   3.001   1.431   3.860
11000WAT     H134582   2.937   1.365   3.887
11000WAT     H234583   2.962   1.471   3.782
11001WAT      O34584   2.559   1.163   4.244
11001WAT     H134585   2.594   1.104   4.178
11001WAT     H234586   2.470   1.131   4.261
11002WAT      O34587   2.167   1.239   3.985
11002WAT     H134588   2.236   1.294   4.023
11002WAT     H234589   2.089   1.294   3.989
11003WAT      O34590   1.381   0.801   3.534
11003WAT     H134591   1.468   0.829   3.563
11003WAT     H234592   1.332   0.882   3.523
11004WAT      O34593   2.098   0.940   3.946
11004WAT     H134594   2.143   1.021   3.969
11004WAT     H234595   2.063   0.908   4.029
11005WAT      O34596   2.840   1.320   3.513
11005WAT     H134597   2.817   1.248   3.573
11005WAT     H234598   2.801   1.295   3.430
11006WAT      O34599   1.418   1.722   3.591
11006WAT     H134600   1.454   1.782   3.525
11006WAT     H234601   1.404   1.777   3.668
11007WAT      O34602   2.798   1.111   3.679
11007WAT     H134603   2.769   1.158   3.758
11007WAT     H234604   2.878   1.065   3.706
11008WAT      O34605   1.417   1.549   5.038
11008WAT     H134606   1.427   1.455   5.024
11008WAT     H234607   1.351   1.575   4.973
11009WAT      O34608   2.216   1.376   5.178
11009WAT     H134609   2.184   1.304   5.233
11009WAT     H234610   2.148   1.444   5.186
11010WAT      O34611   2.020   1.461   3.673
11010WAT     H134612   2.019   1.534   3.611
11010WAT     H234613   1.928   1.436   3.682
11011WAT      O34614   1.580   0.983   3.747
11011WAT     H134615   1.519   1.057   3.748
11011WAT     H234616   1.627   0.992   3.664
11012WAT      O34617   2.537   0.399   4.715
11012WAT     H134618   2.574   0.317   4.747
11012WAT     H234619   2.451   0.405   4.756
11013WAT      O34620   2.874   0.295   3.795
11013WAT     H134621   2.811   0.305   3.724
11013WAT     H234622   2.824   0.317   3.874
11014WAT      O34623   2.318   1.467   3.539
11014WAT     H134624   2.329   1.447   3.446
11014WAT     H234625   2.228   1.442   3.559
11015WAT      O34626   2.071   0.523   3.937
11015WAT     H134627   2.000   0.570   3.981
11015WAT     H234628   2.099   0.457   4.000
11016WAT      O34629   2.233   0.665   4.737
11016WAT     H134630   2.283   0.712   4.803
11016WAT     H234631   2.247   0.572   4.758
11017WAT      O34632   2.474   0.195   4.081
11017WAT     H134633   2.461   0.197   3.986
11017WAT     H234634   2.569   0.200   4.093
11018WAT      O34635   1.891   0.354   3.675
11018WAT     H134636   1.976   0.397   3.668
11018WAT     H234637   1.854   0.385   3.757
11019WAT      O34638   2.954   0.286   4.821
11019WAT     H134639   2.904   0.360   4.855
11019WAT     H234640   3.035   0.325   4.790
11020WAT      O34641   2.783   0.811   4.166
11020WAT     H134642   2.689   0.812   4.183
11020WAT     H234643   2.815   0.732   4.210
11021WAT      O34644   1.781   0.979   3.522
11021WAT     H134645   1.858   0.968   3.578
11021WAT     H234646   1.789   0.909   3.457
11022WAT      O34647   1.650   0.722   3.590
11022WAT     H134648   1.658   0.627   3.601
11022WAT     H234649   1.740   0.755   3.601
11023WAT      O34650   2.983   1.528   4.333
11023WAT     H134651   2.996   1.610   4.381
11023WAT     H234652   3.070   1.507   4.299
11024WAT      O34653   1.419   1.344   3.888
11024WAT     H134654   1.326   1.368   3.887
11024WAT     H234655   1.466   1.427   3.876
11025WAT      O34656   1.631   1.656   5.219
11025WAT     H134657   1.711   1.688   5.261
11025WAT     H234658   1.580   1.620   5.292
11026WAT      O34659   2.042   1.654   3.483
11026WAT     H134660   2.121   1.683   3.438
11026WAT     H234661   1.990   1.611   3.415
11027WAT      O34662   2.947   1.577   3.625
11027WAT     H134663   2.918   1.536   3.544
11027WAT     H234664   2.927   1.670   3.613
11028WAT      O34665   1.403   0.904   5.114
11028WAT     H134666   1.453   0.846   5.171
11028WAT     H234667   1.329   0.933   5.168
11029WAT      O34668   2.093   1.177   3.469
11029WAT     H134669   2.083   1.115   3.542
11029WAT     H234670   2.077   1.124   3.391
11030WAT      O34671   2.108   1.045   5.067
11030WAT     H134672   2.032   1.102   5.059
11030WAT     H234673   2.127   1.016   4.978
11031WAT      O34674   2.417   1.083   3.530
11031WAT     H134675   2.362   1.127   3.594
11031WAT     H234676   2.480   1.032   3.582
11032WAT      O34677   2.823   1.218   5.123
11032WAT     H134678   2.897   1.252   5.073
11032WAT     H234679   2.746   1.235   5.068
11033WAT      O34680   1.606   0.719   5.203
11033WAT     H134681   1.610   0.689   5.294
11033WAT     H234682   1.692   0.759   5.187
11034WAT      O34683   1.984   0.979   3.719
11034WAT     H134684   2.026   0.962   3.804
11034WAT     H234685   1.997   0.898   3.670
11035WAT      O34686   1.800   0.577   5.000
11035WAT     H134687   1.747   0.527   4.937
11035WAT     H234688   1.867   0.619   4.947
11036WAT      O34689   2.235   0.881   3.444
11036WAT     H134690   2.287   0.809   3.407
11036WAT     H234691   2.300   0.945   3.474
11037WAT      O34692   2.690   1.023   4.976
11037WAT     H134693   2.732   1.039   5.061
11037WAT     H234694   2.597   1.036   4.993
11038WAT      O34695   2.737   0.757   5.177
11038WAT     H134696   2.796   0.682   5.168
11038WAT     H234697   2.755   0.810   5.099
11039WAT      O34698   1.849   0.273   5.008
11039WAT     H134699   1.840   0.211   4.936
11039WAT     H234700   1.791   0.346   4.985
11040WAT      O34701   2.166   1.018   4.773
11040WAT     H134702   2.208   1.103   4.756
11040WAT     H234703   2.074   1.032   4.750
11041WAT      O34704   2.400   0.792   4.912
11041WAT     H134705   2.412   0.732   4.986
11041WAT     H234706   2.486   0.795   4.870
11042WAT      O34707   2.634   0.847   4.769
11042WAT     H134708   2.581   0.899   4.709
11042WAT     H234709   2.668   0.910   4.832
11043WAT      O34710   1.874   0.586   3.414
11043WAT     H134711   1.854   0.500   3.450
11043WAT     H234712   1.857   0.577   3.320
11044WAT      O34713   1.951   1.649   4.885
11044WAT     H134714   1.898   1.721   4.853
11044WAT     H234715   1.977   1.601   4.806
11045WAT      O34716   2.077   0.446   5.038
11045WAT     H134717   2.136   0.415   5.106
11045WAT     H234718   1.995   0.399   5.053
11046WAT      O34719   2.559   0.408   5.061
11046WAT     H134720   2.490   0.341   5.054
11046WAT     H234721   2.631   0.363   5.105
11047WAT      O34722   1.754   0.296   3.413
11047WAT     H134723   1.784   0.297   3.322
11047WAT     H234724   1.827   0.261   3.462
11048WAT      O34725   2.292   1.689   3.673
11048WAT     H134726   2.381   1.723   3.675
11048WAT     H234727   2.295   1.617   3.610
11049WAT      O34728   1.656   1.226   3.496
11049WAT     H134729   1.700   1.281   3.562
11049WAT     H234730   1.704   1.144   3.497
11050WAT      O34731   1.377   1.505   4.241
11050WAT     H134732   1.410   1.418   4.218
11050WAT     H234733   1.420   1.526   4.324
11051WAT      O34734   1.837   1.338   4.007
11051WAT     H134735   1.807   1.326   4.097
11051WAT     H234736   1.826   1.252   3.966
11052WAT      O34737   1.426   1.592   4.515
11052WAT     H134738   1.382   1.610   4.598
11052WAT     H234739   1.483   1.668   4.501
11053WAT      O34740   3.114   1.316   3.477
11053WAT     H134741   3.031   1.323   3.525
11053WAT     H234742   3.132   1.405   3.447
11054WAT      O34743   3.059   0.991   3.728
11054WAT     H134744   3.136   1.048   3.738
11054WAT     H234745   3.061   0.934   3.805
11055WAT      O34746   1.409   0.843   4.151
11055WAT     H134747   1.344   0.816   4.086
11055WAT     H234748   1.493   0.832   4.106
11056WAT      O34749   3.160   1.076   4.212
11056WAT     H134750   3.197   0.998   4.172
11056WAT     H234751   3.224   1.145   4.194
11057WAT      O34752   2.858   1.215   4.754
11057WAT     H134753   2.777   1.258   4.780
11057WAT     H234754   2.899   1.276   4.692
11058WAT      O34755   3.065   1.020   3.444
11058WAT     H134756   3.092   1.111   3.431
11058WAT     H234757   3.046   1.014   3.537
11059WAT      O34758   2.704   0.323   3.573
11059WAT     H134759   2.746   0.304   3.489
11059WAT     H234760   2.674   0.237   3.604
11060WAT      O34761   3.054   0.814   3.943
11060WAT     H134762   3.017   0.737   3.900
11060WAT     H234763   2.981   0.852   3.992
11061WAT      O34764   1.513   0.882   4.605
11061WAT     H134765   1.550   0.873   4.693
11061WAT     H234766   1.456   0.805   4.595
11062WAT      O34767   2.993   0.729   4.906
11062WAT     H134768   2.970   0.706   4.816
11062WAT     H234769   3.019   0.821   4.902
11063WAT      O34770   1.468   0.573   4.995
11063WAT     H134771   1.379   0.569   5.029
11063WAT     H234772   1.522   0.593   5.072
11064WAT      O34773   2.837   0.251   5.184
11064WAT     H134774   2.925   0.252   5.222
11064WAT     H234775   2.838   0.177   5.123
11065WAT      O34776   1.331   0.564   3.745
11065WAT     H134777   1.240   0.590   3.728
11065WAT     H234778   1.379   0.591   3.667
11066WAT      O34779   2.982   0.636   4.273
11066WAT     H134780   3.034   0.587   4.210
11066WAT     H234781   3.040   0.650   4.347
11067WAT      O34782   3.000   0.645   4.625
11067WAT     H134783   2.905   0.641   4.637
11067WAT     H234784   3.018   0.736   4.602
11068WAT      O34785   1.585   0.470   3.536
11068WAT     H134786   1.656   0.428   3.488
11068WAT     H234787   1.513   0.477   3.473
11069WAT      O34788   2.931   0.562   3.867
11069WAT     H134789   2.980   0.539   3.945
11069WAT     H234790   2.911   0.478   3.825
11070WAT      O34791   3.074   0.426   4.120
11070WAT     H134792   3.063   0.410   4.214
11070WAT     H234793   3.150   0.373   4.096
11071WAT      O34794   3.163   0.209   3.444
11071WAT     H134795   3.255   0.196   3.423
11071WAT     H234796   3.160   0.217   3.540
11072WAT      O34797   3.170   0.286   3.707
11072WAT     H134798   3.090   0.279   3.760
11072WAT     H234799   3.190   0.379   3.706
11073WAT      O34800   2.864   1.690   4.106
11073WAT     H134801   2.924   1.658   4.039
11073WAT     H234802   2.890   1.643   4.185
11074WAT      O34803   1.655   1.333   5.121
11074WAT     H134804   1.650   1.296   5.209
11074WAT     H234805   1.668   1.427   5.135
11075WAT      O34806   1.639   1.628   4.833
11075WAT     H134807   1.579   1.615   4.907
11075WAT     H234808   1.638   1.544   4.787
11076WAT      O34809   1.602   1.364   4.728
11076WAT     H134810   1.529   1.302   4.721
11076WAT     H234811   1.608   1.404   4.641
11077WAT      O34812   1.430   1.696   4.049
11077WAT     H134813   1.413   1.633   4.119
11077WAT     H234814   1.343   1.717   4.014
11078WAT      O34815   2.146   0.291   4.098
11078WAT     H134816   2.065   0.253   4.064
11078WAT     H234817   2.197   0.215   4.129
11079WAT      O34818   1.591   1.565   3.794
11079WAT     H134819   1.538   1.603   3.723
11079WAT     H234820   1.583   1.628   3.866
11080WAT      O34821   3.066   1.721   3.926
11080WAT     H134822   3.084   1.653   3.861
11080WAT     H234823   2.997   1.774   3.887
11081WAT      O34824   1.851   1.760   3.681
11081WAT     H134825   1.924   1.732   3.626
11081WAT     H234826   1.876   1.736   3.770
11082WAT      O34827   1.767   1.372   3.682
11082WAT     H134828   1.704   1.419   3.736
11082WAT     H234829   1.778   1.287   3.725
11083WAT      O34830   2.512   0.777   2.297
11083WAT     H134831   2.504   0.685   2.270
11083WAT     H234832   2.471   0.827   2.226
11084WAT      O34833   2.325   0.955   2.485
11084WAT     H134834   2.248   0.907   2.514
11084WAT     H234835   2.391   0.887   2.467
11085WAT      O34836   1.727   0.986   2.572
11085WAT     H134837   1.644   0.960   2.612
11085WAT     H234838   1.788   0.993   2.646
11086WAT      O34839   2.727   1.395   2.363
11086WAT     H134840   2.681   1.318   2.396
11086WAT     H234841   2.809   1.398   2.413
11087WAT      O34842   1.725   1.389   2.592
11087WAT     H134843   1.755   1.300   2.574
11087WAT     H234844   1.799   1.445   2.569
11088WAT      O34845   1.568   0.482   1.951
11088WAT     H134846   1.479   0.516   1.941
11088WAT     H234847   1.596   0.462   1.862
11089WAT      O34848   1.364   0.742   2.539
11089WAT     H134849   1.421   0.665   2.539
11089WAT     H234850   1.364   0.772   2.448
11090WAT      O34851   2.350   1.624   2.325
11090WAT     H134852   2.288   1.669   2.268
11090WAT     H234853   2.436   1.639   2.285
11091WAT      O34854   2.269   1.222   2.485
11091WAT     H134855   2.263   1.128   2.469
11091WAT     H234856   2.346   1.231   2.543
11092WAT      O34857   1.489   0.283   2.718
11092WAT     H134858   1.471   0.193   2.746
11092WAT     H234859   1.448   0.337   2.785
11093WAT      O34860   2.373   0.503   2.508
11093WAT     H134861   2.410   0.416   2.497
11093WAT     H234862   2.363   0.537   2.419
11094WAT      O34863   1.786   0.340   2.054
11094WAT     H134864   1.796   0.430   2.085
11094WAT     H234865   1.695   0.335   2.025
11095WAT      O34866   2.751   0.252   2.201
11095WAT     H134867   2.833   0.203   2.206
11095WAT     H234868   2.754   0.311   2.277
11096WAT      O34869   1.550   0.532   2.579
11096WAT     H134870   1.619   0.559   2.641
11096WAT     H234871   1.519   0.448   2.612
11097WAT      O34872   1.970   0.637   2.488
11097WAT     H134873   2.020   0.687   2.552
11097WAT     H234874   2.023   0.559   2.470
11098WAT      O34875   3.180   0.454   2.858
11098WAT     H134876   3.109   0.493   2.806
11098WAT     H234877   3.206   0.524   2.918
11099WAT      O34878   2.437   1.112   2.064
11099WAT     H134879   2.375   1.159   2.008
11099WAT     H234880   2.488   1.181   2.106
11100WAT      O34881   1.923   1.065   2.732
11100WAT     H134882   1.890   1.128   2.796
11100WAT     H234883   1.941   1.118   2.654
11101WAT      O34884   2.774   0.446   2.479
11101WAT     H134885   2.704   0.475   2.537
11101WAT     H234886   2.811   0.527   2.443
11102WAT      O34887   1.766   0.272   2.715
11102WAT     H134888   1.800   0.357   2.685
11102WAT     H234889   1.672   0.287   2.727
11103WAT      O34890   1.844   1.262   2.913
11103WAT     H134891   1.906   1.329   2.885
11103WAT     H234892   1.758   1.303   2.904
11104WAT      O34893   1.374   1.181   1.801
11104WAT     H134894   1.336   1.230   1.728
11104WAT     H234895   1.399   1.248   1.865
11105WAT      O34896   2.936   1.408   2.705
11105WAT     H134897   2.868   1.475   2.704
11105WAT     H234898   2.990   1.428   2.628
11106WAT      O34899   3.081   0.391   2.518
11106WAT     H134900   2.987   0.394   2.531
11106WAT     H234901   3.114   0.472   2.556
11107WAT      O34902   2.690   1.593   2.576
11107WAT     H134903   2.691   1.552   2.490
11107WAT     H234904   2.634   1.670   2.566
11108WAT      O34905   2.819   1.265   2.085
11108WAT     H134906   2.808   1.171   2.098
11108WAT     H234907   2.819   1.301   2.174
11109WAT      O34908   2.629   1.083   2.709
11109WAT     H134909   2.671   1.062   2.626
11109WAT     H234910   2.702   1.109   2.766
11110WAT      O34911   2.373   0.827   2.021
11110WAT     H134912   2.281   0.821   2.044
11110WAT     H234913   2.389   0.921   2.009
11111WAT      O34914   2.372   0.455   1.721
11111WAT     H134915   2.278   0.471   1.729
11111WAT     H234916   2.404   0.526   1.666
11112WAT      O34917   3.024   0.923   2.718
11112WAT     H134918   2.941   0.930   2.671
11112WAT     H234919   3.084   0.981   2.672
11113WAT      O34920   2.776   0.984   2.071
11113WAT     H134921   2.714   0.950   2.007
11113WAT     H234922   2.774   0.919   2.142
11114WAT      O34923   2.720   0.601   2.813
11114WAT     H134924   2.679   0.684   2.838
11114WAT     H234925   2.647   0.543   2.794
11115WAT      O34926   1.934   0.880   2.299
11115WAT     H134927   1.893   0.809   2.250
11115WAT     H234928   1.942   0.846   2.388
11116WAT      O34929   1.981   1.249   2.515
11116WAT     H134930   1.951   1.188   2.448
11116WAT     H234931   2.076   1.253   2.504
11117WAT      O34932   1.805   0.558   2.677
11117WAT     H134933   1.860   0.568   2.600
11117WAT     H234934   1.857   0.595   2.749
11118WAT      O34935   2.789   1.606   2.882
11118WAT     H134936   2.742   1.687   2.862
11118WAT     H234937   2.721   1.541   2.897
11119WAT      O34938   1.890   1.223   3.181
11119WAT     H134939   1.800   1.245   3.205
11119WAT     H234940   1.892   1.235   3.086
11120WAT      O34941   2.594   0.908   1.772
11120WAT     H134942   2.638   0.824   1.757
11120WAT     H234943   2.665   0.971   1.781
11121WAT      O34944   1.773   0.910   3.038
11121WAT     H134945   1.759   0.997   3.075
11121WAT     H234946   1.684   0.875   3.024
11122WAT      O34947   2.405   1.401   2.169
11122WAT     H134948   2.449   1.476   2.127
11122WAT     H234949   2.399   1.426   2.261
11123WAT      O34950   1.952   1.504   3.259
11123WAT     H134951   1.949   1.544   3.172
11123WAT     H234952   1.936   1.411   3.243
11124WAT      O34953   1.604   0.770   2.049
11124WAT     H134954   1.592   0.842   1.988
11124WAT     H234955   1.573   0.693   2.001
11125WAT      O34956   3.147   1.582   3.389
11125WAT     H134957   3.195   1.630   3.457
11125WAT     H234958   3.210   1.575   3.316
11126WAT      O34959   1.368   1.087   2.630
11126WAT     H134960   1.376   1.100   2.535
11126WAT     H234961   1.429   1.016   2.649
11127WAT      O34962   1.492   1.257   2.271
11127WAT     H134963   1.451   1.271   2.185
11127WAT     H234964   1.581   1.228   2.251
11128WAT      O34965   3.088   1.301   3.105
11128WAT     H134966   3.100   1.277   3.013
11128WAT     H234967   3.092   1.218   3.152
11129WAT      O34968   2.474   1.672   2.962
11129WAT     H134969   2.525   1.663   3.042
11129WAT     H234970   2.390   1.706   2.991
11130WAT      O34971   2.672   1.700   1.904
11130WAT     H134972   2.656   1.671   1.994
11130WAT     H234973   2.655   1.623   1.851
11131WAT      O34974   1.919   1.678   2.082
11131WAT     H134975   1.902   1.586   2.061
11131WAT     H234976   1.834   1.714   2.106
11132WAT      O34977   2.642   1.451   1.760
11132WAT     H134978   2.572   1.451   1.694
11132WAT     H234979   2.716   1.409   1.717
11133WAT      O34980   2.598   1.614   2.168
11133WAT     H134981   2.644   1.536   2.199
11133WAT     H234982   2.632   1.685   2.222
11134WAT      O34983   3.073   0.507   3.201
11134WAT     H134984   3.012   0.557   3.148
11134WAT     H234985   3.041   0.417   3.195
11135WAT      O34986   1.373   1.191   2.884
11135WAT     H134987   1.390   1.144   2.802
11135WAT     H234988   1.420   1.140   2.950
11136WAT      O34989   2.279   0.391   2.948
11136WAT     H134990   2.233   0.411   3.029
11136WAT     H234991   2.239   0.309   2.917
11137WAT      O34992   2.779   0.513   3.061
11137WAT     H134993   2.694   0.483   3.093
11137WAT     H234994   2.763   0.537   2.970
11138WAT      O34995   2.489   0.663   3.271
11138WAT     H134996   2.521   0.579   3.237
11138WAT     H234997   2.568   0.715   3.285
11139WAT      O34998   1.830   0.616   2.160
11139WAT     H134999   1.807   0.595   2.251
11139WAT     H235000   1.752   0.659   2.126
11140WAT      O35001   2.553   0.617   2.020
11140WAT     H135002   2.493   0.689   2.002
11140WAT     H235003   2.607   0.611   1.942
11141WAT      O35004   2.074   0.706   3.227
11141WAT     H135005   2.064   0.612   3.212
11141WAT     H235006   2.158   0.728   3.187
11142WAT      O35007   2.413   0.480   2.223
11142WAT     H135008   2.453   0.512   2.142
11142WAT     H235009   2.449   0.393   2.235
11143WAT      O35010   1.587   0.347   3.042
11143WAT     H135011   1.547   0.432   3.063
11143WAT     H235012   1.518   0.283   3.061
11144WAT      O35013   2.244   0.356   3.349
11144WAT     H135014   2.175   0.336   3.413
11144WAT     H235015   2.319   0.384   3.402
11145WAT      O35016   1.336   0.534   1.566
11145WAT     H135017   1.327   0.628   1.581
11145WAT     H235018   1.300   0.519   1.479
11146WAT      O35019   2.472   0.740   2.633
11146WAT     H135020   2.399   0.790   2.668
11146WAT     H235021   2.432   0.658   2.603
11147WAT      O35022   2.116   0.407   2.473
11147WAT     H135023   2.116   0.363   2.388
11147WAT     H235024   2.205   0.439   2.484
11148WAT      O35025   1.701   0.395   2.369
11148WAT     H135026   1.667   0.443   2.445
11148WAT     H235027   1.624   0.350   2.333
11149WAT      O35028   2.122   0.507   1.772
11149WAT     H135029   2.134   0.503   1.867
11149WAT     H235030   2.083   0.593   1.757
11150WAT      O35031   2.518   0.285   2.574
11150WAT     H135032   2.520   0.330   2.658
11150WAT     H235033   2.493   0.195   2.595
11151WAT      O35034   2.023   0.738   1.712
11151WAT     H135035   1.966   0.693   1.649
11151WAT     H235036   2.094   0.774   1.659
11152WAT      O35037   1.531   1.128   3.100
11152WAT     H135038   1.492   1.064   3.160
11152WAT     H235039   1.562   1.199   3.157
11153WAT      O35040   2.146   0.813   2.648
11153WAT     H135041   2.182   0.766   2.722
11153WAT     H235042   2.127   0.901   2.682
11154WAT      O35043   1.432   0.288   2.261
11154WAT     H135044   1.404   0.251   2.345
11154WAT     H235045   1.426   0.214   2.199
11155WAT      O35046   1.925   0.717   2.880
11155WAT     H135047   1.894   0.805   2.902
11155WAT     H235048   2.020   0.723   2.883
11156WAT      O35049   1.777   1.138   1.939
11156WAT     H135050   1.700   1.084   1.923
11156WAT     H235051   1.850   1.086   1.906
11157WAT      O35052   2.853   1.037   2.519
11157WAT     H135053   2.925   1.087   2.480
11157WAT     H235054   2.833   0.970   2.454
11158WAT      O35055   2.399   0.177   1.933
11158WAT     H135056   2.318   0.127   1.925
11158WAT     H235057   2.380   0.261   1.891
11159WAT      O35058   2.392   1.045   3.107
11159WAT     H135059   2.385   0.952   3.082
11159WAT     H235060   2.329   1.054   3.179
11160WAT      O35061   2.671   0.614   1.763
11160WAT     H135062   2.760   0.645   1.745
11160WAT     H235063   2.668   0.527   1.723
11161WAT      O35064   1.782   1.105   2.303
11161WAT     H135065   1.834   1.024   2.298
11161WAT     H235066   1.737   1.098   2.387
11162WAT      O35067   2.271   1.231   1.830
11162WAT     H135068   2.305   1.306   1.781
11162WAT     H235069   2.188   1.263   1.867
11163WAT      O35070   1.530   0.801   2.994
11163WAT     H135071   1.494   0.868   3.053
11163WAT     H235072   1.501   0.718   3.032
11164WAT      O35073   1.850   0.847   3.283
11164WAT     H135074   1.820   0.862   3.193
11164WAT     H235075   1.928   0.791   3.274
11165WAT      O35076   2.385   1.327   3.082
11165WAT     H135077   2.386   1.234   3.061
11165WAT     H235078   2.314   1.335   3.146
11166WAT      O35079   2.898   0.745   1.709
11166WAT     H135080   2.890   0.788   1.624
11166WAT     H235081   2.970   0.791   1.753
11167WAT      O35082   3.006   0.991   3.017
11167WAT     H135083   2.933   1.050   2.997
11167WAT     H235084   3.059   0.990   2.937
11168WAT      O35085   3.001   1.431   1.982
11168WAT     H135086   2.937   1.365   2.010
11168WAT     H235087   2.962   1.471   1.905
11169WAT      O35088   2.559   1.163   2.367
11169WAT     H135089   2.594   1.104   2.301
11169WAT     H235090   2.470   1.131   2.384
11170WAT      O35091   2.167   1.239   2.108
11170WAT     H135092   2.236   1.294   2.146
11170WAT     H235093   2.089   1.294   2.111
11171WAT      O35094   1.381   0.801   1.657
11171WAT     H135095   1.468   0.829   1.685
11171WAT     H235096   1.332   0.882   1.645
11172WAT      O35097   2.098   0.940   2.069
11172WAT     H135098   2.143   1.021   2.091
11172WAT     H235099   2.063   0.908   2.152
11173WAT      O35100   2.328   1.491   2.792
11173WAT     H135101   2.392   1.512   2.859
11173WAT     H235102   2.364   1.415   2.746
11174WAT      O35103   2.455   1.291   2.664
11174WAT     H135104   2.520   1.221   2.675
11174WAT     H235105   2.508   1.369   2.645
11175WAT      O35106   2.840   1.320   1.636
11175WAT     H135107   2.817   1.248   1.695
11175WAT     H235108   2.801   1.295   1.552
11176WAT      O35109   2.633   1.371   2.984
11176WAT     H135110   2.666   1.430   3.052
11176WAT     H235111   2.541   1.358   3.007
11177WAT      O35112   1.418   1.722   1.713
11177WAT     H135113   1.454   1.782   1.648
11177WAT     H235114   1.404   1.777   1.791
11178WAT      O35115   2.798   1.111   1.802
11178WAT     H135116   2.769   1.158   1.881
11178WAT     H235117   2.878   1.065   1.829
11179WAT      O35118   1.417   1.549   3.161
11179WAT     H135119   1.427   1.455   3.147
11179WAT     H235120   1.351   1.575   3.096
11180WAT      O35121   2.216   1.376   3.301
11180WAT     H135122   2.184   1.304   3.355
11180WAT     H235123   2.148   1.444   3.308
11181WAT      O35124   2.020   1.461   1.795
11181WAT     H135125   2.019   1.534   1.734
11181WAT     H235126   1.928   1.436   1.804
11182WAT      O35127   1.580   0.983   1.870
11182WAT     H135128   1.519   1.057   1.871
11182WAT     H235129   1.627   0.992   1.787
11183WAT      O35130   2.537   0.399   2.837
11183WAT     H135131   2.574   0.317   2.870
11183WAT     H235132   2.451   0.405   2.879
11184WAT      O35133   2.874   0.295   1.918
11184WAT     H135134   2.811   0.305   1.847
11184WAT     H235135   2.824   0.317   1.997
11185WAT      O35136   2.318   1.467   1.661
11185WAT     H135137   2.329   1.447   1.568
11185WAT     H235138   2.228   1.442   1.682
11186WAT      O35139   2.071   0.523   2.060
11186WAT     H135140   2.000   0.570   2.104
11186WAT     H235141   2.099   0.457   2.123
11187WAT      O35142   2.233   0.665   2.860
11187WAT     H135143   2.283   0.712   2.926
11187WAT     H235144   2.247   0.572   2.880
11188WAT      O35145   2.474   0.195   2.204
11188WAT     H135146   2.461   0.197   2.109
11188WAT     H235147   2.569   0.200   2.216
11189WAT      O35148   2.183   1.719   2.131
11189WAT     H135149   2.208   1.715   2.039
11189WAT     H235150   2.088   1.706   2.130
11190WAT      O35151   1.891   0.354   1.797
11190WAT     H135152   1.976   0.397   1.790
11190WAT     H235153   1.854   0.385   1.880
11191WAT      O35154   2.954   0.286   2.944
11191WAT     H135155   2.904   0.360   2.978
11191WAT     H235156   3.035   0.325   2.912
11192WAT      O35157   2.783   0.811   2.288
11192WAT     H135158   2.689   0.812   2.306
11192WAT     H235159   2.815   0.732   2.333
11193WAT      O35160   1.781   0.979   1.644
11193WAT     H135161   1.858   0.968   1.701
11193WAT     H235162   1.789   0.909   1.579
11194WAT      O35163   1.650   0.722   1.713
11194WAT     H135164   1.658   0.627   1.724
11194WAT     H235165   1.740   0.755   1.723
11195WAT      O35166   2.983   1.528   2.456
11195WAT     H135167   2.996   1.610   2.503
11195WAT     H235168   3.070   1.507   2.421
11196WAT      O35169   1.731   1.737   2.423
11196WAT     H135170   1.804   1.682   2.450
11196WAT     H235171   1.769   1.824   2.409
11197WAT      O35172   1.419   1.344   2.011
11197WAT     H135173   1.326   1.368   2.010
11197WAT     H235174   1.466   1.427   1.998
11198WAT      O35175   1.631   1.656   3.342
11198WAT     H135176   1.711   1.688   3.383
11198WAT     H235177   1.580   1.620   3.414
11199WAT      O35178   2.042   1.654   1.605
11199WAT     H135179   2.121   1.683   1.560
11199WAT     H235180   1.990   1.611   1.538
11200WAT      O35181   2.515   1.266   3.337
11200WAT     H135182   2.454   1.269   3.263
11200WAT     H235183   2.484   1.193   3.390
11201WAT      O35184   2.658   1.639   3.198
11201WAT     H135185   2.753   1.631   3.193
11201WAT     H235186   2.643   1.706   3.265
11202WAT      O35187   2.947   1.577   1.748
11202WAT     H135188   2.918   1.536   1.666
11202WAT     H235189   2.927   1.670   1.736
11203WAT      O35190   1.403   0.904   3.236
11203WAT     H135191   1.453   0.846   3.294
11203WAT     H235192   1.329   0.933   3.290
11204WAT      O35193   2.093   1.177   1.592
11204WAT     H135194   2.083   1.115   1.664
11204WAT     H235195   2.077   1.124   1.513
11205WAT      O35196   2.108   1.045   3.190
11205WAT     H135197   2.032   1.102   3.181
11205WAT     H235198   2.127   1.016   3.100
11206WAT      O35199   2.417   1.083   1.652
11206WAT     H135200   2.362   1.127   1.717
11206WAT     H235201   2.480   1.032   1.705
11207WAT      O35202   2.823   1.218   3.245
11207WAT     H135203   2.897   1.252   3.195
11207WAT     H235204   2.746   1.235   3.190
11208WAT      O35205   1.606   0.719   3.326
11208WAT     H135206   1.610   0.689   3.417
11208WAT     H235207   1.692   0.759   3.310
11209WAT      O35208   1.984   0.979   1.842
11209WAT     H135209   2.026   0.962   1.926
11209WAT     H235210   1.997   0.898   1.792
11210WAT      O35211   1.800   0.577   3.123
11210WAT     H135212   1.747   0.527   3.060
11210WAT     H235213   1.867   0.619   3.069
11211WAT      O35214   2.235   0.881   1.567
11211WAT     H135215   2.287   0.809   1.530
11211WAT     H235216   2.300   0.945   1.597
11212WAT      O35217   2.690   1.023   3.099
11212WAT     H135218   2.732   1.039   3.184
11212WAT     H235219   2.597   1.036   3.115
11213WAT      O35220   2.737   0.757   3.299
11213WAT     H135221   2.796   0.682   3.291
11213WAT     H235222   2.755   0.810   3.222
11214WAT      O35223   1.849   0.273   3.131
11214WAT     H135224   1.840   0.211   3.058
11214WAT     H235225   1.791   0.346   3.108
11215WAT      O35226   2.166   1.018   2.896
11215WAT     H135227   2.208   1.103   2.879
11215WAT     H235228   2.074   1.032   2.873
11216WAT      O35229   2.400   0.792   3.034
11216WAT     H135230   2.412   0.732   3.108
11216WAT     H235231   2.486   0.795   2.992
11217WAT      O35232   2.634   0.847   2.892
11217WAT     H135233   2.581   0.899   2.832
11217WAT     H235234   2.668   0.910   2.955
11218WAT      O35235   1.874   0.586   1.536
11218WAT     H135236   1.854   0.500   1.573
11218WAT     H235237   1.857   0.577   1.443
11219WAT      O35238   1.951   1.649   3.008
11219WAT     H135239   1.898   1.721   2.976
11219WAT     H235240   1.977   1.601   2.929
11220WAT      O35241   2.077   0.446   3.160
11220WAT     H135242   2.136   0.415   3.229
11220WAT     H235243   1.995   0.399   3.176
11221WAT      O35244   2.559   0.408   3.183
11221WAT     H135245   2.490   0.341   3.177
11221WAT     H235246   2.631   0.363   3.228
11222WAT      O35247   1.754   0.296   1.535
11222WAT     H135248   1.784   0.297   1.444
11222WAT     H235249   1.827   0.261   1.585
11223WAT      O35250   2.237   1.773   3.033
11223WAT     H135251   2.230   1.863   3.064
11223WAT     H235252   2.147   1.741   3.031
11224WAT      O35253   2.292   1.689   1.796
11224WAT     H135254   2.381   1.723   1.798
11224WAT     H235255   2.295   1.617   1.733
11225WAT      O35256   1.656   1.226   1.619
11225WAT     H135257   1.700   1.281   1.684
11225WAT     H235258   1.704   1.144   1.619
11226WAT      O35259   1.377   1.505   2.364
11226WAT     H135260   1.410   1.418   2.341
11226WAT     H235261   1.420   1.526   2.447
11227WAT      O35262   1.837   1.338   2.130
11227WAT     H135263   1.807   1.326   2.220
11227WAT     H235264   1.826   1.252   2.089
11228WAT      O35265   1.426   1.592   2.638
11228WAT     H135266   1.382   1.610   2.721
11228WAT     H235267   1.483   1.668   2.623
11229WAT      O35268   2.990   1.542   3.066
11229WAT     H135269   2.930   1.548   2.992
11229WAT     H235270   3.003   1.448   3.079
11230WAT      O35271   3.114   1.316   1.600
11230WAT     H135272   3.031   1.323   1.647
11230WAT     H235273   3.132   1.405   1.570
11231WAT      O35274   3.059   0.991   1.850
11231WAT     H135275   3.136   1.048   1.861
11231WAT     H235276   3.061   0.934   1.927
11232WAT      O35277   1.409   0.843   2.273
11232WAT     H135278   1.344   0.816   2.209
11232WAT     H235279   1.493   0.832   2.228
11233WAT      O35280   3.160   1.076   2.335
11233WAT     H135281   3.197   0.998   2.294
11233WAT     H235282   3.224   1.145   2.317
11234WAT      O35283   2.858   1.215   2.876
11234WAT     H135284   2.777   1.258   2.902
11234WAT     H235285   2.899   1.276   2.815
11235WAT      O35286   3.065   1.020   1.566
11235WAT     H135287   3.092   1.111   1.553
11235WAT     H235288   3.046   1.014   1.660
11236WAT      O35289   2.704   0.323   1.696
11236WAT     H135290   2.746   0.304   1.612
11236WAT     H235291   2.674   0.237   1.727
11237WAT      O35292   3.054   0.814   2.065
11237WAT     H135293   3.017   0.737   2.022
11237WAT     H235294   2.981   0.852   2.114
11238WAT      O35295   1.513   0.882   2.727
11238WAT     H135296   1.550   0.873   2.815
11238WAT     H235297   1.456   0.805   2.718
11239WAT      O35298   2.993   0.729   3.029
11239WAT     H135299   2.970   0.706   2.939
11239WAT     H235300   3.019   0.821   3.024
11240WAT      O35301   1.468   0.573   3.118
11240WAT     H135302   1.379   0.569   3.152
11240WAT     H235303   1.522   0.593   3.195
11241WAT      O35304   2.837   0.251   3.307
11241WAT     H135305   2.925   0.252   3.345
11241WAT     H235306   2.838   0.177   3.246
11242WAT      O35307   1.331   0.564   1.868
11242WAT     H135308   1.240   0.590   1.850
11242WAT     H235309   1.379   0.591   1.790
11243WAT      O35310   2.982   0.636   2.395
11243WAT     H135311   3.034   0.587   2.332
11243WAT     H235312   3.040   0.650   2.470
11244WAT      O35313   3.000   0.645   2.748
11244WAT     H135314   2.905   0.641   2.759
11244WAT     H235315   3.018   0.736   2.724
11245WAT      O35316   1.585   0.470   1.659
11245WAT     H135317   1.656   0.428   1.610
11245WAT     H235318   1.513   0.477   1.595
11246WAT      O35319   2.931   0.562   1.989
11246WAT     H135320   2.980   0.539   2.068
11246WAT     H235321   2.911   0.478   1.948
11247WAT      O35322   3.074   0.426   2.243
11247WAT     H135323   3.063   0.410   2.337
11247WAT     H235324   3.150   0.373   2.219
11248WAT      O35325   3.163   0.209   1.567
11248WAT     H135326   3.255   0.196   1.546
11248WAT     H235327   3.160   0.217   1.662
11249WAT      O35328   3.170   0.286   1.829
11249WAT     H135329   3.090   0.279   1.882
11249WAT     H235330   3.190   0.379   1.828
11250WAT      O35331   2.864   1.690   2.229
11250WAT     H135332   2.924   1.658   2.161
11250WAT     H235333   2.890   1.643   2.308
11251WAT      O35334   1.655   1.333   3.244
11251WAT     H135335   1.650   1.296   3.332
11251WAT     H235336   1.668   1.427   3.258
11252WAT      O35337   2.025   1.489   2.804
11252WAT     H135338   2.001   1.515   2.715
11252WAT     H235339   2.119   1.506   2.809
11253WAT      O35340   3.151   1.691   2.884
11253WAT     H135341   3.101   1.730   2.812
11253WAT     H235342   3.090   1.628   2.923
11254WAT      O35343   1.639   1.628   2.956
11254WAT     H135344   1.579   1.615   3.030
11254WAT     H235345   1.638   1.544   2.909
11255WAT      O35346   2.919   1.755   2.612
11255WAT     H135347   2.873   1.830   2.574
11255WAT     H235348   2.856   1.683   2.606
11256WAT      O35349   1.602   1.364   2.851
11256WAT     H135350   1.529   1.302   2.844
11256WAT     H235351   1.608   1.404   2.764
11257WAT      O35352   1.962   1.586   2.529
11257WAT     H135353   2.014   1.525   2.477
11257WAT     H235354   2.027   1.636   2.578
11258WAT      O35355   2.236   1.675   2.612
11258WAT     H135356   2.265   1.649   2.524
11258WAT     H235357   2.287   1.620   2.671
11259WAT      O35358   1.430   1.696   2.172
11259WAT     H135359   1.413   1.633   2.242
11259WAT     H235360   1.343   1.717   2.137
11260WAT      O35361   2.146   0.291   2.221
11260WAT     H135362   2.065   0.253   2.187
11260WAT     H235363   2.197   0.215   2.251
11261WAT      O35364   1.591   1.565   1.916
11261WAT     H135365   1.538   1.603   1.846
11261WAT     H235366   1.583   1.628   1.988
11262WAT      O35367   2.243   1.767   3.349
11262WAT     H135368   2.336   1.743   3.353
11262WAT     H235369   2.241   1.850   3.300
11263WAT      O35370   3.066   1.721   2.048
11263WAT     H135371   3.084   1.653   1.984
11263WAT     H235372   2.997   1.774   2.009
11264WAT      O35373   1.851   1.760   1.804
11264WAT     H135374   1.924   1.732   1.749
11264WAT     H235375   1.876   1.736   1.893
11265WAT      O35376   1.767   1.372   1.804
11265WAT     H135377   1.704   1.419   1.859
11265WAT     H235378   1.778   1.287   1.848
11266WAT      O35379   2.900   1.690   3.331
11266WAT     H135380   2.979   1.640   3.310
11266WAT     H235381   2.929   1.758   3.392
11267WAT      O35382   2.512   0.777   0.419
11267WAT     H135383   2.504   0.685   0.392
11267WAT     H235384   2.471   0.827   0.349
11268WAT      O35385   2.325   0.955   0.607
11268WAT     H135386   2.248   0.907   0.636
11268WAT     H235387   2.391   0.887   0.590
11269WAT      O35388   1.727   0.986   0.695
11269WAT     H135389   1.644   0.960   0.735
11269WAT     H235390   1.788   0.993   0.769
11270WAT      O35391   2.727   1.395   0.485
11270WAT     H135392   2.681   1.318   0.518
11270WAT     H235393   2.809   1.398   0.536
11271WAT      O35394   1.725   1.389   0.715
11271WAT     H135395   1.755   1.300   0.697
11271WAT     H235396   1.799   1.445   0.692
11272WAT      O35397   1.364   0.742   0.662
11272WAT     H135398   1.421   0.665   0.662
11272WAT     H235399   1.364   0.772   0.571
11273WAT      O35400   2.350   1.624   0.447
11273WAT     H135401   2.288   1.669   0.390
11273WAT     H235402   2.436   1.639   0.407
11274WAT      O35403   2.269   1.222   0.608
11274WAT     H135404   2.263   1.128   0.592
11274WAT     H235405   2.346   1.231   0.665
11275WAT      O35406   1.489   0.283   0.841
11275WAT     H135407   1.471   0.193   0.869
11275WAT     H235408   1.448   0.337   0.908
11276WAT      O35409   2.373   0.503   0.631
11276WAT     H135410   2.410   0.416   0.619
11276WAT     H235411   2.363   0.537   0.542
11277WAT      O35412   1.786   0.340   0.177
11277WAT     H135413   1.796   0.430   0.208
11277WAT     H235414   1.695   0.335   0.148
11278WAT      O35415   2.751   0.252   0.324
11278WAT     H135416   2.833   0.203   0.328
11278WAT     H235417   2.754   0.311   0.399
11279WAT      O35418   1.550   0.532   0.701
11279WAT     H135419   1.619   0.559   0.763
11279WAT     H235420   1.519   0.448   0.735
11280WAT      O35421   1.970   0.637   0.610
11280WAT     H135422   2.020   0.687   0.674
11280WAT     H235423   2.023   0.559   0.592
11281WAT      O35424   3.180   0.454   0.980
11281WAT     H135425   3.109   0.493   0.929
11281WAT     H235426   3.206   0.524   1.041
11282WAT      O35427   1.923   1.065   0.854
11282WAT     H135428   1.890   1.128   0.919
11282WAT     H235429   1.941   1.118   0.776
11283WAT      O35430   2.774   0.446   0.601
11283WAT     H135431   2.704   0.475   0.659
11283WAT     H235432   2.811   0.527   0.565
11284WAT      O35433   1.766   0.272   0.837
11284WAT     H135434   1.800   0.357   0.808
11284WAT     H235435   1.672   0.287   0.849
11285WAT      O35436   1.844   1.262   1.036
11285WAT     H135437   1.906   1.329   1.008
11285WAT     H235438   1.758   1.303   1.027
11286WAT      O35439   2.936   1.408   0.827
11286WAT     H135440   2.868   1.475   0.827
11286WAT     H235441   2.990   1.428   0.751
11287WAT      O35442   3.081   0.391   0.640
11287WAT     H135443   2.987   0.394   0.653
11287WAT     H235444   3.114   0.472   0.679
11288WAT      O35445   2.690   1.593   0.699
11288WAT     H135446   2.691   1.552   0.612
11288WAT     H235447   2.634   1.670   0.689
11289WAT      O35448   2.819   1.265   0.208
11289WAT     H135449   2.808   1.171   0.220
11289WAT     H235450   2.819   1.301   0.296
11290WAT      O35451   2.629   1.083   0.832
11290WAT     H135452   2.671   1.062   0.748
11290WAT     H235453   2.702   1.109   0.889
11291WAT      O35454   3.024   0.923   0.841
11291WAT     H135455   2.941   0.930   0.793
11291WAT     H235456   3.084   0.981   0.794
11292WAT      O35457   2.720   0.601   0.935
11292WAT     H135458   2.679   0.684   0.961
11292WAT     H235459   2.647   0.543   0.916
11293WAT      O35460   1.934   0.880   0.422
11293WAT     H135461   1.893   0.809   0.372
11293WAT     H235462   1.942   0.846   0.511
11294WAT      O35463   1.981   1.249   0.638
11294WAT     H135464   1.951   1.188   0.570
11294WAT     H235465   2.076   1.253   0.627
11295WAT      O35466   1.805   0.558   0.800
11295WAT     H135467   1.860   0.568   0.722
11295WAT     H235468   1.857   0.595   0.871
11296WAT      O35469   2.789   1.606   1.004
11296WAT     H135470   2.742   1.687   0.985
11296WAT     H235471   2.721   1.541   1.020
11297WAT      O35472   1.890   1.223   1.303
11297WAT     H135473   1.800   1.245   1.328
11297WAT     H235474   1.892   1.235   1.208
11298WAT      O35475   1.773   0.910   1.161
11298WAT     H135476   1.759   0.997   1.198
11298WAT     H235477   1.684   0.875   1.146
11299WAT      O35478   2.405   1.401   0.291
11299WAT     H135479   2.449   1.476   0.250
11299WAT     H235480   2.399   1.426   0.384
11300WAT      O35481   1.952   1.504   1.382
11300WAT     H135482   1.949   1.544   1.295
11300WAT     H235483   1.936   1.411   1.365
11301WAT      O35484   3.147   1.582   1.511
11301WAT     H135485   3.195   1.630   1.579
11301WAT     H235486   3.210   1.575   1.439
11302WAT      O35487   1.368   1.087   0.752
11302WAT     H135488   1.376   1.100   0.658
11302WAT     H235489   1.429   1.016   0.772
11303WAT      O35490   1.492   1.257   0.393
11303WAT     H135491   1.451   1.271   0.308
11303WAT     H235492   1.581   1.228   0.373
11304WAT      O35493   3.088   1.301   1.227
11304WAT     H135494   3.100   1.277   1.135
11304WAT     H235495   3.092   1.218   1.274
11305WAT      O35496   2.474   1.672   1.084
11305WAT     H135497   2.525   1.663   1.164
11305WAT     H235498   2.390   1.706   1.113
11306WAT      O35499   1.919   1.678   0.205
11306WAT     H135500   1.902   1.586   0.183
11306WAT     H235501   1.834   1.714   0.229
11307WAT      O35502   2.598   1.614   0.290
11307WAT     H135503   2.644   1.536   0.322
11307WAT     H235504   2.632   1.685   0.345
11308WAT      O35505   3.073   0.507   1.324
11308WAT     H135506   3.012   0.557   1.271
11308WAT     H235507   3.041   0.417   1.318
11309WAT      O35508   1.373   1.191   1.006
11309WAT     H135509   1.390   1.144   0.925
11309WAT     H235510   1.420   1.140   1.073
11310WAT      O35511   2.279   0.391   1.070
11310WAT     H135512   2.233   0.411   1.152
11310WAT     H235513   2.239   0.309   1.040
11311WAT      O35514   2.779   0.513   1.183
11311WAT     H135515   2.694   0.483   1.215
11311WAT     H235516   2.763   0.537   1.092
11312WAT      O35517   2.489   0.663   1.393
11312WAT     H135518   2.521   0.579   1.359
11312WAT     H235519   2.568   0.715   1.408
11313WAT      O35520   1.830   0.616   0.283
11313WAT     H135521   1.807   0.595   0.373
11313WAT     H235522   1.752   0.659   0.248
11314WAT      O35523   2.074   0.706   1.349
11314WAT     H135524   2.064   0.612   1.334
11314WAT     H235525   2.158   0.728   1.310
11315WAT      O35526   2.413   0.480   0.346
11315WAT     H135527   2.453   0.512   0.264
11315WAT     H235528   2.449   0.393   0.357
11316WAT      O35529   1.587   0.347   1.165
11316WAT     H135530   1.547   0.432   1.185
11316WAT     H235531   1.518   0.283   1.184
11317WAT      O35532   2.244   0.356   1.472
11317WAT     H135533   2.175   0.336   1.535
11317WAT     H235534   2.319   0.384   1.525
11318WAT      O35535   2.472   0.740   0.755
11318WAT     H135536   2.399   0.790   0.790
11318WAT     H235537   2.432   0.658   0.725
11319WAT      O35538   2.116   0.407   0.596
11319WAT     H135539   2.116   0.363   0.511
11319WAT     H235540   2.205   0.439   0.606
11320WAT      O35541   1.701   0.395   0.492
11320WAT     H135542   1.667   0.443   0.567
11320WAT     H235543   1.624   0.350   0.456
11321WAT      O35544   2.518   0.285   0.696
11321WAT     H135545   2.520   0.330   0.781
11321WAT     H235546   2.493   0.195   0.718
11322WAT      O35547   1.531   1.128   1.222
11322WAT     H135548   1.492   1.064   1.282
11322WAT     H235549   1.562   1.199   1.279
11323WAT      O35550   2.146   0.813   0.770
11323WAT     H135551   2.182   0.766   0.845
11323WAT     H235552   2.127   0.901   0.804
11324WAT      O35553   1.432   0.288   0.383
11324WAT     H135554   1.404   0.251   0.467
11324WAT     H235555   1.426   0.214   0.322
11325WAT      O35556   1.925   0.717   1.002
11325WAT     H135557   1.894   0.805   1.025
11325WAT     H235558   2.020   0.723   1.006
11326WAT      O35559   2.853   1.037   0.641
11326WAT     H135560   2.925   1.087   0.602
11326WAT     H235561   2.833   0.970   0.577
11327WAT      O35562   2.392   1.045   1.230
11327WAT     H135563   2.385   0.952   1.204
11327WAT     H235564   2.329   1.054   1.301
11328WAT      O35565   1.782   1.105   0.426
11328WAT     H135566   1.834   1.024   0.420
11328WAT     H235567   1.737   1.098   0.510
11329WAT      O35568   1.530   0.801   1.117
11329WAT     H135569   1.494   0.868   1.176
11329WAT     H235570   1.501   0.718   1.154
11330WAT      O35571   1.850   0.847   1.405
11330WAT     H135572   1.820   0.862   1.316
11330WAT     H235573   1.928   0.791   1.396
11331WAT      O35574   2.385   1.327   1.205
11331WAT     H135575   2.386   1.234   1.183
11331WAT     H235576   2.314   1.335   1.269
11332WAT      O35577   3.006   0.991   1.140
11332WAT     H135578   2.933   1.050   1.120
11332WAT     H235579   3.059   0.990   1.060
11333WAT      O35580   2.559   1.163   0.489
11333WAT     H135581   2.594   1.104   0.423
11333WAT     H235582   2.470   1.131   0.507
11334WAT      O35583   2.167   1.239   0.230
11334WAT     H135584   2.236   1.294   0.268
11334WAT     H235585   2.089   1.294   0.234
11335WAT      O35586   2.098   0.940   0.191
11335WAT     H135587   2.143   1.021   0.214
11335WAT     H235588   2.063   0.908   0.275
11336WAT      O35589   2.328   1.491   0.914
11336WAT     H135590   2.392   1.512   0.982
11336WAT     H235591   2.364   1.415   0.869
11337WAT      O35592   2.455   1.291   0.786
11337WAT     H135593   2.520   1.221   0.797
11337WAT     H235594   2.508   1.369   0.768
11338WAT      O35595   2.633   1.371   1.106
11338WAT     H135596   2.666   1.430   1.174
11338WAT     H235597   2.541   1.358   1.129
11339WAT      O35598   1.417   1.549   1.283
11339WAT     H135599   1.427   1.455   1.269
11339WAT     H235600   1.351   1.575   1.218
11340WAT      O35601   2.216   1.376   1.423
11340WAT     H135602   2.184   1.304   1.478
11340WAT     H235603   2.148   1.444   1.431
11341WAT      O35604   2.537   0.399   0.960
11341WAT     H135605   2.574   0.317   0.992
11341WAT     H235606   2.451   0.405   1.001
11342WAT      O35607   2.071   0.523   0.182
11342WAT     H135608   2.000   0.570   0.226
11342WAT     H235609   2.099   0.457   0.246
11343WAT      O35610   2.233   0.665   0.982
11343WAT     H135611   2.283   0.712   1.049
11343WAT     H235612   2.247   0.572   1.003
11344WAT      O35613   2.474   0.195   0.326
11344WAT     H135614   2.461   0.197   0.231
11344WAT     H235615   2.569   0.200   0.338
11345WAT      O35616   2.183   1.719   0.253
11345WAT     H135617   2.208   1.715   0.161
11345WAT     H235618   2.088   1.706   0.253
11346WAT      O35619   2.954   0.286   1.066
11346WAT     H135620   2.904   0.360   1.100
11346WAT     H235621   3.035   0.325   1.035
11347WAT      O35622   2.783   0.811   0.411
11347WAT     H135623   2.689   0.812   0.428
11347WAT     H235624   2.815   0.732   0.456
11348WAT      O35625   2.983   1.528   0.579
11348WAT     H135626   2.996   1.610   0.626
11348WAT     H235627   3.070   1.507   0.544
11349WAT      O35628   1.731   1.737   0.546
11349WAT     H135629   1.804   1.682   0.573
11349WAT     H235630   1.769   1.824   0.532
11350WAT      O35631   1.631   1.656   1.465
11350WAT     H135632   1.711   1.688   1.506
11350WAT     H235633   1.580   1.620   1.537
11351WAT      O35634   2.515   1.266   1.459
11351WAT     H135635   2.454   1.269   1.385
11351WAT     H235636   2.484   1.193   1.513
11352WAT      O35637   2.658   1.639   1.320
11352WAT     H135638   2.753   1.631   1.315
11352WAT     H235639   2.643   1.706   1.388
11353WAT      O35640   1.403   0.904   1.359
11353WAT     H135641   1.453   0.846   1.416
11353WAT     H235642   1.329   0.933   1.413
11354WAT      O35643   2.108   1.045   1.312
11354WAT     H135644   2.032   1.102   1.304
11354WAT     H235645   2.127   1.016   1.223
11355WAT      O35646   2.823   1.218   1.368
11355WAT     H135647   2.897   1.252   1.318
11355WAT     H235648   2.746   1.235   1.313
11356WAT      O35649   1.606   0.719   1.448
11356WAT     H135650   1.610   0.689   1.539
11356WAT     H235651   1.692   0.759   1.432
11357WAT      O35652   1.800   0.577   1.245
11357WAT     H135653   1.747   0.527   1.182
11357WAT     H235654   1.867   0.619   1.192
11358WAT      O35655   2.690   1.023   1.222
11358WAT     H135656   2.732   1.039   1.306
11358WAT     H235657   2.597   1.036   1.238
11359WAT      O35658   2.737   0.757   1.422
11359WAT     H135659   2.796   0.682   1.413
11359WAT     H235660   2.755   0.810   1.344
11360WAT      O35661   1.849   0.273   1.253
11360WAT     H135662   1.840   0.211   1.181
11360WAT     H235663   1.791   0.346   1.230
11361WAT      O35664   2.166   1.018   1.019
11361WAT     H135665   2.208   1.103   1.001
11361WAT     H235666   2.074   1.032   0.996
11362WAT      O35667   2.400   0.792   1.157
11362WAT     H135668   2.412   0.732   1.231
11362WAT     H235669   2.486   0.795   1.115
11363WAT      O35670   2.634   0.847   1.015
11363WAT     H135671   2.581   0.899   0.954
11363WAT     H235672   2.668   0.910   1.078
11364WAT      O35673   1.951   1.649   1.130
11364WAT     H135674   1.898   1.721   1.098
11364WAT     H235675   1.977   1.601   1.051
11365WAT      O35676   2.077   0.446   1.283
11365WAT     H135677   2.136   0.415   1.351
11365WAT     H235678   1.995   0.399   1.298
11366WAT      O35679   2.559   0.408   1.306
11366WAT     H135680   2.490   0.341   1.299
11366WAT     H235681   2.631   0.363   1.350
11367WAT      O35682   2.237   1.773   1.156
11367WAT     H135683   2.230   1.863   1.187
11367WAT     H235684   2.147   1.741   1.153
11368WAT      O35685   1.377   1.505   0.486
11368WAT     H135686   1.410   1.418   0.463
11368WAT     H235687   1.420   1.526   0.569
11369WAT      O35688   1.837   1.338   0.252
11369WAT     H135689   1.807   1.326   0.342
11369WAT     H235690   1.826   1.252   0.211
11370WAT      O35691   1.426   1.592   0.760
11370WAT     H135692   1.382   1.610   0.843
11370WAT     H235693   1.483   1.668   0.746
11371WAT      O35694   2.990   1.542   1.189
11371WAT     H135695   2.930   1.548   1.115
11371WAT     H235696   3.003   1.448   1.202
11372WAT      O35697   1.409   0.843   0.396
11372WAT     H135698   1.344   0.816   0.332
11372WAT     H235699   1.493   0.832   0.351
11373WAT      O35700   3.160   1.076   0.457
11373WAT     H135701   3.197   0.998   0.417
11373WAT     H235702   3.224   1.145   0.440
11374WAT      O35703   2.858   1.215   0.999
11374WAT     H135704   2.777   1.258   1.025
11374WAT     H235705   2.899   1.276   0.937
11375WAT      O35706   3.054   0.814   0.188
11375WAT     H135707   3.017   0.737   0.145
11375WAT     H235708   2.981   0.852   0.237
11376WAT      O35709   1.513   0.882   0.850
11376WAT     H135710   1.550   0.873   0.938
11376WAT     H235711   1.456   0.805   0.840
11377WAT      O35712   2.993   0.729   1.151
11377WAT     H135713   2.970   0.706   1.061
11377WAT     H235714   3.019   0.821   1.147
11378WAT      O35715   1.468   0.573   1.241
11378WAT     H135716   1.379   0.569   1.275
11378WAT     H235717   1.522   0.593   1.317
11379WAT      O35718   2.837   0.251   1.429
11379WAT     H135719   2.925   0.252   1.467
11379WAT     H235720   2.838   0.177   1.368
11380WAT      O35721   2.982   0.636   0.518
11380WAT     H135722   3.034   0.587   0.455
11380WAT     H235723   3.040   0.650   0.592
11381WAT      O35724   3.000   0.645   0.870
11381WAT     H135725   2.905   0.641   0.882
11381WAT     H235726   3.018   0.736   0.847
11382WAT      O35727   3.074   0.426   0.365
11382WAT     H135728   3.063   0.410   0.459
11382WAT     H235729   3.150   0.373   0.341
11383WAT      O35730   2.864   1.690   0.351
11383WAT     H135731   2.924   1.658   0.284
11383WAT     H235732   2.890   1.643   0.430
11384WAT      O35733   1.655   1.333   1.366
11384WAT     H135734   1.650   1.296   1.454
11384WAT     H235735   1.668   1.427   1.380
11385WAT      O35736   2.025   1.489   0.926
11385WAT     H135737   2.001   1.515   0.838
11385WAT     H235738   2.119   1.506   0.932
11386WAT      O35739   3.151   1.691   1.006
11386WAT     H135740   3.101   1.730   0.935
11386WAT     H235741   3.090   1.628   1.046
11387WAT      O35742   1.639   1.628   1.078
11387WAT     H135743   1.579   1.615   1.152
11387WAT     H235744   1.638   1.544   1.032
11388WAT      O35745   2.919   1.755   0.734
11388WAT     H135746   2.873   1.830   0.697
11388WAT     H235747   2.856   1.683   0.728
11389WAT      O35748   1.602   1.364   0.973
11389WAT     H135749   1.529   1.302   0.967
11389WAT     H235750   1.608   1.404   0.886
11390WAT      O35751   1.962   1.586   0.652
11390WAT     H135752   2.014   1.525   0.599
11390WAT     H235753   2.027   1.636   0.701
11391WAT      O35754   2.236   1.675   0.734
11391WAT     H135755   2.265   1.649   0.647
11391WAT     H235756   2.287   1.620   0.794
11392WAT      O35757   1.430   1.696   0.294
11392WAT     H135758   1.413   1.633   0.364
11392WAT     H235759   1.343   1.717   0.259
11393WAT      O35760   2.146   0.291   0.344
11393WAT     H135761   2.065   0.253   0.310
11393WAT     H235762   2.197   0.215   0.374
11394WAT      O35763   2.243   1.767   1.471
11394WAT     H135764   2.336   1.743   1.476
11394WAT     H235765   2.241   1.850   1.423
11395WAT      O35766   2.900   1.690   1.454
11395WAT     H135767   2.979   1.640   1.433
11395WAT     H235768   2.929   1.758   1.514
11396WAT      O35769   0.635   8.287   6.051
11396WAT     H135770   0.627   8.195   6.024
11396WAT     H235771   0.593   8.336   5.981
11397WAT      O35772   0.448   8.464   6.240
11397WAT     H135773   0.370   8.416   6.269
11397WAT     H235774   0.513   8.396   6.222
11398WAT      O35775   0.850   8.905   6.118
11398WAT     H135776   0.804   8.828   6.150
11398WAT     H235777   0.931   8.908   6.168
11399WAT      O35778   0.392   8.732   6.240
11399WAT     H135779   0.385   8.638   6.224
11399WAT     H235780   0.468   8.741   6.297
11400WAT      O35781   0.495   8.013   6.263
11400WAT     H135782   0.533   7.925   6.252
11400WAT     H235783   0.485   8.046   6.174
11401WAT      O35784   0.873   7.762   5.956
11401WAT     H135785   0.955   7.713   5.960
11401WAT     H235786   0.877   7.821   6.032
11402WAT      O35787   0.559   8.622   5.819
11402WAT     H135788   0.497   8.668   5.763
11402WAT     H235789   0.611   8.691   5.861
11403WAT      O35790   0.897   7.956   6.234
11403WAT     H135791   0.827   7.985   6.292
11403WAT     H235792   0.933   8.037   6.198
11404WAT      O35793   1.059   8.918   6.460
11404WAT     H135794   0.990   8.985   6.459
11404WAT     H235795   1.113   8.938   6.383
11405WAT      O35796   1.204   7.901   6.273
11405WAT     H135797   1.109   7.904   6.286
11405WAT     H235798   1.236   7.982   6.311
11406WAT      O35799   0.942   8.775   5.840
11406WAT     H135800   0.931   8.680   5.853
11406WAT     H235801   0.941   8.811   5.929
11407WAT      O35802   0.752   8.593   6.464
11407WAT     H135803   0.794   8.571   6.381
11407WAT     H235804   0.824   8.618   6.521
11408WAT      O35805   0.496   8.337   5.776
11408WAT     H135806   0.403   8.331   5.799
11408WAT     H235807   0.511   8.431   5.764
11409WAT      O35808   0.495   7.964   5.475
11409WAT     H135809   0.401   7.980   5.484
11409WAT     H235810   0.526   8.036   5.421
11410WAT      O35811   1.147   8.433   6.473
11410WAT     H135812   1.064   8.439   6.426
11410WAT     H235813   1.206   8.491   6.426
11411WAT      O35814   0.899   8.493   5.826
11411WAT     H135815   0.837   8.460   5.761
11411WAT     H235816   0.897   8.429   5.897
11412WAT      O35817   0.843   8.111   6.568
11412WAT     H135818   0.802   8.194   6.593
11412WAT     H235819   0.770   8.053   6.549
11413WAT      O35820   0.716   8.417   5.527
11413WAT     H135821   0.760   8.333   5.512
11413WAT     H235822   0.788   8.481   5.535
11414WAT      O35823   0.527   8.911   5.924
11414WAT     H135824   0.571   8.985   5.882
11414WAT     H235825   0.521   8.935   6.016
11415WAT      O35826   1.075   7.543   5.358
11415WAT     H135827   1.043   7.552   5.448
11415WAT     H235828   1.151   7.600   5.353
11416WAT      O35829   0.764   8.961   5.515
11416WAT     H135830   0.695   8.961   5.449
11416WAT     H235831   0.839   8.918   5.472
11417WAT      O35832   0.285   7.576   5.630
11417WAT     H135833   0.222   7.575   5.703
11417WAT     H235834   0.276   7.489   5.591
11418WAT      O35835   0.177   7.668   6.328
11418WAT     H135836   0.207   7.759   6.320
11418WAT     H235837   0.232   7.619   6.267
11419WAT      O35838   0.675   8.127   5.775
11419WAT     H135839   0.615   8.199   5.757
11419WAT     H235840   0.730   8.120   5.697
11420WAT      O35841   0.536   7.990   5.978
11420WAT     H135842   0.575   8.022   5.897
11420WAT     H235843   0.572   7.902   5.989
11421WAT      O35844   0.594   8.249   6.388
11421WAT     H135845   0.521   8.300   6.422
11421WAT     H235846   0.555   8.168   6.357
11422WAT      O35847   0.238   7.917   6.228
11422WAT     H135848   0.239   7.873   6.143
11422WAT     H235849   0.328   7.949   6.239
11423WAT      O35850   0.244   8.017   5.527
11423WAT     H135851   0.256   8.013   5.622
11423WAT     H235852   0.206   8.103   5.512
11424WAT      O35853   0.641   7.795   6.329
11424WAT     H135854   0.642   7.840   6.413
11424WAT     H235855   0.616   7.705   6.350
11425WAT      O35856   0.268   8.323   6.403
11425WAT     H135857   0.305   8.275   6.477
11425WAT     H235858   0.249   8.410   6.437
11426WAT      O35859   0.976   8.547   6.273
11426WAT     H135860   1.048   8.597   6.234
11426WAT     H235861   0.956   8.479   6.209
11427WAT      O35862   0.522   7.687   5.688
11427WAT     H135863   0.441   7.637   5.680
11427WAT     H235864   0.503   7.771   5.646
11428WAT      O35865   0.794   8.124   5.517
11428WAT     H135866   0.882   8.155   5.500
11428WAT     H235867   0.791   8.036   5.478
11429WAT      O35868   0.393   8.741   5.585
11429WAT     H135869   0.427   8.815   5.536
11429WAT     H235870   0.310   8.772   5.622
11430WAT      O35871   1.021   8.255   5.464
11430WAT     H135872   1.012   8.298   5.379
11430WAT     H235873   1.093   8.301   5.507
11431WAT      O35874   1.124   8.940   5.737
11431WAT     H135875   1.059   8.875   5.764
11431WAT     H235876   1.085   8.981   5.659
11432WAT      O35877   0.681   8.673   6.122
11432WAT     H135878   0.717   8.613   6.056
11432WAT     H235879   0.593   8.641   6.139
11433WAT      O35880   0.290   8.749   5.862
11433WAT     H135881   0.359   8.804   5.901
11433WAT     H235882   0.211   8.804   5.866
11434WAT      O35883   0.220   8.450   5.824
11434WAT     H135884   0.266   8.531   5.846
11434WAT     H235885   0.185   8.418   5.907
11435WAT      O35886   0.451   9.001   6.547
11435WAT     H135887   0.515   9.021   6.614
11435WAT     H235888   0.487   8.925   6.501
11436WAT      O35889   0.578   8.801   6.418
11436WAT     H135890   0.642   8.731   6.430
11436WAT     H235891   0.630   8.879   6.400
11437WAT      O35892   0.963   8.829   5.391
11437WAT     H135893   0.940   8.758   5.450
11437WAT     H235894   0.923   8.805   5.307
11438WAT      O35895   0.921   8.621   5.557
11438WAT     H135896   0.892   8.667   5.636
11438WAT     H235897   1.000   8.575   5.584
11439WAT      O35898   0.660   7.909   6.592
11439WAT     H135899   0.697   7.827   6.625
11439WAT     H235900   0.574   7.915   6.634
11440WAT      O35901   0.996   7.805   5.673
11440WAT     H135902   0.934   7.815   5.601
11440WAT     H235903   0.947   7.827   5.752
11441WAT      O35904   0.441   8.977   5.416
11441WAT     H135905   0.451   8.956   5.323
11441WAT     H235906   0.351   8.951   5.437
11442WAT      O35907   0.596   7.705   5.958
11442WAT     H135908   0.584   7.707   5.864
11442WAT     H235909   0.691   7.710   5.970
11443WAT      O35910   0.906   8.321   6.043
11443WAT     H135911   0.812   8.322   6.061
11443WAT     H235912   0.937   8.242   6.088
11444WAT      O35913   0.216   8.686   5.347
11444WAT     H135914   0.205   8.625   5.419
11444WAT     H235915   0.199   8.634   5.268
11445WAT      O35916   0.540   8.592   5.407
11445WAT     H135917   0.485   8.637   5.472
11445WAT     H235918   0.602   8.542   5.459
11446WAT      O35919   0.358   8.391   5.322
11446WAT     H135920   0.410   8.319   5.285
11446WAT     H235921   0.423   8.455   5.352
11447WAT      O35922   0.248   7.639   6.589
11447WAT     H135923   0.203   7.641   6.504
11447WAT     H235924   0.185   7.599   6.648
11448WAT      O35925   0.289   8.528   6.651
11448WAT     H135926   0.331   8.613   6.634
11448WAT     H235927   0.197   8.542   6.628
11449WAT      O35928   0.744   7.577   5.544
11449WAT     H135929   0.772   7.492   5.580
11449WAT     H235930   0.667   7.600   5.596
11450WAT      O35931   1.236   8.826   5.355
11450WAT     H135932   1.153   8.833   5.402
11450WAT     H235933   1.254   8.915   5.325
11451WAT      O35934   1.182   8.501   5.605
11451WAT     H135935   1.258   8.558   5.616
11451WAT     H235936   1.183   8.444   5.682
11452WAT      O35937   1.283   8.586   6.090
11452WAT     H135938   1.320   8.508   6.049
11452WAT     H235939   1.347   8.655   6.072
11453WAT      O35940   1.187   8.530   5.321
11453WAT     H135941   1.215   8.621   5.308
11453WAT     H235942   1.168   8.524   5.415
11454WAT      O35943   0.827   7.832   5.450
11454WAT     H135944   0.869   7.814   5.366
11454WAT     H235945   0.796   7.747   5.482
11455WAT      O35946   1.177   8.324   5.820
11455WAT     H135947   1.139   8.247   5.777
11455WAT     H235948   1.104   8.362   5.869
11456WAT      O35949   1.104   8.146   6.150
11456WAT     H135950   1.157   8.097   6.087
11456WAT     H235951   1.163   8.160   6.225
11457WAT      O35952   1.122   8.155   6.503
11457WAT     H135953   1.027   8.151   6.514
11457WAT     H235954   1.140   8.246   6.479
11458WAT      O35955   1.053   8.072   5.744
11458WAT     H135956   1.103   8.049   5.823
11458WAT     H235957   1.033   7.988   5.703
11459WAT      O35958   1.196   7.935   5.998
11459WAT     H135959   1.185   7.920   6.091
11459WAT     H235960   1.272   7.883   5.973
11460WAT      O35961   1.285   7.719   5.322
11460WAT     H135962   1.378   7.705   5.301
11460WAT     H235963   1.283   7.727   5.417
11461WAT      O35964   1.292   7.796   5.584
11461WAT     H135965   1.213   7.789   5.637
11461WAT     H235966   1.313   7.889   5.583
11462WAT      O35967   0.706   7.467   6.531
11462WAT     H135968   0.618   7.500   6.511
11462WAT     H235969   0.695   7.419   6.613
11463WAT      O35970   0.480   7.558   6.425
11463WAT     H135971   0.402   7.606   6.453
11463WAT     H235972   0.451   7.468   6.414
11464WAT      O35973   0.936   7.629   6.229
11464WAT     H135974   0.980   7.623   6.144
11464WAT     H235975   0.909   7.720   6.236
11465WAT      O35976   1.122   7.592   6.030
11465WAT     H135977   1.116   7.497   6.016
11465WAT     H235978   1.200   7.603   6.085
11466WAT      O35979   0.269   7.800   5.976
11466WAT     H135980   0.188   7.763   5.942
11466WAT     H235981   0.319   7.725   6.006
11467WAT      O35982   0.719   7.467   6.100
11467WAT     H135983   0.780   7.524   6.147
11467WAT     H235984   0.645   7.523   6.077
11468WAT      O35985   1.034   7.507   5.627
11468WAT     H135986   1.053   7.597   5.654
11468WAT     H235987   0.955   7.484   5.676
11469WAT      O35988   0.635   8.287   4.174
11469WAT     H135989   0.627   8.195   4.147
11469WAT     H235990   0.593   8.336   4.103
11470WAT      O35991   0.448   8.464   4.362
11470WAT     H135992   0.370   8.416   4.391
11470WAT     H235993   0.513   8.396   4.345
11471WAT      O35994   0.850   8.905   4.240
11471WAT     H135995   0.804   8.828   4.273
11471WAT     H235996   0.931   8.908   4.291
11472WAT      O35997   0.392   8.732   4.363
11472WAT     H135998   0.385   8.638   4.347
11472WAT     H235999   0.468   8.741   4.420
11473WAT      O36000   0.495   8.013   4.386
11473WAT     H136001   0.533   7.925   4.374
11473WAT     H236002   0.485   8.046   4.296
11474WAT      O36003   0.873   7.762   4.079
11474WAT     H136004   0.955   7.713   4.083
11474WAT     H236005   0.877   7.821   4.154
11475WAT      O36006   1.302   7.964   4.735
11475WAT     H136007   1.232   8.003   4.683
11475WAT     H236008   1.329   8.033   4.795
11476WAT      O36009   0.559   8.622   3.941
11476WAT     H136010   0.497   8.668   3.885
11476WAT     H236011   0.611   8.691   3.983
11477WAT      O36012   0.897   7.956   4.356
11477WAT     H136013   0.827   7.985   4.414
11477WAT     H236014   0.933   8.037   4.320
11478WAT      O36015   1.059   8.918   4.582
11478WAT     H136016   0.990   8.985   4.582
11478WAT     H236017   1.113   8.938   4.506
11479WAT      O36018   1.204   7.901   4.395
11479WAT     H136019   1.109   7.904   4.408
11479WAT     H236020   1.236   7.982   4.434
11480WAT      O36021   0.942   8.775   3.963
11480WAT     H136022   0.931   8.680   3.975
11480WAT     H236023   0.941   8.811   4.051
11481WAT      O36024   0.752   8.593   4.587
11481WAT     H136025   0.794   8.571   4.503
11481WAT     H236026   0.824   8.618   4.644
11482WAT      O36027   0.496   8.337   3.898
11482WAT     H136028   0.403   8.331   3.921
11482WAT     H236029   0.511   8.431   3.887
11483WAT      O36030   0.495   7.964   3.598
11483WAT     H136031   0.401   7.980   3.607
11483WAT     H236032   0.526   8.036   3.543
11484WAT      O36033   1.147   8.433   4.596
11484WAT     H136034   1.064   8.439   4.548
11484WAT     H236035   1.206   8.491   4.549
11485WAT      O36036   0.899   8.493   3.949
11485WAT     H136037   0.837   8.460   3.884
11485WAT     H236038   0.897   8.429   4.019
11486WAT      O36039   0.843   8.111   4.690
11486WAT     H136040   0.802   8.194   4.716
11486WAT     H236041   0.770   8.053   4.671
11487WAT      O36042   0.716   8.417   3.649
11487WAT     H136043   0.760   8.333   3.635
11487WAT     H236044   0.788   8.481   3.658
11488WAT      O36045   0.527   8.911   4.046
11488WAT     H136046   0.571   8.985   4.005
11488WAT     H236047   0.521   8.935   4.139
11489WAT      O36048   1.075   7.543   3.481
11489WAT     H136049   1.043   7.552   3.571
11489WAT     H236050   1.151   7.600   3.476
11490WAT      O36051   1.210   8.811   4.982
11490WAT     H136052   1.223   8.787   4.890
11490WAT     H236053   1.215   8.728   5.029
11491WAT      O36054   0.764   8.961   3.638
11491WAT     H136055   0.695   8.961   3.572
11491WAT     H236056   0.839   8.918   3.595
11492WAT      O36057   1.196   8.016   5.079
11492WAT     H136058   1.134   8.067   5.026
11492WAT     H236059   1.164   7.926   5.073
11493WAT      O36060   0.402   7.900   4.825
11493WAT     H136061   0.356   7.921   4.906
11493WAT     H236062   0.362   7.819   4.795
11494WAT      O36063   0.902   8.022   4.938
11494WAT     H136064   0.817   7.992   4.970
11494WAT     H236065   0.886   8.047   4.847
11495WAT      O36066   0.611   8.172   5.148
11495WAT     H136067   0.644   8.089   5.114
11495WAT     H236068   0.690   8.225   5.163
11496WAT      O36069   0.285   7.576   3.753
11496WAT     H136070   0.222   7.575   3.825
11496WAT     H236071   0.276   7.489   3.713
11497WAT      O36072   0.177   7.668   4.451
11497WAT     H136073   0.207   7.759   4.443
11497WAT     H236074   0.232   7.619   4.389
11498WAT      O36075   0.675   8.127   3.898
11498WAT     H136076   0.615   8.199   3.879
11498WAT     H236077   0.730   8.120   3.819
11499WAT      O36078   0.196   8.216   5.104
11499WAT     H136079   0.187   8.122   5.089
11499WAT     H236080   0.281   8.238   5.065
11500WAT      O36081   0.536   7.990   4.101
11500WAT     H136082   0.575   8.022   4.019
11500WAT     H236083   0.572   7.902   4.112
11501WAT      O36084   0.367   7.865   5.227
11501WAT     H136085   0.298   7.846   5.290
11501WAT     H236086   0.441   7.894   5.280
11502WAT      O36087   0.594   8.249   4.510
11502WAT     H136088   0.521   8.300   4.545
11502WAT     H236089   0.555   8.168   4.480
11503WAT      O36090   0.238   7.917   4.351
11503WAT     H136091   0.239   7.873   4.266
11503WAT     H236092   0.328   7.949   4.361
11504WAT      O36093   0.244   8.017   3.650
11504WAT     H136094   0.256   8.013   3.745
11504WAT     H236095   0.206   8.103   3.634
11505WAT      O36096   0.641   7.795   4.451
11505WAT     H136097   0.642   7.840   4.536
11505WAT     H236098   0.616   7.705   4.473
11506WAT      O36099   0.983   7.536   5.035
11506WAT     H136100   1.016   7.463   5.088
11506WAT     H236101   0.987   7.504   4.945
11507WAT      O36102   0.268   8.323   4.525
11507WAT     H136103   0.305   8.275   4.600
11507WAT     H236104   0.249   8.410   4.559
11508WAT      O36105   0.976   8.547   4.396
11508WAT     H136106   1.048   8.597   4.357
11508WAT     H236107   0.956   8.479   4.332
11509WAT      O36108   0.522   7.687   3.810
11509WAT     H136109   0.441   7.637   3.803
11509WAT     H236110   0.503   7.771   3.769
11510WAT      O36111   0.514   8.554   4.985
11510WAT     H136112   0.507   8.462   4.959
11510WAT     H236113   0.451   8.564   5.056
11511WAT      O36114   0.794   8.124   3.640
11511WAT     H136115   0.882   8.155   3.622
11511WAT     H236116   0.791   8.036   3.601
11512WAT      O36117   0.393   8.741   3.708
11512WAT     H136118   0.427   8.815   3.658
11512WAT     H236119   0.310   8.772   3.744
11513WAT      O36120   0.507   8.836   4.960
11513WAT     H136121   0.509   8.743   4.938
11513WAT     H236122   0.437   8.845   5.024
11514WAT      O36123   1.021   8.255   3.587
11514WAT     H136124   1.012   8.298   3.502
11514WAT     H236125   1.093   8.301   3.630
11515WAT      O36126   1.128   8.501   4.894
11515WAT     H136127   1.056   8.560   4.875
11515WAT     H236128   1.181   8.500   4.815
11516WAT      O36129   1.124   8.940   3.860
11516WAT     H136130   1.059   8.875   3.887
11516WAT     H236131   1.085   8.981   3.782
11517WAT      O36132   0.681   8.673   4.244
11517WAT     H136133   0.717   8.613   4.178
11517WAT     H236134   0.593   8.641   4.261
11518WAT      O36135   0.290   8.749   3.985
11518WAT     H136136   0.359   8.804   4.023
11518WAT     H236137   0.211   8.804   3.989
11519WAT      O36138   0.220   8.450   3.946
11519WAT     H136139   0.266   8.531   3.969
11519WAT     H236140   0.185   8.418   4.029
11520WAT      O36141   0.451   9.001   4.669
11520WAT     H136142   0.515   9.021   4.737
11520WAT     H236143   0.487   8.925   4.624
11521WAT      O36144   0.578   8.801   4.541
11521WAT     H136145   0.642   8.731   4.552
11521WAT     H236146   0.630   8.879   4.523
11522WAT      O36147   0.963   8.829   3.513
11522WAT     H136148   0.940   8.758   3.573
11522WAT     H236149   0.923   8.805   3.430
11523WAT      O36150   0.755   8.881   4.861
11523WAT     H136151   0.789   8.940   4.929
11523WAT     H236152   0.663   8.868   4.884
11524WAT      O36153   0.921   8.621   3.679
11524WAT     H136154   0.892   8.667   3.758
11524WAT     H236155   1.000   8.575   3.706
11525WAT      O36156   0.338   8.886   5.178
11525WAT     H136157   0.306   8.814   5.233
11525WAT     H236158   0.271   8.953   5.186
11526WAT      O36159   0.660   7.909   4.715
11526WAT     H136160   0.697   7.827   4.747
11526WAT     H236161   0.574   7.915   4.756
11527WAT      O36162   0.996   7.805   3.795
11527WAT     H136163   0.934   7.815   3.724
11527WAT     H236164   0.947   7.827   3.874
11528WAT      O36165   0.441   8.977   3.539
11528WAT     H136166   0.451   8.956   3.446
11528WAT     H236167   0.351   8.951   3.559
11529WAT      O36168   0.356   8.175   4.737
11529WAT     H136169   0.406   8.222   4.803
11529WAT     H236170   0.370   8.082   4.758
11530WAT      O36171   0.596   7.705   4.081
11530WAT     H136172   0.584   7.707   3.986
11530WAT     H236173   0.691   7.710   4.093
11531WAT      O36174   1.076   7.796   4.821
11531WAT     H136175   1.026   7.870   4.855
11531WAT     H236176   1.158   7.835   4.790
11532WAT      O36177   0.906   8.321   4.166
11532WAT     H136178   0.812   8.322   4.183
11532WAT     H236179   0.937   8.242   4.210
11533WAT      O36180   0.637   8.776   5.214
11533WAT     H136181   0.577   8.778   5.140
11533WAT     H236182   0.607   8.703   5.268
11534WAT      O36183   0.216   8.686   3.469
11534WAT     H136184   0.205   8.625   3.542
11534WAT     H236185   0.199   8.634   3.391
11535WAT      O36186   0.540   8.592   3.530
11535WAT     H136187   0.485   8.637   3.594
11535WAT     H236188   0.602   8.542   3.582
11536WAT      O36189   0.945   8.728   5.123
11536WAT     H136190   1.019   8.762   5.073
11536WAT     H236191   0.869   8.745   5.068
11537WAT      O36192   0.358   8.391   3.444
11537WAT     H136193   0.410   8.319   3.407
11537WAT     H236194   0.423   8.455   3.474
11538WAT      O36195   0.813   8.533   4.976
11538WAT     H136196   0.854   8.548   5.061
11538WAT     H236197   0.719   8.546   4.993
11539WAT      O36198   0.860   8.267   5.177
11539WAT     H136199   0.918   8.192   5.168
11539WAT     H236200   0.878   8.320   5.099
11540WAT      O36201   0.248   7.639   4.711
11540WAT     H136202   0.203   7.641   4.627
11540WAT     H236203   0.185   7.599   4.771
11541WAT      O36204   0.289   8.528   4.773
11541WAT     H136205   0.331   8.613   4.756
11541WAT     H236206   0.197   8.542   4.750
11542WAT      O36207   0.523   8.301   4.912
11542WAT     H136208   0.534   8.242   4.986
11542WAT     H236209   0.608   8.305   4.870
11543WAT      O36210   0.756   8.357   4.769
11543WAT     H136211   0.704   8.409   4.709
11543WAT     H236212   0.791   8.420   4.832
11544WAT      O36213   0.681   7.917   5.061
11544WAT     H136214   0.612   7.851   5.054
11544WAT     H236215   0.753   7.873   5.105
11545WAT      O36216   0.744   7.577   3.667
11545WAT     H136217   0.772   7.492   3.702
11545WAT     H236218   0.667   7.600   3.718
11546WAT      O36219   1.112   9.052   4.944
11546WAT     H136220   1.052   9.058   4.869
11546WAT     H236221   1.125   8.958   4.957
11547WAT      O36222   1.236   8.826   3.477
11547WAT     H136223   1.153   8.833   3.525
11547WAT     H236224   1.254   8.915   3.447
11548WAT      O36225   1.182   8.501   3.728
11548WAT     H136226   1.258   8.558   3.738
11548WAT     H236227   1.183   8.444   3.805
11549WAT      O36228   1.283   8.586   4.212
11549WAT     H136229   1.320   8.508   4.172
11549WAT     H236230   1.347   8.655   4.194
11550WAT      O36231   0.981   8.724   4.754
11550WAT     H136232   0.899   8.767   4.780
11550WAT     H236233   1.022   8.786   4.692
11551WAT      O36234   1.187   8.530   3.444
11551WAT     H136235   1.215   8.621   3.431
11551WAT     H236236   1.168   8.524   3.537
11552WAT      O36237   0.827   7.832   3.573
11552WAT     H136238   0.869   7.814   3.489
11552WAT     H236239   0.796   7.747   3.604
11553WAT      O36240   1.177   8.324   3.943
11553WAT     H136241   1.139   8.247   3.900
11553WAT     H236242   1.104   8.362   3.992
11554WAT      O36243   1.116   8.238   4.906
11554WAT     H136244   1.093   8.215   4.816
11554WAT     H236245   1.142   8.330   4.902
11555WAT      O36246   0.960   7.761   5.184
11555WAT     H136247   1.047   7.762   5.222
11555WAT     H236248   0.961   7.687   5.123
11556WAT      O36249   1.104   8.146   4.273
11556WAT     H136250   1.157   8.097   4.210
11556WAT     H236251   1.163   8.160   4.347
11557WAT      O36252   1.122   8.155   4.625
11557WAT     H136253   1.027   8.151   4.637
11557WAT     H236254   1.140   8.246   4.602
11558WAT      O36255   1.053   8.072   3.867
11558WAT     H136256   1.103   8.049   3.945
11558WAT     H236257   1.033   7.988   3.825
11559WAT      O36258   1.196   7.935   4.120
11559WAT     H136259   1.185   7.920   4.214
11559WAT     H236260   1.272   7.883   4.096
11560WAT      O36261   1.031   7.529   4.766
11560WAT     H136262   1.095   7.591   4.803
11560WAT     H236263   1.046   7.533   4.672
11561WAT      O36264   1.285   7.719   3.444
11561WAT     H136265   1.378   7.705   3.423
11561WAT     H236266   1.283   7.727   3.540
11562WAT      O36267   1.292   7.796   3.707
11562WAT     H136268   1.213   7.789   3.760
11562WAT     H236269   1.313   7.889   3.706
11563WAT      O36270   0.368   7.645   5.057
11563WAT     H136271   0.362   7.704   5.132
11563WAT     H236272   0.462   7.634   5.042
11564WAT      O36273   0.632   7.610   5.021
11564WAT     H136274   0.693   7.642   4.955
11564WAT     H236275   0.686   7.562   5.083
11565WAT      O36276   0.706   7.467   4.653
11565WAT     H136277   0.618   7.500   4.633
11565WAT     H236278   0.695   7.419   4.736
11566WAT      O36279   0.796   7.687   4.792
11566WAT     H136280   0.764   7.606   4.754
11566WAT     H236281   0.891   7.683   4.779
11567WAT      O36282   0.480   7.558   4.547
11567WAT     H136283   0.402   7.606   4.575
11567WAT     H236284   0.451   7.468   4.536
11568WAT      O36285   0.936   7.629   4.352
11568WAT     H136286   0.980   7.623   4.267
11568WAT     H236287   0.909   7.720   4.359
11569WAT      O36288   1.122   7.592   4.153
11569WAT     H136289   1.116   7.497   4.138
11569WAT     H236290   1.200   7.603   4.207
11570WAT      O36291   0.269   7.800   4.098
11570WAT     H136292   0.188   7.763   4.064
11570WAT     H236293   0.319   7.725   4.129
11571WAT      O36294   0.719   7.467   4.222
11571WAT     H136295   0.780   7.524   4.270
11571WAT     H236296   0.645   7.523   4.200
11572WAT      O36297   1.034   7.507   3.750
11572WAT     H136298   1.053   7.597   3.776
11572WAT     H236299   0.955   7.484   3.799
11573WAT      O36300   0.744   7.485   5.260
11573WAT     H136301   0.733   7.517   5.350
11573WAT     H236302   0.826   7.525   5.231
11574WAT      O36303   0.635   8.287   2.297
11574WAT     H136304   0.627   8.195   2.270
11574WAT     H236305   0.593   8.336   2.226
11575WAT      O36306   0.448   8.464   2.485
11575WAT     H136307   0.370   8.416   2.514
11575WAT     H236308   0.513   8.396   2.467
11576WAT      O36309   0.850   8.905   2.363
11576WAT     H136310   0.804   8.828   2.396
11576WAT     H236311   0.931   8.908   2.413
11577WAT      O36312   0.392   8.732   2.485
11577WAT     H136313   0.385   8.638   2.469
11577WAT     H236314   0.468   8.741   2.543
11578WAT      O36315   0.495   8.013   2.508
11578WAT     H136316   0.533   7.925   2.497
11578WAT     H236317   0.485   8.046   2.419
11579WAT      O36318   0.873   7.762   2.201
11579WAT     H136319   0.955   7.713   2.206
11579WAT     H236320   0.877   7.821   2.277
11580WAT      O36321   1.302   7.964   2.858
11580WAT     H136322   1.232   8.003   2.806
11580WAT     H236323   1.329   8.033   2.918
11581WAT      O36324   0.559   8.622   2.064
11581WAT     H136325   0.497   8.668   2.008
11581WAT     H236326   0.611   8.691   2.106
11582WAT      O36327   0.897   7.956   2.479
11582WAT     H136328   0.827   7.985   2.537
11582WAT     H236329   0.933   8.037   2.443
11583WAT      O36330   1.059   8.918   2.705
11583WAT     H136331   0.990   8.985   2.704
11583WAT     H236332   1.113   8.938   2.628
11584WAT      O36333   1.204   7.901   2.518
11584WAT     H136334   1.109   7.904   2.531
11584WAT     H236335   1.236   7.982   2.556
11585WAT      O36336   0.942   8.775   2.085
11585WAT     H136337   0.931   8.680   2.098
11585WAT     H236338   0.941   8.811   2.174
11586WAT      O36339   0.752   8.593   2.709
11586WAT     H136340   0.794   8.571   2.626
11586WAT     H236341   0.824   8.618   2.766
11587WAT      O36342   0.496   8.337   2.021
11587WAT     H136343   0.403   8.331   2.044
11587WAT     H236344   0.511   8.431   2.009
11588WAT      O36345   0.495   7.964   1.721
11588WAT     H136346   0.401   7.980   1.729
11588WAT     H236347   0.526   8.036   1.666
11589WAT      O36348   1.147   8.433   2.718
11589WAT     H136349   1.064   8.439   2.671
11589WAT     H236350   1.206   8.491   2.672
11590WAT      O36351   0.899   8.493   2.071
11590WAT     H136352   0.837   8.460   2.007
11590WAT     H236353   0.897   8.429   2.142
11591WAT      O36354   0.843   8.111   2.813
11591WAT     H136355   0.802   8.194   2.838
11591WAT     H236356   0.770   8.053   2.794
11592WAT      O36357   0.716   8.417   1.772
11592WAT     H136358   0.760   8.333   1.757
11592WAT     H236359   0.788   8.481   1.781
11593WAT      O36360   0.527   8.911   2.169
11593WAT     H136361   0.571   8.985   2.127
11593WAT     H236362   0.521   8.935   2.261
11594WAT      O36363   1.075   7.543   1.603
11594WAT     H136364   1.043   7.552   1.693
11594WAT     H236365   1.151   7.600   1.598
11595WAT      O36366   1.210   8.811   3.105
11595WAT     H136367   1.223   8.787   3.013
11595WAT     H236368   1.215   8.728   3.152
11596WAT      O36369   0.764   8.961   1.760
11596WAT     H136370   0.695   8.961   1.694
11596WAT     H236371   0.839   8.918   1.717
11597WAT      O36372   1.196   8.016   3.201
11597WAT     H136373   1.134   8.067   3.148
11597WAT     H236374   1.164   7.926   3.195
11598WAT      O36375   0.402   7.900   2.948
11598WAT     H136376   0.356   7.921   3.029
11598WAT     H236377   0.362   7.819   2.917
11599WAT      O36378   0.902   8.022   3.061
11599WAT     H136379   0.817   7.992   3.093
11599WAT     H236380   0.886   8.047   2.970
11600WAT      O36381   0.611   8.172   3.271
11600WAT     H136382   0.644   8.089   3.237
11600WAT     H236383   0.690   8.225   3.285
11601WAT      O36384   0.285   7.576   1.875
11601WAT     H136385   0.222   7.575   1.948
11601WAT     H236386   0.276   7.489   1.836
11602WAT      O36387   0.177   7.668   2.573
11602WAT     H136388   0.207   7.759   2.565
11602WAT     H236389   0.232   7.619   2.512
11603WAT      O36390   0.675   8.127   2.020
11603WAT     H136391   0.615   8.199   2.002
11603WAT     H236392   0.730   8.120   1.942
11604WAT      O36393   0.196   8.216   3.227
11604WAT     H136394   0.187   8.122   3.212
11604WAT     H236395   0.281   8.238   3.187
11605WAT      O36396   0.536   7.990   2.223
11605WAT     H136397   0.575   8.022   2.142
11605WAT     H236398   0.572   7.902   2.235
11606WAT      O36399   0.367   7.865   3.349
11606WAT     H136400   0.298   7.846   3.413
11606WAT     H236401   0.441   7.894   3.402
11607WAT      O36402   0.594   8.249   2.633
11607WAT     H136403   0.521   8.300   2.668
11607WAT     H236404   0.555   8.168   2.603
11608WAT      O36405   0.238   7.917   2.473
11608WAT     H136406   0.239   7.873   2.388
11608WAT     H236407   0.328   7.949   2.484
11609WAT      O36408   0.244   8.017   1.772
11609WAT     H136409   0.256   8.013   1.867
11609WAT     H236410   0.206   8.103   1.757
11610WAT      O36411   0.641   7.795   2.574
11610WAT     H136412   0.642   7.840   2.658
11610WAT     H236413   0.616   7.705   2.595
11611WAT      O36414   0.983   7.536   3.158
11611WAT     H136415   1.016   7.463   3.210
11611WAT     H236416   0.987   7.504   3.068
11612WAT      O36417   0.268   8.323   2.648
11612WAT     H136418   0.305   8.275   2.722
11612WAT     H236419   0.249   8.410   2.682
11613WAT      O36420   0.976   8.547   2.519
11613WAT     H136421   1.048   8.597   2.480
11613WAT     H236422   0.956   8.479   2.454
11614WAT      O36423   0.522   7.687   1.933
11614WAT     H136424   0.441   7.637   1.925
11614WAT     H236425   0.503   7.771   1.891
11615WAT      O36426   0.514   8.554   3.107
11615WAT     H136427   0.507   8.462   3.082
11615WAT     H236428   0.451   8.564   3.179
11616WAT      O36429   0.794   8.124   1.763
11616WAT     H136430   0.882   8.155   1.745
11616WAT     H236431   0.791   8.036   1.723
11617WAT      O36432   0.393   8.741   1.830
11617WAT     H136433   0.427   8.815   1.781
11617WAT     H236434   0.310   8.772   1.867
11618WAT      O36435   0.507   8.836   3.082
11618WAT     H136436   0.509   8.743   3.061
11618WAT     H236437   0.437   8.845   3.146
11619WAT      O36438   1.021   8.255   1.709
11619WAT     H136439   1.012   8.298   1.624
11619WAT     H236440   1.093   8.301   1.753
11620WAT      O36441   1.128   8.501   3.017
11620WAT     H136442   1.056   8.560   2.997
11620WAT     H236443   1.181   8.500   2.937
11621WAT      O36444   1.124   8.940   1.982
11621WAT     H136445   1.059   8.875   2.010
11621WAT     H236446   1.085   8.981   1.905
11622WAT      O36447   0.681   8.673   2.367
11622WAT     H136448   0.717   8.613   2.301
11622WAT     H236449   0.593   8.641   2.384
11623WAT      O36450   0.290   8.749   2.108
11623WAT     H136451   0.359   8.804   2.146
11623WAT     H236452   0.211   8.804   2.111
11624WAT      O36453   0.220   8.450   2.069
11624WAT     H136454   0.266   8.531   2.091
11624WAT     H236455   0.185   8.418   2.152
11625WAT      O36456   0.451   9.001   2.792
11625WAT     H136457   0.515   9.021   2.859
11625WAT     H236458   0.487   8.925   2.746
11626WAT      O36459   0.578   8.801   2.664
11626WAT     H136460   0.642   8.731   2.675
11626WAT     H236461   0.630   8.879   2.645
11627WAT      O36462   0.963   8.829   1.636
11627WAT     H136463   0.940   8.758   1.695
11627WAT     H236464   0.923   8.805   1.552
11628WAT      O36465   0.755   8.881   2.984
11628WAT     H136466   0.789   8.940   3.052
11628WAT     H236467   0.663   8.868   3.007
11629WAT      O36468   0.921   8.621   1.802
11629WAT     H136469   0.892   8.667   1.881
11629WAT     H236470   1.000   8.575   1.829
11630WAT      O36471   0.338   8.886   3.301
11630WAT     H136472   0.306   8.814   3.355
11630WAT     H236473   0.271   8.953   3.308
11631WAT      O36474   0.660   7.909   2.837
11631WAT     H136475   0.697   7.827   2.870
11631WAT     H236476   0.574   7.915   2.879
11632WAT      O36477   0.996   7.805   1.918
11632WAT     H136478   0.934   7.815   1.847
11632WAT     H236479   0.947   7.827   1.997
11633WAT      O36480   0.441   8.977   1.661
11633WAT     H136481   0.451   8.956   1.568
11633WAT     H236482   0.351   8.951   1.682
11634WAT      O36483   0.356   8.175   2.860
11634WAT     H136484   0.406   8.222   2.926
11634WAT     H236485   0.370   8.082   2.880
11635WAT      O36486   0.596   7.705   2.204
11635WAT     H136487   0.584   7.707   2.109
11635WAT     H236488   0.691   7.710   2.216
11636WAT      O36489   1.076   7.796   2.944
11636WAT     H136490   1.026   7.870   2.978
11636WAT     H236491   1.158   7.835   2.912
11637WAT      O36492   0.906   8.321   2.288
11637WAT     H136493   0.812   8.322   2.306
11637WAT     H236494   0.937   8.242   2.333
11638WAT      O36495   0.637   8.776   3.337
11638WAT     H136496   0.577   8.778   3.263
11638WAT     H236497   0.607   8.703   3.390
11639WAT      O36498   0.216   8.686   1.592
11639WAT     H136499   0.205   8.625   1.664
11639WAT     H236500   0.199   8.634   1.513
11640WAT      O36501   0.540   8.592   1.652
11640WAT     H136502   0.485   8.637   1.717
11640WAT     H236503   0.602   8.542   1.705
11641WAT      O36504   0.945   8.728   3.245
11641WAT     H136505   1.019   8.762   3.195
11641WAT     H236506   0.869   8.745   3.190
11642WAT      O36507   0.358   8.391   1.567
11642WAT     H136508   0.410   8.319   1.530
11642WAT     H236509   0.423   8.455   1.597
11643WAT      O36510   0.813   8.533   3.099
11643WAT     H136511   0.854   8.548   3.184
11643WAT     H236512   0.719   8.546   3.115
11644WAT      O36513   0.860   8.267   3.299
11644WAT     H136514   0.918   8.192   3.291
11644WAT     H236515   0.878   8.320   3.222
11645WAT      O36516   0.248   7.639   2.834
11645WAT     H136517   0.203   7.641   2.749
11645WAT     H236518   0.185   7.599   2.894
11646WAT      O36519   0.289   8.528   2.896
11646WAT     H136520   0.331   8.613   2.879
11646WAT     H236521   0.197   8.542   2.873
11647WAT      O36522   0.523   8.301   3.034
11647WAT     H136523   0.534   8.242   3.108
11647WAT     H236524   0.608   8.305   2.992
11648WAT      O36525   0.756   8.357   2.892
11648WAT     H136526   0.704   8.409   2.832
11648WAT     H236527   0.791   8.420   2.955
11649WAT      O36528   0.681   7.917   3.183
11649WAT     H136529   0.612   7.851   3.177
11649WAT     H236530   0.753   7.873   3.228
11650WAT      O36531   0.744   7.577   1.789
11650WAT     H136532   0.772   7.492   1.825
11650WAT     H236533   0.667   7.600   1.841
11651WAT      O36534   1.112   9.052   3.066
11651WAT     H136535   1.052   9.058   2.992
11651WAT     H236536   1.125   8.958   3.079
11652WAT      O36537   1.236   8.826   1.600
11652WAT     H136538   1.153   8.833   1.647
11652WAT     H236539   1.254   8.915   1.570
11653WAT      O36540   1.182   8.501   1.850
11653WAT     H136541   1.258   8.558   1.861
11653WAT     H236542   1.183   8.444   1.927
11654WAT      O36543   1.283   8.586   2.335
11654WAT     H136544   1.320   8.508   2.294
11654WAT     H236545   1.347   8.655   2.317
11655WAT      O36546   0.981   8.724   2.876
11655WAT     H136547   0.899   8.767   2.902
11655WAT     H236548   1.022   8.786   2.815
11656WAT      O36549   1.187   8.530   1.566
11656WAT     H136550   1.215   8.621   1.553
11656WAT     H236551   1.168   8.524   1.660
11657WAT      O36552   0.827   7.832   1.696
11657WAT     H136553   0.869   7.814   1.612
11657WAT     H236554   0.796   7.747   1.727
11658WAT      O36555   1.177   8.324   2.065
11658WAT     H136556   1.139   8.247   2.022
11658WAT     H236557   1.104   8.362   2.114
11659WAT      O36558   1.116   8.238   3.029
11659WAT     H136559   1.093   8.215   2.939
11659WAT     H236560   1.142   8.330   3.024
11660WAT      O36561   0.960   7.761   3.307
11660WAT     H136562   1.047   7.762   3.345
11660WAT     H236563   0.961   7.687   3.246
11661WAT      O36564   1.104   8.146   2.395
11661WAT     H136565   1.157   8.097   2.332
11661WAT     H236566   1.163   8.160   2.470
11662WAT      O36567   1.122   8.155   2.748
11662WAT     H136568   1.027   8.151   2.759
11662WAT     H236569   1.140   8.246   2.724
11663WAT      O36570   1.053   8.072   1.989
11663WAT     H136571   1.103   8.049   2.068
11663WAT     H236572   1.033   7.988   1.948
11664WAT      O36573   1.196   7.935   2.243
11664WAT     H136574   1.185   7.920   2.337
11664WAT     H236575   1.272   7.883   2.219
11665WAT      O36576   1.031   7.529   2.889
11665WAT     H136577   1.095   7.591   2.925
11665WAT     H236578   1.046   7.533   2.794
11666WAT      O36579   1.285   7.719   1.567
11666WAT     H136580   1.378   7.705   1.546
11666WAT     H236581   1.283   7.727   1.662
11667WAT      O36582   1.292   7.796   1.829
11667WAT     H136583   1.213   7.789   1.882
11667WAT     H236584   1.313   7.889   1.828
11668WAT      O36585   0.368   7.645   3.179
11668WAT     H136586   0.362   7.704   3.254
11668WAT     H236587   0.462   7.634   3.165
11669WAT      O36588   0.632   7.610   3.143
11669WAT     H136589   0.693   7.642   3.077
11669WAT     H236590   0.686   7.562   3.205
11670WAT      O36591   0.706   7.467   2.776
11670WAT     H136592   0.618   7.500   2.756
11670WAT     H236593   0.695   7.419   2.858
11671WAT      O36594   0.796   7.687   2.914
11671WAT     H136595   0.764   7.606   2.876
11671WAT     H236596   0.891   7.683   2.902
11672WAT      O36597   0.480   7.558   2.670
11672WAT     H136598   0.402   7.606   2.698
11672WAT     H236599   0.451   7.468   2.659
11673WAT      O36600   0.936   7.629   2.474
11673WAT     H136601   0.980   7.623   2.390
11673WAT     H236602   0.909   7.720   2.481
11674WAT      O36603   1.122   7.592   2.275
11674WAT     H136604   1.116   7.497   2.261
11674WAT     H236605   1.200   7.603   2.330
11675WAT      O36606   0.269   7.800   2.221
11675WAT     H136607   0.188   7.763   2.187
11675WAT     H236608   0.319   7.725   2.251
11676WAT      O36609   0.719   7.467   2.345
11676WAT     H136610   0.780   7.524   2.392
11676WAT     H236611   0.645   7.523   2.323
11677WAT      O36612   1.034   7.507   1.872
11677WAT     H136613   1.053   7.597   1.899
11677WAT     H236614   0.955   7.484   1.922
11678WAT      O36615   0.744   7.485   3.383
11678WAT     H136616   0.733   7.517   3.472
11678WAT     H236617   0.826   7.525   3.353
11679WAT      O36618   0.635   8.287   0.419
11679WAT     H136619   0.627   8.195   0.392
11679WAT     H236620   0.593   8.336   0.349
11680WAT      O36621   0.448   8.464   0.607
11680WAT     H136622   0.370   8.416   0.636
11680WAT     H236623   0.513   8.396   0.590
11681WAT      O36624   0.850   8.905   0.485
11681WAT     H136625   0.804   8.828   0.518
11681WAT     H236626   0.931   8.908   0.536
11682WAT      O36627   0.392   8.732   0.608
11682WAT     H136628   0.385   8.638   0.592
11682WAT     H236629   0.468   8.741   0.665
11683WAT      O36630   0.495   8.013   0.631
11683WAT     H136631   0.533   7.925   0.619
11683WAT     H236632   0.485   8.046   0.542
11684WAT      O36633   0.873   7.762   0.324
11684WAT     H136634   0.955   7.713   0.328
11684WAT     H236635   0.877   7.821   0.399
11685WAT      O36636   1.302   7.964   0.980
11685WAT     H136637   1.232   8.003   0.929
11685WAT     H236638   1.329   8.033   1.041
11686WAT      O36639   0.897   7.956   0.601
11686WAT     H136640   0.827   7.985   0.659
11686WAT     H236641   0.933   8.037   0.565
11687WAT      O36642   1.059   8.918   0.827
11687WAT     H136643   0.990   8.985   0.827
11687WAT     H236644   1.113   8.938   0.751
11688WAT      O36645   1.204   7.901   0.640
11688WAT     H136646   1.109   7.904   0.653
11688WAT     H236647   1.236   7.982   0.679
11689WAT      O36648   0.942   8.775   0.208
11689WAT     H136649   0.931   8.680   0.220
11689WAT     H236650   0.941   8.811   0.296
11690WAT      O36651   0.752   8.593   0.832
11690WAT     H136652   0.794   8.571   0.748
11690WAT     H236653   0.824   8.618   0.889
11691WAT      O36654   1.147   8.433   0.841
11691WAT     H136655   1.064   8.439   0.793
11691WAT     H236656   1.206   8.491   0.794
11692WAT      O36657   0.843   8.111   0.935
11692WAT     H136658   0.802   8.194   0.961
11692WAT     H236659   0.770   8.053   0.916
11693WAT      O36660   0.527   8.911   0.291
11693WAT     H136661   0.571   8.985   0.250
11693WAT     H236662   0.521   8.935   0.384
11694WAT      O36663   1.210   8.811   1.227
11694WAT     H136664   1.223   8.787   1.135
11694WAT     H236665   1.215   8.728   1.274
11695WAT      O36666   1.196   8.016   1.324
11695WAT     H136667   1.134   8.067   1.271
11695WAT     H236668   1.164   7.926   1.318
11696WAT      O36669   0.402   7.900   1.070
11696WAT     H136670   0.356   7.921   1.152
11696WAT     H236671   0.362   7.819   1.040
11697WAT      O36672   0.902   8.022   1.183
11697WAT     H136673   0.817   7.992   1.215
11697WAT     H236674   0.886   8.047   1.092
11698WAT      O36675   0.611   8.172   1.393
11698WAT     H136676   0.644   8.089   1.359
11698WAT     H236677   0.690   8.225   1.408
11699WAT      O36678   0.177   7.668   0.696
11699WAT     H136679   0.207   7.759   0.688
11699WAT     H236680   0.232   7.619   0.634
11700WAT      O36681   0.196   8.216   1.349
11700WAT     H136682   0.187   8.122   1.334
11700WAT     H236683   0.281   8.238   1.310
11701WAT      O36684   0.536   7.990   0.346
11701WAT     H136685   0.575   8.022   0.264
11701WAT     H236686   0.572   7.902   0.357
11702WAT      O36687   0.367   7.865   1.472
11702WAT     H136688   0.298   7.846   1.535
11702WAT     H236689   0.441   7.894   1.525
11703WAT      O36690   0.594   8.249   0.755
11703WAT     H136691   0.521   8.300   0.790
11703WAT     H236692   0.555   8.168   0.725
11704WAT      O36693   0.238   7.917   0.596
11704WAT     H136694   0.239   7.873   0.511
11704WAT     H236695   0.328   7.949   0.606
11705WAT      O36696   0.641   7.795   0.696
11705WAT     H136697   0.642   7.840   0.781
11705WAT     H236698   0.616   7.705   0.718
11706WAT      O36699   0.983   7.536   1.280
11706WAT     H136700   1.016   7.463   1.333
11706WAT     H236701   0.987   7.504   1.190
11707WAT      O36702   0.268   8.323   0.770
11707WAT     H136703   0.305   8.275   0.845
11707WAT     H236704   0.249   8.410   0.804
11708WAT      O36705   0.976   8.547   0.641
11708WAT     H136706   1.048   8.597   0.602
11708WAT     H236707   0.956   8.479   0.577
11709WAT      O36708   0.514   8.554   1.230
11709WAT     H136709   0.507   8.462   1.204
11709WAT     H236710   0.451   8.564   1.301
11710WAT      O36711   0.507   8.836   1.205
11710WAT     H136712   0.509   8.743   1.183
11710WAT     H236713   0.437   8.845   1.269
11711WAT      O36714   1.128   8.501   1.140
11711WAT     H136715   1.056   8.560   1.120
11711WAT     H236716   1.181   8.500   1.060
11712WAT      O36717   0.681   8.673   0.489
11712WAT     H136718   0.717   8.613   0.423
11712WAT     H236719   0.593   8.641   0.507
11713WAT      O36720   0.290   8.749   0.230
11713WAT     H136721   0.359   8.804   0.268
11713WAT     H236722   0.211   8.804   0.234
11714WAT      O36723   0.220   8.450   0.191
11714WAT     H136724   0.266   8.531   0.214
11714WAT     H236725   0.185   8.418   0.275
11715WAT      O36726   0.451   9.001   0.914
11715WAT     H136727   0.515   9.021   0.982
11715WAT     H236728   0.487   8.925   0.869
11716WAT      O36729   0.578   8.801   0.786
11716WAT     H136730   0.642   8.731   0.797
11716WAT     H236731   0.630   8.879   0.768
11717WAT      O36732   0.755   8.881   1.106
11717WAT     H136733   0.789   8.940   1.174
11717WAT     H236734   0.663   8.868   1.129
11718WAT      O36735   0.338   8.886   1.423
11718WAT     H136736   0.306   8.814   1.478
11718WAT     H236737   0.271   8.953   1.431
11719WAT      O36738   0.660   7.909   0.960
11719WAT     H136739   0.697   7.827   0.992
11719WAT     H236740   0.574   7.915   1.001
11720WAT      O36741   0.356   8.175   0.982
11720WAT     H136742   0.406   8.222   1.049
11720WAT     H236743   0.370   8.082   1.003
11721WAT      O36744   0.596   7.705   0.326
11721WAT     H136745   0.584   7.707   0.231
11721WAT     H236746   0.691   7.710   0.338
11722WAT      O36747   1.076   7.796   1.066
11722WAT     H136748   1.026   7.870   1.100
11722WAT     H236749   1.158   7.835   1.035
11723WAT      O36750   0.906   8.321   0.411
11723WAT     H136751   0.812   8.322   0.428
11723WAT     H236752   0.937   8.242   0.456
11724WAT      O36753   0.637   8.776   1.459
11724WAT     H136754   0.577   8.778   1.385
11724WAT     H236755   0.607   8.703   1.513
11725WAT      O36756   0.945   8.728   1.368
11725WAT     H136757   1.019   8.762   1.318
11725WAT     H236758   0.869   8.745   1.313
11726WAT      O36759   0.813   8.533   1.222
11726WAT     H136760   0.854   8.548   1.306
11726WAT     H236761   0.719   8.546   1.238
11727WAT      O36762   0.860   8.267   1.422
11727WAT     H136763   0.918   8.192   1.413
11727WAT     H236764   0.878   8.320   1.344
11728WAT      O36765   0.248   7.639   0.956
11728WAT     H136766   0.203   7.641   0.872
11728WAT     H236767   0.185   7.599   1.016
11729WAT      O36768   0.289   8.528   1.019
11729WAT     H136769   0.331   8.613   1.001
11729WAT     H236770   0.197   8.542   0.996
11730WAT      O36771   0.523   8.301   1.157
11730WAT     H136772   0.534   8.242   1.231
11730WAT     H236773   0.608   8.305   1.115
11731WAT      O36774   0.756   8.357   1.015
11731WAT     H136775   0.704   8.409   0.954
11731WAT     H236776   0.791   8.420   1.078
11732WAT      O36777   0.681   7.917   1.306
11732WAT     H136778   0.612   7.851   1.299
11732WAT     H236779   0.753   7.873   1.350
11733WAT      O36780   1.112   9.052   1.189
11733WAT     H136781   1.052   9.058   1.115
11733WAT     H236782   1.125   8.958   1.202
11734WAT      O36783   1.283   8.586   0.457
11734WAT     H136784   1.320   8.508   0.417
11734WAT     H236785   1.347   8.655   0.440
11735WAT      O36786   0.981   8.724   0.999
11735WAT     H136787   0.899   8.767   1.025
11735WAT     H236788   1.022   8.786   0.937
11736WAT      O36789   1.177   8.324   0.188
11736WAT     H136790   1.139   8.247   0.145
11736WAT     H236791   1.104   8.362   0.237
11737WAT      O36792   1.116   8.238   1.151
11737WAT     H136793   1.093   8.215   1.061
11737WAT     H236794   1.142   8.330   1.147
11738WAT      O36795   0.960   7.761   1.429
11738WAT     H136796   1.047   7.762   1.467
11738WAT     H236797   0.961   7.687   1.368
11739WAT      O36798   1.104   8.146   0.518
11739WAT     H136799   1.157   8.097   0.455
11739WAT     H236800   1.163   8.160   0.592
11740WAT      O36801   1.122   8.155   0.870
11740WAT     H136802   1.027   8.151   0.882
11740WAT     H236803   1.140   8.246   0.847
11741WAT      O36804   1.196   7.935   0.365
11741WAT     H136805   1.185   7.920   0.459
11741WAT     H236806   1.272   7.883   0.341
11742WAT      O36807   1.031   7.529   1.011
11742WAT     H136808   1.095   7.591   1.048
11742WAT     H236809   1.046   7.533   0.917
11743WAT      O36810   0.368   7.645   1.302
11743WAT     H136811   0.362   7.704   1.377
11743WAT     H236812   0.462   7.634   1.287
11744WAT      O36813   0.632   7.610   1.266
11744WAT     H136814   0.693   7.642   1.200
11744WAT     H236815   0.686   7.562   1.328
11745WAT      O36816   0.706   7.467   0.899
11745WAT     H136817   0.618   7.500   0.878
11745WAT     H236818   0.695   7.419   0.981
11746WAT      O36819   0.796   7.687   1.037
11746WAT     H136820   0.764   7.606   0.999
11746WAT     H236821   0.891   7.683   1.025
11747WAT      O36822   0.480   7.558   0.792
11747WAT     H136823   0.402   7.606   0.820
11747WAT     H236824   0.451   7.468   0.782
11748WAT      O36825   0.936   7.629   0.597
11748WAT     H136826   0.980   7.623   0.512
11748WAT     H236827   0.909   7.720   0.604
11749WAT      O36828   1.122   7.592   0.398
11749WAT     H136829   1.116   7.497   0.383
11749WAT     H236830   1.200   7.603   0.453
11750WAT      O36831   0.269   7.800   0.344
11750WAT     H136832   0.188   7.763   0.310
11750WAT     H236833   0.319   7.725   0.374
11751WAT      O36834   0.719   7.467   0.467
11751WAT     H136835   0.780   7.524   0.515
11751WAT     H236836   0.645   7.523   0.445
11752WAT      O36837   0.744   7.485   1.505
11752WAT     H136838   0.733   7.517   1.595
11752WAT     H236839   0.826   7.525   1.476
11753WAT      O36840   0.635   6.409   6.051
11753WAT     H136841   0.627   6.318   6.024
11753WAT     H236842   0.593   6.459   5.981
11754WAT      O36843   0.448   6.587   6.240
11754WAT     H136844   0.370   6.539   6.269
11754WAT     H236845   0.513   6.519   6.222
11755WAT      O36846   0.850   7.028   6.118
11755WAT     H136847   0.804   6.950   6.150
11755WAT     H236848   0.931   7.030   6.168
11756WAT      O36849   0.473   7.256   6.080
11756WAT     H136850   0.411   7.302   6.023
11756WAT     H236851   0.558   7.272   6.039
11757WAT      O36852   0.392   6.855   6.240
11757WAT     H136853   0.385   6.760   6.224
11757WAT     H236854   0.468   6.864   6.297
11758WAT      O36855   0.495   6.135   6.263
11758WAT     H136856   0.533   6.048   6.252
11758WAT     H236857   0.485   6.169   6.174
11759WAT      O36858   0.873   5.885   5.956
11759WAT     H136859   0.955   5.836   5.960
11759WAT     H236860   0.877   5.944   6.032
11760WAT      O36861   0.559   6.745   5.819
11760WAT     H136862   0.497   6.791   5.763
11760WAT     H236863   0.611   6.814   5.861
11761WAT      O36864   0.897   6.079   6.234
11761WAT     H136865   0.827   6.108   6.292
11761WAT     H236866   0.933   6.160   6.198
11762WAT      O36867   1.059   7.040   6.460
11762WAT     H136868   0.990   7.107   6.459
11762WAT     H236869   1.113   7.060   6.383
11763WAT      O36870   1.204   6.023   6.273
11763WAT     H136871   1.109   6.027   6.286
11763WAT     H236872   1.236   6.105   6.311
11764WAT      O36873   0.812   7.225   6.331
11764WAT     H136874   0.813   7.185   6.244
11764WAT     H236875   0.757   7.302   6.321
11765WAT      O36876   0.942   6.897   5.840
11765WAT     H136877   0.931   6.803   5.853
11765WAT     H236878   0.941   6.933   5.929
11766WAT      O36879   0.752   6.715   6.464
11766WAT     H136880   0.794   6.694   6.381
11766WAT     H236881   0.824   6.741   6.521
11767WAT      O36882   0.496   6.460   5.776
11767WAT     H136883   0.403   6.453   5.799
11767WAT     H236884   0.511   6.554   5.764
11768WAT      O36885   0.495   6.087   5.475
11768WAT     H136886   0.401   6.103   5.484
11768WAT     H236887   0.526   6.159   5.421
11769WAT      O36888   1.147   6.555   6.473
11769WAT     H136889   1.064   6.562   6.426
11769WAT     H236890   1.206   6.614   6.426
11770WAT      O36891   0.899   6.616   5.826
11770WAT     H136892   0.837   6.582   5.761
11770WAT     H236893   0.897   6.552   5.897
11771WAT      O36894   0.843   6.234   6.568
11771WAT     H136895   0.802   6.316   6.593
11771WAT     H236896   0.770   6.175   6.549
11772WAT      O36897   0.912   7.238   6.637
11772WAT     H136898   0.864   7.319   6.617
11772WAT     H236899   0.844   7.173   6.652
11773WAT      O36900   0.716   6.540   5.527
11773WAT     H136901   0.760   6.456   5.512
11773WAT     H236902   0.788   6.603   5.535
11774WAT      O36903   0.527   7.034   5.924
11774WAT     H136904   0.571   7.108   5.882
11774WAT     H236905   0.521   7.058   6.016
11775WAT      O36906   1.075   5.665   5.358
11775WAT     H136907   1.043   5.675   5.448
11775WAT     H236908   1.151   5.723   5.353
11776WAT      O36909   0.794   7.332   5.659
11776WAT     H136910   0.778   7.303   5.749
11776WAT     H236911   0.778   7.255   5.606
11777WAT      O36912   0.764   7.083   5.515
11777WAT     H136913   0.695   7.083   5.449
11777WAT     H236914   0.839   7.041   5.472
11778WAT      O36915   0.721   7.246   5.923
11778WAT     H136916   0.766   7.168   5.954
11778WAT     H236917   0.755   7.317   5.977
11779WAT      O36918   0.285   5.698   5.630
11779WAT     H136919   0.222   5.698   5.703
11779WAT     H236920   0.276   5.612   5.591
11780WAT      O36921   0.177   5.791   6.328
11780WAT     H136922   0.207   5.881   6.320
11780WAT     H236923   0.232   5.742   6.267
11781WAT      O36924   0.675   6.249   5.775
11781WAT     H136925   0.615   6.322   5.757
11781WAT     H236926   0.730   6.243   5.697
11782WAT      O36927   0.536   6.113   5.978
11782WAT     H136928   0.575   6.145   5.897
11782WAT     H236929   0.572   6.025   5.989
11783WAT      O36930   0.594   6.372   6.388
11783WAT     H136931   0.521   6.423   6.422
11783WAT     H236932   0.555   6.290   6.357
11784WAT      O36933   0.238   6.039   6.228
11784WAT     H136934   0.239   5.995   6.143
11784WAT     H236935   0.328   6.072   6.239
11785WAT      O36936   0.244   6.140   5.527
11785WAT     H136937   0.256   6.135   5.622
11785WAT     H236938   0.206   6.226   5.512
11786WAT      O36939   0.641   5.917   6.329
11786WAT     H136940   0.642   5.962   6.413
11786WAT     H236941   0.616   5.827   6.350
11787WAT      O36942   0.268   6.445   6.403
11787WAT     H136943   0.305   6.398   6.477
11787WAT     H236944   0.249   6.533   6.437
11788WAT      O36945   0.976   6.670   6.273
11788WAT     H136946   1.048   6.719   6.234
11788WAT     H236947   0.956   6.602   6.209
11789WAT      O36948   0.522   5.809   5.688
11789WAT     H136949   0.441   5.759   5.680
11789WAT     H236950   0.503   5.893   5.646
11790WAT      O36951   0.794   6.246   5.517
11790WAT     H136952   0.882   6.278   5.500
11790WAT     H236953   0.791   6.159   5.478
11791WAT      O36954   0.393   6.864   5.585
11791WAT     H136955   0.427   6.938   5.536
11791WAT     H236956   0.310   6.895   5.622
11792WAT      O36957   1.021   6.377   5.464
11792WAT     H136958   1.012   6.421   5.379
11792WAT     H236959   1.093   6.423   5.507
11793WAT      O36960   1.124   7.063   5.737
11793WAT     H136961   1.059   6.997   5.764
11793WAT     H236962   1.085   7.103   5.659
11794WAT      O36963   0.681   6.796   6.122
11794WAT     H136964   0.717   6.736   6.056
11794WAT     H236965   0.593   6.763   6.139
11795WAT      O36966   0.290   6.872   5.862
11795WAT     H136967   0.359   6.926   5.901
11795WAT     H236968   0.211   6.926   5.866
11796WAT      O36969   0.220   6.572   5.824
11796WAT     H136970   0.266   6.653   5.846
11796WAT     H236971   0.185   6.540   5.907
11797WAT      O36972   0.451   7.123   6.547
11797WAT     H136973   0.515   7.144   6.614
11797WAT     H236974   0.487   7.047   6.501
11798WAT      O36975   0.578   6.924   6.418
11798WAT     H136976   0.642   6.853   6.430
11798WAT     H236977   0.630   7.002   6.400
11799WAT      O36978   0.963   6.952   5.391
11799WAT     H136979   0.940   6.880   5.450
11799WAT     H236980   0.923   6.927   5.307
11800WAT      O36981   0.921   6.744   5.557
11800WAT     H136982   0.892   6.790   5.636
11800WAT     H236983   1.000   6.698   5.584
11801WAT      O36984   0.660   6.032   6.592
11801WAT     H136985   0.697   5.950   6.625
11801WAT     H236986   0.574   6.038   6.634
11802WAT      O36987   0.996   5.927   5.673
11802WAT     H136988   0.934   5.938   5.601
11802WAT     H236989   0.947   5.949   5.752
11803WAT      O36990   0.441   7.099   5.416
11803WAT     H136991   0.451   7.079   5.323
11803WAT     H236992   0.351   7.074   5.437
11804WAT      O36993   0.596   5.828   5.958
11804WAT     H136994   0.584   5.829   5.864
11804WAT     H236995   0.691   5.832   5.970
11805WAT      O36996   0.305   7.351   5.886
11805WAT     H136997   0.331   7.347   5.793
11805WAT     H236998   0.210   7.338   5.885
11806WAT      O36999   0.906   6.443   6.043
11806WAT     H137000   0.812   6.445   6.061
11806WAT     H237001   0.937   6.364   6.088
11807WAT      O37002   1.106   7.160   6.211
11807WAT     H137003   1.118   7.242   6.258
11807WAT     H237004   1.193   7.139   6.176
11808WAT      O37005   1.069   7.209   5.503
11808WAT     H137006   1.041   7.168   5.421
11808WAT     H237007   1.050   7.302   5.491
11809WAT      O37008   0.216   6.809   5.347
11809WAT     H137009   0.205   6.747   5.419
11809WAT     H237010   0.199   6.756   5.268
11810WAT      O37011   0.540   6.715   5.407
11810WAT     H137012   0.485   6.760   5.472
11810WAT     H237013   0.602   6.665   5.459
11811WAT      O37014   0.358   6.513   5.322
11811WAT     H137015   0.410   6.442   5.285
11811WAT     H237016   0.423   6.577   5.352
11812WAT      O37017   0.248   5.761   6.589
11812WAT     H137018   0.203   5.763   6.504
11812WAT     H237019   0.185   5.721   6.648
11813WAT      O37020   0.289   6.651   6.651
11813WAT     H137021   0.331   6.735   6.634
11813WAT     H237022   0.197   6.665   6.628
11814WAT      O37023   0.744   5.699   5.544
11814WAT     H137024   0.772   5.615   5.580
11814WAT     H237025   0.667   5.723   5.596
11815WAT      O37026   0.414   7.321   5.551
11815WAT     H137027   0.504   7.355   5.553
11815WAT     H237028   0.418   7.249   5.488
11816WAT      O37029   1.236   6.949   5.355
11816WAT     H137030   1.153   6.955   5.402
11816WAT     H237031   1.254   7.038   5.325
11817WAT      O37032   1.182   6.623   5.605
11817WAT     H137033   1.258   6.680   5.616
11817WAT     H237034   1.183   6.566   5.682
11818WAT      O37035   1.283   6.709   6.090
11818WAT     H137036   1.320   6.630   6.049
11818WAT     H237037   1.347   6.778   6.072
11819WAT      O37038   1.187   6.652   5.321
11819WAT     H137039   1.215   6.743   5.308
11819WAT     H237040   1.168   6.646   5.415
11820WAT      O37041   0.827   5.955   5.450
11820WAT     H137042   0.869   5.936   5.366
11820WAT     H237043   0.796   5.870   5.482
11821WAT      O37044   1.177   6.446   5.820
11821WAT     H137045   1.139   6.369   5.777
11821WAT     H237046   1.104   6.484   5.869
11822WAT      O37047   1.104   6.269   6.150
11822WAT     H137048   1.157   6.219   6.087
11822WAT     H237049   1.163   6.282   6.225
11823WAT      O37050   1.122   6.277   6.503
11823WAT     H137051   1.027   6.274   6.514
11823WAT     H237052   1.140   6.368   6.479
11824WAT      O37053   1.053   6.194   5.744
11824WAT     H137054   1.103   6.171   5.823
11824WAT     H237055   1.033   6.111   5.703
11825WAT      O37056   1.196   6.058   5.998
11825WAT     H137057   1.185   6.043   6.091
11825WAT     H237058   1.272   6.005   5.973
11826WAT      O37059   1.285   5.841   5.322
11826WAT     H137060   1.378   5.828   5.301
11826WAT     H237061   1.283   5.849   5.417
11827WAT      O37062   1.292   5.918   5.584
11827WAT     H137063   1.213   5.912   5.637
11827WAT     H237064   1.313   6.012   5.583
11828WAT      O37065   0.987   7.322   5.984
11828WAT     H137066   1.046   7.290   5.916
11828WAT     H237067   1.012   7.275   6.063
11829WAT      O37068   0.706   5.589   6.531
11829WAT     H137069   0.618   5.623   6.511
11829WAT     H237070   0.695   5.542   6.613
11830WAT      O37071   1.042   7.387   6.367
11830WAT     H137072   0.996   7.462   6.329
11830WAT     H237073   0.979   7.315   6.361
11831WAT      O37074   0.359   7.307   6.367
11831WAT     H137075   0.387   7.282   6.279
11831WAT     H237076   0.410   7.252   6.426
11832WAT      O37077   0.480   5.681   6.425
11832WAT     H137078   0.402   5.728   6.453
11832WAT     H237079   0.451   5.591   6.414
11833WAT      O37080   0.936   5.751   6.229
11833WAT     H137081   0.980   5.746   6.144
11833WAT     H237082   0.909   5.843   6.236
11834WAT      O37083   1.122   5.714   6.030
11834WAT     H137084   1.116   5.620   6.016
11834WAT     H237085   1.200   5.725   6.085
11835WAT      O37086   0.269   5.923   5.976
11835WAT     H137087   0.188   5.885   5.942
11835WAT     H237088   0.319   5.847   6.006
11836WAT      O37089   0.719   5.589   6.100
11836WAT     H137090   0.780   5.646   6.147
11836WAT     H237091   0.645   5.646   6.077
11837WAT      O37092   1.034   5.629   5.627
11837WAT     H137093   1.053   5.719   5.654
11837WAT     H237094   0.955   5.606   5.676
11838WAT      O37095   1.189   7.354   5.803
11838WAT     H137096   1.206   7.285   5.739
11838WAT     H237097   1.119   7.406   5.764
11839WAT      O37098   0.635   6.409   4.174
11839WAT     H137099   0.627   6.318   4.147
11839WAT     H237100   0.593   6.459   4.103
11840WAT      O37101   0.448   6.587   4.362
11840WAT     H137102   0.370   6.539   4.391
11840WAT     H237103   0.513   6.519   4.345
11841WAT      O37104   0.850   7.028   4.240
11841WAT     H137105   0.804   6.950   4.273
11841WAT     H237106   0.931   7.030   4.291
11842WAT      O37107   0.473   7.256   4.202
11842WAT     H137108   0.411   7.302   4.145
11842WAT     H237109   0.558   7.272   4.162
11843WAT      O37110   0.392   6.855   4.363
11843WAT     H137111   0.385   6.760   4.347
11843WAT     H237112   0.468   6.864   4.420
11844WAT      O37113   0.495   6.135   4.386
11844WAT     H137114   0.533   6.048   4.374
11844WAT     H237115   0.485   6.169   4.296
11845WAT      O37116   0.873   5.885   4.079
11845WAT     H137117   0.955   5.836   4.083
11845WAT     H237118   0.877   5.944   4.154
11846WAT      O37119   1.302   6.086   4.735
11846WAT     H137120   1.232   6.125   4.683
11846WAT     H237121   1.329   6.156   4.795
11847WAT      O37122   0.559   6.745   3.941
11847WAT     H137123   0.497   6.791   3.885
11847WAT     H237124   0.611   6.814   3.983
11848WAT      O37125   0.897   6.079   4.356
11848WAT     H137126   0.827   6.108   4.414
11848WAT     H237127   0.933   6.160   4.320
11849WAT      O37128   1.059   7.040   4.582
11849WAT     H137129   0.990   7.107   4.582
11849WAT     H237130   1.113   7.060   4.506
11850WAT      O37131   1.204   6.023   4.395
11850WAT     H137132   1.109   6.027   4.408
11850WAT     H237133   1.236   6.105   4.434
11851WAT      O37134   0.812   7.225   4.454
11851WAT     H137135   0.813   7.185   4.367
11851WAT     H237136   0.757   7.302   4.443
11852WAT      O37137   0.942   6.897   3.963
11852WAT     H137138   0.931   6.803   3.975
11852WAT     H237139   0.941   6.933   4.051
11853WAT      O37140   0.752   6.715   4.587
11853WAT     H137141   0.794   6.694   4.503
11853WAT     H237142   0.824   6.741   4.644
11854WAT      O37143   0.496   6.460   3.898
11854WAT     H137144   0.403   6.453   3.921
11854WAT     H237145   0.511   6.554   3.887
11855WAT      O37146   0.495   6.087   3.598
11855WAT     H137147   0.401   6.103   3.607
11855WAT     H237148   0.526   6.159   3.543
11856WAT      O37149   1.147   6.555   4.596
11856WAT     H137150   1.064   6.562   4.548
11856WAT     H237151   1.206   6.614   4.549
11857WAT      O37152   0.899   6.616   3.949
11857WAT     H137153   0.837   6.582   3.884
11857WAT     H237154   0.897   6.552   4.019
11858WAT      O37155   0.843   6.234   4.690
11858WAT     H137156   0.802   6.316   4.716
11858WAT     H237157   0.770   6.175   4.671
11859WAT      O37158   0.912   7.238   4.759
11859WAT     H137159   0.864   7.319   4.740
11859WAT     H237160   0.844   7.173   4.774
11860WAT      O37161   0.716   6.540   3.649
11860WAT     H137162   0.760   6.456   3.635
11860WAT     H237163   0.788   6.603   3.658
11861WAT      O37164   0.527   7.034   4.046
11861WAT     H137165   0.571   7.108   4.005
11861WAT     H237166   0.521   7.058   4.139
11862WAT      O37167   1.075   5.665   3.481
11862WAT     H137168   1.043   5.675   3.571
11862WAT     H237169   1.151   5.723   3.476
11863WAT      O37170   1.270   7.214   5.266
11863WAT     H137171   1.318   7.262   5.334
11863WAT     H237172   1.332   7.208   5.194
11864WAT      O37173   1.210   6.934   4.982
11864WAT     H137174   1.223   6.910   4.890
11864WAT     H237175   1.215   6.850   5.029
11865WAT      O37176   0.597   7.304   4.839
11865WAT     H137177   0.648   7.295   4.919
11865WAT     H237178   0.512   7.339   4.868
11866WAT      O37179   0.794   7.332   3.782
11866WAT     H137180   0.778   7.303   3.872
11866WAT     H237181   0.778   7.255   3.728
11867WAT      O37182   0.764   7.083   3.638
11867WAT     H137183   0.695   7.083   3.572
11867WAT     H237184   0.839   7.041   3.595
11868WAT      O37185   0.721   7.246   4.045
11868WAT     H137186   0.766   7.168   4.077
11868WAT     H237187   0.755   7.317   4.100
11869WAT      O37188   1.196   6.139   5.079
11869WAT     H137189   1.134   6.190   5.026
11869WAT     H237190   1.164   6.049   5.073
11870WAT      O37191   0.402   6.023   4.825
11870WAT     H137192   0.356   6.044   4.906
11870WAT     H237193   0.362   5.941   4.795
11871WAT      O37194   0.902   6.145   4.938
11871WAT     H137195   0.817   6.115   4.970
11871WAT     H237196   0.886   6.169   4.847
11872WAT      O37197   0.611   6.295   5.148
11872WAT     H137198   0.644   6.212   5.114
11872WAT     H237199   0.690   6.347   5.163
11873WAT      O37200   0.285   5.698   3.753
11873WAT     H137201   0.222   5.698   3.825
11873WAT     H237202   0.276   5.612   3.713
11874WAT      O37203   0.177   5.791   4.451
11874WAT     H137204   0.207   5.881   4.443
11874WAT     H237205   0.232   5.742   4.389
11875WAT      O37206   0.675   6.249   3.898
11875WAT     H137207   0.615   6.322   3.879
11875WAT     H237208   0.730   6.243   3.819
11876WAT      O37209   0.196   6.338   5.104
11876WAT     H137210   0.187   6.244   5.089
11876WAT     H237211   0.281   6.361   5.065
11877WAT      O37212   0.536   6.113   4.101
11877WAT     H137213   0.575   6.145   4.019
11877WAT     H237214   0.572   6.025   4.112
11878WAT      O37215   0.367   5.988   5.227
11878WAT     H137216   0.298   5.969   5.290
11878WAT     H237217   0.441   6.016   5.280
11879WAT      O37218   0.594   6.372   4.510
11879WAT     H137219   0.521   6.423   4.545
11879WAT     H237220   0.555   6.290   4.480
11880WAT      O37221   0.238   6.039   4.351
11880WAT     H137222   0.239   5.995   4.266
11880WAT     H237223   0.328   6.072   4.361
11881WAT      O37224   0.244   6.140   3.650
11881WAT     H137225   0.256   6.135   3.745
11881WAT     H237226   0.206   6.226   3.634
11882WAT      O37227   0.641   5.917   4.451
11882WAT     H137228   0.642   5.962   4.536
11882WAT     H237229   0.616   5.827   4.473
11883WAT      O37230   0.983   5.659   5.035
11883WAT     H137231   1.016   5.585   5.088
11883WAT     H237232   0.987   5.627   4.945
11884WAT      O37233   0.268   6.445   4.525
11884WAT     H137234   0.305   6.398   4.600
11884WAT     H237235   0.249   6.533   4.559
11885WAT      O37236   0.976   6.670   4.396
11885WAT     H137237   1.048   6.719   4.357
11885WAT     H237238   0.956   6.602   4.332
11886WAT      O37239   0.522   5.809   3.810
11886WAT     H137240   0.441   5.759   3.803
11886WAT     H237241   0.503   5.893   3.769
11887WAT      O37242   0.514   6.677   4.985
11887WAT     H137243   0.507   6.585   4.959
11887WAT     H237244   0.451   6.687   5.056
11888WAT      O37245   0.794   6.246   3.640
11888WAT     H137246   0.882   6.278   3.622
11888WAT     H237247   0.791   6.159   3.601
11889WAT      O37248   0.393   6.864   3.708
11889WAT     H137249   0.427   6.938   3.658
11889WAT     H237250   0.310   6.895   3.744
11890WAT      O37251   0.507   6.959   4.960
11890WAT     H137252   0.509   6.866   4.938
11890WAT     H237253   0.437   6.968   5.024
11891WAT      O37254   1.021   6.377   3.587
11891WAT     H137255   1.012   6.421   3.502
11891WAT     H237256   1.093   6.423   3.630
11892WAT      O37257   1.128   6.623   4.894
11892WAT     H137258   1.056   6.682   4.875
11892WAT     H237259   1.181   6.622   4.815
11893WAT      O37260   1.124   7.063   3.860
11893WAT     H137261   1.059   6.997   3.887
11893WAT     H237262   1.085   7.103   3.782
11894WAT      O37263   0.681   6.796   4.244
11894WAT     H137264   0.717   6.736   4.178
11894WAT     H237265   0.593   6.763   4.261
11895WAT      O37266   0.290   6.872   3.985
11895WAT     H137267   0.359   6.926   4.023
11895WAT     H237268   0.211   6.926   3.989
11896WAT      O37269   0.220   6.572   3.946
11896WAT     H137270   0.266   6.653   3.969
11896WAT     H237271   0.185   6.540   4.029
11897WAT      O37272   0.451   7.123   4.669
11897WAT     H137273   0.515   7.144   4.737
11897WAT     H237274   0.487   7.047   4.624
11898WAT      O37275   0.578   6.924   4.541
11898WAT     H137276   0.642   6.853   4.552
11898WAT     H237277   0.630   7.002   4.523
11899WAT      O37278   0.963   6.952   3.513
11899WAT     H137279   0.940   6.880   3.573
11899WAT     H237280   0.923   6.927   3.430
11900WAT      O37281   0.755   7.003   4.861
11900WAT     H137282   0.789   7.062   4.929
11900WAT     H237283   0.663   6.990   4.884
11901WAT      O37284   0.921   6.744   3.679
11901WAT     H137285   0.892   6.790   3.758
11901WAT     H237286   1.000   6.698   3.706
11902WAT      O37287   0.338   7.008   5.178
11902WAT     H137288   0.306   6.937   5.233
11902WAT     H237289   0.271   7.076   5.186
11903WAT      O37290   0.660   6.032   4.715
11903WAT     H137291   0.697   5.950   4.747
11903WAT     H237292   0.574   6.038   4.756
11904WAT      O37293   0.996   5.927   3.795
11904WAT     H137294   0.934   5.938   3.724
11904WAT     H237295   0.947   5.949   3.874
11905WAT      O37296   0.441   7.099   3.539
11905WAT     H137297   0.451   7.079   3.446
11905WAT     H237298   0.351   7.074   3.559
11906WAT      O37299   0.356   6.297   4.737
11906WAT     H137300   0.406   6.345   4.803
11906WAT     H237301   0.370   6.205   4.758
11907WAT      O37302   0.596   5.828   4.081
11907WAT     H137303   0.584   5.829   3.986
11907WAT     H237304   0.691   5.832   4.093
11908WAT      O37305   0.305   7.351   4.008
11908WAT     H137306   0.331   7.347   3.916
11908WAT     H237307   0.210   7.338   4.008
11909WAT      O37308   1.076   5.919   4.821
11909WAT     H137309   1.026   5.993   4.855
11909WAT     H237310   1.158   5.958   4.790
11910WAT      O37311   0.906   6.443   4.166
11910WAT     H137312   0.812   6.445   4.183
11910WAT     H237313   0.937   6.364   4.210
11911WAT      O37314   1.106   7.160   4.333
11911WAT     H137315   1.118   7.242   4.381
11911WAT     H237316   1.193   7.139   4.299
11912WAT      O37317   0.637   6.899   5.214
11912WAT     H137318   0.577   6.901   5.140
11912WAT     H237319   0.607   6.826   5.268
11913WAT      O37320   0.780   7.272   5.075
11913WAT     H137321   0.876   7.263   5.070
11913WAT     H237322   0.766   7.338   5.143
11914WAT      O37323   1.069   7.209   3.625
11914WAT     H137324   1.041   7.168   3.544
11914WAT     H237325   1.050   7.302   3.613
11915WAT      O37326   0.216   6.809   3.469
11915WAT     H137327   0.205   6.747   3.542
11915WAT     H237328   0.199   6.756   3.391
11916WAT      O37329   0.540   6.715   3.530
11916WAT     H137330   0.485   6.760   3.594
11916WAT     H237331   0.602   6.665   3.582
11917WAT      O37332   0.945   6.850   5.123
11917WAT     H137333   1.019   6.884   5.073
11917WAT     H237334   0.869   6.867   5.068
11918WAT      O37335   0.358   6.513   3.444
11918WAT     H137336   0.410   6.442   3.407
11918WAT     H237337   0.423   6.577   3.474
11919WAT      O37338   0.813   6.656   4.976
11919WAT     H137339   0.854   6.671   5.061
11919WAT     H237340   0.719   6.668   4.993
11920WAT      O37341   0.860   6.390   5.177
11920WAT     H137342   0.918   6.314   5.168
11920WAT     H237343   0.878   6.443   5.099
11921WAT      O37344   0.248   5.761   4.711
11921WAT     H137345   0.203   5.763   4.627
11921WAT     H237346   0.185   5.721   4.771
11922WAT      O37347   0.289   6.651   4.773
11922WAT     H137348   0.331   6.735   4.756
11922WAT     H237349   0.197   6.665   4.750
11923WAT      O37350   0.523   6.424   4.912
11923WAT     H137351   0.534   6.364   4.986
11923WAT     H237352   0.608   6.428   4.870
11924WAT      O37353   0.756   6.479   4.769
11924WAT     H137354   0.704   6.532   4.709
11924WAT     H237355   0.791   6.543   4.832
11925WAT      O37356   0.681   6.040   5.061
11925WAT     H137357   0.612   5.974   5.054
11925WAT     H237358   0.753   5.995   5.105
11926WAT      O37359   0.744   5.699   3.667
11926WAT     H137360   0.772   5.615   3.702
11926WAT     H237361   0.667   5.723   3.718
11927WAT      O37362   0.360   7.405   4.911
11927WAT     H137363   0.352   7.495   4.942
11927WAT     H237364   0.269   7.373   4.908
11928WAT      O37365   0.414   7.321   3.673
11928WAT     H137366   0.504   7.355   3.675
11928WAT     H237367   0.418   7.249   3.610
11929WAT      O37368   1.112   7.174   4.944
11929WAT     H137369   1.052   7.180   4.869
11929WAT     H237370   1.125   7.081   4.957
11930WAT      O37371   1.236   6.949   3.477
11930WAT     H137372   1.153   6.955   3.525
11930WAT     H237373   1.254   7.038   3.447
11931WAT      O37374   1.182   6.623   3.728
11931WAT     H137375   1.258   6.680   3.738
11931WAT     H237376   1.183   6.566   3.805
11932WAT      O37377   1.283   6.709   4.212
11932WAT     H137378   1.320   6.630   4.172
11932WAT     H237379   1.347   6.778   4.194
11933WAT      O37380   0.981   6.847   4.754
11933WAT     H137381   0.899   6.890   4.780
11933WAT     H237382   1.022   6.908   4.692
11934WAT      O37383   1.187   6.652   3.444
11934WAT     H137384   1.215   6.743   3.431
11934WAT     H237385   1.168   6.646   3.537
11935WAT      O37386   0.827   5.955   3.573
11935WAT     H137387   0.869   5.936   3.489
11935WAT     H237388   0.796   5.870   3.604
11936WAT      O37389   1.177   6.446   3.943
11936WAT     H137390   1.139   6.369   3.900
11936WAT     H237391   1.104   6.484   3.992
11937WAT      O37392   1.116   6.361   4.906
11937WAT     H137393   1.093   6.338   4.816
11937WAT     H237394   1.142   6.453   4.902
11938WAT      O37395   0.960   5.883   5.184
11938WAT     H137396   1.047   5.884   5.222
11938WAT     H237397   0.961   5.810   5.123
11939WAT      O37398   1.104   6.269   4.273
11939WAT     H137399   1.157   6.219   4.210
11939WAT     H237400   1.163   6.282   4.347
11940WAT      O37401   1.122   6.277   4.625
11940WAT     H137402   1.027   6.274   4.637
11940WAT     H237403   1.140   6.368   4.602
11941WAT      O37404   1.053   6.194   3.867
11941WAT     H137405   1.103   6.171   3.945
11941WAT     H237406   1.033   6.111   3.825
11942WAT      O37407   1.196   6.058   4.120
11942WAT     H137408   1.185   6.043   4.214
11942WAT     H237409   1.272   6.005   4.096
11943WAT      O37410   1.031   5.652   4.766
11943WAT     H137411   1.095   5.713   4.803
11943WAT     H237412   1.046   5.656   4.672
11944WAT      O37413   1.285   5.841   3.444
11944WAT     H137414   1.378   5.828   3.423
11944WAT     H237415   1.283   5.849   3.540
11945WAT      O37416   1.292   5.918   3.707
11945WAT     H137417   1.213   5.912   3.760
11945WAT     H237418   1.313   6.012   3.706
11946WAT      O37419   0.987   7.322   4.106
11946WAT     H137420   1.046   7.290   4.039
11946WAT     H237421   1.012   7.275   4.185
11947WAT      O37422   0.368   5.767   5.057
11947WAT     H137423   0.362   5.826   5.132
11947WAT     H237424   0.462   5.757   5.042
11948WAT      O37425   0.632   5.733   5.021
11948WAT     H137426   0.693   5.765   4.955
11948WAT     H237427   0.686   5.684   5.083
11949WAT      O37428   1.273   7.323   4.761
11949WAT     H137429   1.224   7.363   4.690
11949WAT     H237430   1.213   7.260   4.801
11950WAT      O37431   0.706   5.589   4.653
11950WAT     H137432   0.618   5.623   4.633
11950WAT     H237433   0.695   5.542   4.736
11951WAT      O37434   0.796   5.810   4.792
11951WAT     H137435   0.764   5.729   4.754
11951WAT     H237436   0.891   5.806   4.779
11952WAT      O37437   1.042   7.387   4.489
11952WAT     H137438   0.996   7.462   4.452
11952WAT     H237439   0.979   7.315   4.483
11953WAT      O37440   0.359   7.307   4.489
11953WAT     H137441   0.387   7.282   4.402
11953WAT     H237442   0.410   7.252   4.548
11954WAT      O37443   0.480   5.681   4.547
11954WAT     H137444   0.402   5.728   4.575
11954WAT     H237445   0.451   5.591   4.536
11955WAT      O37446   0.936   5.751   4.352
11955WAT     H137447   0.980   5.746   4.267
11955WAT     H237448   0.909   5.843   4.359
11956WAT      O37449   1.122   5.714   4.153
11956WAT     H137450   1.116   5.620   4.138
11956WAT     H237451   1.200   5.725   4.207
11957WAT      O37452   0.269   5.923   4.098
11957WAT     H137453   0.188   5.885   4.064
11957WAT     H237454   0.319   5.847   4.129
11958WAT      O37455   0.719   5.589   4.222
11958WAT     H137456   0.780   5.646   4.270
11958WAT     H237457   0.645   5.646   4.200
11959WAT      O37458   1.034   5.629   3.750
11959WAT     H137459   1.053   5.719   3.776
11959WAT     H237460   0.955   5.606   3.799
11960WAT      O37461   0.365   7.399   5.226
11960WAT     H137462   0.458   7.376   5.230
11960WAT     H237463   0.364   7.482   5.178
11961WAT      O37464   1.189   7.354   3.926
11961WAT     H137465   1.206   7.285   3.861
11961WAT     H237466   1.119   7.406   3.887
11962WAT      O37467   0.744   5.607   5.260
11962WAT     H137468   0.733   5.639   5.350
11962WAT     H237469   0.826   5.647   5.231
11963WAT      O37470   1.022   7.322   5.208
11963WAT     H137471   1.101   7.272   5.188
11963WAT     H237472   1.052   7.390   5.269
11964WAT      O37473   0.635   6.409   2.297
11964WAT     H137474   0.627   6.318   2.270
11964WAT     H237475   0.593   6.459   2.226
11965WAT      O37476   0.448   6.587   2.485
11965WAT     H137477   0.370   6.539   2.514
11965WAT     H237478   0.513   6.519   2.467
11966WAT      O37479   0.850   7.028   2.363
11966WAT     H137480   0.804   6.950   2.396
11966WAT     H237481   0.931   7.030   2.413
11967WAT      O37482   0.473   7.256   2.325
11967WAT     H137483   0.411   7.302   2.268
11967WAT     H237484   0.558   7.272   2.285
11968WAT      O37485   0.392   6.855   2.485
11968WAT     H137486   0.385   6.760   2.469
11968WAT     H237487   0.468   6.864   2.543
11969WAT      O37488   0.495   6.135   2.508
11969WAT     H137489   0.533   6.048   2.497
11969WAT     H237490   0.485   6.169   2.419
11970WAT      O37491   0.873   5.885   2.201
11970WAT     H137492   0.955   5.836   2.206
11970WAT     H237493   0.877   5.944   2.277
11971WAT      O37494   1.302   6.086   2.858
11971WAT     H137495   1.232   6.125   2.806
11971WAT     H237496   1.329   6.156   2.918
11972WAT      O37497   0.559   6.745   2.064
11972WAT     H137498   0.497   6.791   2.008
11972WAT     H237499   0.611   6.814   2.106
11973WAT      O37500   0.897   6.079   2.479
11973WAT     H137501   0.827   6.108   2.537
11973WAT     H237502   0.933   6.160   2.443
11974WAT      O37503   1.059   7.040   2.705
11974WAT     H137504   0.990   7.107   2.704
11974WAT     H237505   1.113   7.060   2.628
11975WAT      O37506   1.204   6.023   2.518
11975WAT     H137507   1.109   6.027   2.531
11975WAT     H237508   1.236   6.105   2.556
11976WAT      O37509   0.812   7.225   2.576
11976WAT     H137510   0.813   7.185   2.490
11976WAT     H237511   0.757   7.302   2.566
11977WAT      O37512   0.942   6.897   2.085
11977WAT     H137513   0.931   6.803   2.098
11977WAT     H237514   0.941   6.933   2.174
11978WAT      O37515   0.752   6.715   2.709
11978WAT     H137516   0.794   6.694   2.626
11978WAT     H237517   0.824   6.741   2.766
11979WAT      O37518   0.496   6.460   2.021
11979WAT     H137519   0.403   6.453   2.044
11979WAT     H237520   0.511   6.554   2.009
11980WAT      O37521   0.495   6.087   1.721
11980WAT     H137522   0.401   6.103   1.729
11980WAT     H237523   0.526   6.159   1.666
11981WAT      O37524   1.147   6.555   2.718
11981WAT     H137525   1.064   6.562   2.671
11981WAT     H237526   1.206   6.614   2.672
11982WAT      O37527   0.899   6.616   2.071
11982WAT     H137528   0.837   6.582   2.007
11982WAT     H237529   0.897   6.552   2.142
11983WAT      O37530   0.843   6.234   2.813
11983WAT     H137531   0.802   6.316   2.838
11983WAT     H237532   0.770   6.175   2.794
11984WAT      O37533   0.912   7.238   2.882
11984WAT     H137534   0.864   7.319   2.862
11984WAT     H237535   0.844   7.173   2.897
11985WAT      O37536   0.716   6.540   1.772
11985WAT     H137537   0.760   6.456   1.757
11985WAT     H237538   0.788   6.603   1.781
11986WAT      O37539   0.527   7.034   2.169
11986WAT     H137540   0.571   7.108   2.127
11986WAT     H237541   0.521   7.058   2.261
11987WAT      O37542   1.075   5.665   1.603
11987WAT     H137543   1.043   5.675   1.693
11987WAT     H237544   1.151   5.723   1.598
11988WAT      O37545   1.270   7.214   3.389
11988WAT     H137546   1.318   7.262   3.457
11988WAT     H237547   1.332   7.208   3.316
11989WAT      O37548   1.210   6.934   3.105
11989WAT     H137549   1.223   6.910   3.013
11989WAT     H237550   1.215   6.850   3.152
11990WAT      O37551   0.597   7.304   2.962
11990WAT     H137552   0.648   7.295   3.042
11990WAT     H237553   0.512   7.339   2.991
11991WAT      O37554   0.794   7.332   1.904
11991WAT     H137555   0.778   7.303   1.994
11991WAT     H237556   0.778   7.255   1.851
11992WAT      O37557   0.764   7.083   1.760
11992WAT     H137558   0.695   7.083   1.694
11992WAT     H237559   0.839   7.041   1.717
11993WAT      O37560   0.721   7.246   2.168
11993WAT     H137561   0.766   7.168   2.199
11993WAT     H237562   0.755   7.317   2.222
11994WAT      O37563   1.196   6.139   3.201
11994WAT     H137564   1.134   6.190   3.148
11994WAT     H237565   1.164   6.049   3.195
11995WAT      O37566   0.402   6.023   2.948
11995WAT     H137567   0.356   6.044   3.029
11995WAT     H237568   0.362   5.941   2.917
11996WAT      O37569   0.902   6.145   3.061
11996WAT     H137570   0.817   6.115   3.093
11996WAT     H237571   0.886   6.169   2.970
11997WAT      O37572   0.611   6.295   3.271
11997WAT     H137573   0.644   6.212   3.237
11997WAT     H237574   0.690   6.347   3.285
11998WAT      O37575   0.285   5.698   1.875
11998WAT     H137576   0.222   5.698   1.948
11998WAT     H237577   0.276   5.612   1.836
11999WAT      O37578   0.177   5.791   2.573
11999WAT     H137579   0.207   5.881   2.565
11999WAT     H237580   0.232   5.742   2.512
12000WAT      O37581   0.675   6.249   2.020
12000WAT     H137582   0.615   6.322   2.002
12000WAT     H237583   0.730   6.243   1.942
12001WAT      O37584   0.196   6.338   3.227
12001WAT     H137585   0.187   6.244   3.212
12001WAT     H237586   0.281   6.361   3.187
12002WAT      O37587   0.536   6.113   2.223
12002WAT     H137588   0.575   6.145   2.142
12002WAT     H237589   0.572   6.025   2.235
12003WAT      O37590   0.367   5.988   3.349
12003WAT     H137591   0.298   5.969   3.413
12003WAT     H237592   0.441   6.016   3.402
12004WAT      O37593   0.594   6.372   2.633
12004WAT     H137594   0.521   6.423   2.668
12004WAT     H237595   0.555   6.290   2.603
12005WAT      O37596   0.238   6.039   2.473
12005WAT     H137597   0.239   5.995   2.388
12005WAT     H237598   0.328   6.072   2.484
12006WAT      O37599   0.244   6.140   1.772
12006WAT     H137600   0.256   6.135   1.867
12006WAT     H237601   0.206   6.226   1.757
12007WAT      O37602   0.641   5.917   2.574
12007WAT     H137603   0.642   5.962   2.658
12007WAT     H237604   0.616   5.827   2.595
12008WAT      O37605   0.983   5.659   3.158
12008WAT     H137606   1.016   5.585   3.210
12008WAT     H237607   0.987   5.627   3.068
12009WAT      O37608   0.268   6.445   2.648
12009WAT     H137609   0.305   6.398   2.722
12009WAT     H237610   0.249   6.533   2.682
12010WAT      O37611   0.976   6.670   2.519
12010WAT     H137612   1.048   6.719   2.480
12010WAT     H237613   0.956   6.602   2.454
12011WAT      O37614   0.522   5.809   1.933
12011WAT     H137615   0.441   5.759   1.925
12011WAT     H237616   0.503   5.893   1.891
12012WAT      O37617   0.514   6.677   3.107
12012WAT     H137618   0.507   6.585   3.082
12012WAT     H237619   0.451   6.687   3.179
12013WAT      O37620   0.794   6.246   1.763
12013WAT     H137621   0.882   6.278   1.745
12013WAT     H237622   0.791   6.159   1.723
12014WAT      O37623   0.393   6.864   1.830
12014WAT     H137624   0.427   6.938   1.781
12014WAT     H237625   0.310   6.895   1.867
12015WAT      O37626   0.507   6.959   3.082
12015WAT     H137627   0.509   6.866   3.061
12015WAT     H237628   0.437   6.968   3.146
12016WAT      O37629   1.021   6.377   1.709
12016WAT     H137630   1.012   6.421   1.624
12016WAT     H237631   1.093   6.423   1.753
12017WAT      O37632   1.128   6.623   3.017
12017WAT     H137633   1.056   6.682   2.997
12017WAT     H237634   1.181   6.622   2.937
12018WAT      O37635   1.124   7.063   1.982
12018WAT     H137636   1.059   6.997   2.010
12018WAT     H237637   1.085   7.103   1.905
12019WAT      O37638   0.681   6.796   2.367
12019WAT     H137639   0.717   6.736   2.301
12019WAT     H237640   0.593   6.763   2.384
12020WAT      O37641   0.290   6.872   2.108
12020WAT     H137642   0.359   6.926   2.146
12020WAT     H237643   0.211   6.926   2.111
12021WAT      O37644   0.220   6.572   2.069
12021WAT     H137645   0.266   6.653   2.091
12021WAT     H237646   0.185   6.540   2.152
12022WAT      O37647   0.451   7.123   2.792
12022WAT     H137648   0.515   7.144   2.859
12022WAT     H237649   0.487   7.047   2.746
12023WAT      O37650   0.578   6.924   2.664
12023WAT     H137651   0.642   6.853   2.675
12023WAT     H237652   0.630   7.002   2.645
12024WAT      O37653   0.963   6.952   1.636
12024WAT     H137654   0.940   6.880   1.695
12024WAT     H237655   0.923   6.927   1.552
12025WAT      O37656   0.755   7.003   2.984
12025WAT     H137657   0.789   7.062   3.052
12025WAT     H237658   0.663   6.990   3.007
12026WAT      O37659   0.921   6.744   1.802
12026WAT     H137660   0.892   6.790   1.881
12026WAT     H237661   1.000   6.698   1.829
12027WAT      O37662   0.338   7.008   3.301
12027WAT     H137663   0.306   6.937   3.355
12027WAT     H237664   0.271   7.076   3.308
12028WAT      O37665   0.660   6.032   2.837
12028WAT     H137666   0.697   5.950   2.870
12028WAT     H237667   0.574   6.038   2.879
12029WAT      O37668   0.996   5.927   1.918
12029WAT     H137669   0.934   5.938   1.847
12029WAT     H237670   0.947   5.949   1.997
12030WAT      O37671   0.441   7.099   1.661
12030WAT     H137672   0.451   7.079   1.568
12030WAT     H237673   0.351   7.074   1.682
12031WAT      O37674   0.356   6.297   2.860
12031WAT     H137675   0.406   6.345   2.926
12031WAT     H237676   0.370   6.205   2.880
12032WAT      O37677   0.596   5.828   2.204
12032WAT     H137678   0.584   5.829   2.109
12032WAT     H237679   0.691   5.832   2.216
12033WAT      O37680   0.305   7.351   2.131
12033WAT     H137681   0.331   7.347   2.039
12033WAT     H237682   0.210   7.338   2.130
12034WAT      O37683   1.076   5.919   2.944
12034WAT     H137684   1.026   5.993   2.978
12034WAT     H237685   1.158   5.958   2.912
12035WAT      O37686   0.906   6.443   2.288
12035WAT     H137687   0.812   6.445   2.306
12035WAT     H237688   0.937   6.364   2.333
12036WAT      O37689   1.106   7.160   2.456
12036WAT     H137690   1.118   7.242   2.503
12036WAT     H237691   1.193   7.139   2.421
12037WAT      O37692   0.637   6.899   3.337
12037WAT     H137693   0.577   6.901   3.263
12037WAT     H237694   0.607   6.826   3.390
12038WAT      O37695   0.780   7.272   3.198
12038WAT     H137696   0.876   7.263   3.193
12038WAT     H237697   0.766   7.338   3.265
12039WAT      O37698   1.069   7.209   1.748
12039WAT     H137699   1.041   7.168   1.666
12039WAT     H237700   1.050   7.302   1.736
12040WAT      O37701   0.216   6.809   1.592
12040WAT     H137702   0.205   6.747   1.664
12040WAT     H237703   0.199   6.756   1.513
12041WAT      O37704   0.540   6.715   1.652
12041WAT     H137705   0.485   6.760   1.717
12041WAT     H237706   0.602   6.665   1.705
12042WAT      O37707   0.945   6.850   3.245
12042WAT     H137708   1.019   6.884   3.195
12042WAT     H237709   0.869   6.867   3.190
12043WAT      O37710   0.358   6.513   1.567
12043WAT     H137711   0.410   6.442   1.530
12043WAT     H237712   0.423   6.577   1.597
12044WAT      O37713   0.813   6.656   3.099
12044WAT     H137714   0.854   6.671   3.184
12044WAT     H237715   0.719   6.668   3.115
12045WAT      O37716   0.860   6.390   3.299
12045WAT     H137717   0.918   6.314   3.291
12045WAT     H237718   0.878   6.443   3.222
12046WAT      O37719   0.248   5.761   2.834
12046WAT     H137720   0.203   5.763   2.749
12046WAT     H237721   0.185   5.721   2.894
12047WAT      O37722   0.289   6.651   2.896
12047WAT     H137723   0.331   6.735   2.879
12047WAT     H237724   0.197   6.665   2.873
12048WAT      O37725   0.523   6.424   3.034
12048WAT     H137726   0.534   6.364   3.108
12048WAT     H237727   0.608   6.428   2.992
12049WAT      O37728   0.756   6.479   2.892
12049WAT     H137729   0.704   6.532   2.832
12049WAT     H237730   0.791   6.543   2.955
12050WAT      O37731   0.681   6.040   3.183
12050WAT     H137732   0.612   5.974   3.177
12050WAT     H237733   0.753   5.995   3.228
12051WAT      O37734   0.744   5.699   1.789
12051WAT     H137735   0.772   5.615   1.825
12051WAT     H237736   0.667   5.723   1.841
12052WAT      O37737   0.360   7.405   3.033
12052WAT     H137738   0.352   7.495   3.064
12052WAT     H237739   0.269   7.373   3.031
12053WAT      O37740   0.414   7.321   1.796
12053WAT     H137741   0.504   7.355   1.798
12053WAT     H237742   0.418   7.249   1.733
12054WAT      O37743   1.112   7.174   3.066
12054WAT     H137744   1.052   7.180   2.992
12054WAT     H237745   1.125   7.081   3.079
12055WAT      O37746   1.236   6.949   1.600
12055WAT     H137747   1.153   6.955   1.647
12055WAT     H237748   1.254   7.038   1.570
12056WAT      O37749   1.182   6.623   1.850
12056WAT     H137750   1.258   6.680   1.861
12056WAT     H237751   1.183   6.566   1.927
12057WAT      O37752   1.283   6.709   2.335
12057WAT     H137753   1.320   6.630   2.294
12057WAT     H237754   1.347   6.778   2.317
12058WAT      O37755   0.981   6.847   2.876
12058WAT     H137756   0.899   6.890   2.902
12058WAT     H237757   1.022   6.908   2.815
12059WAT      O37758   1.187   6.652   1.566
12059WAT     H137759   1.215   6.743   1.553
12059WAT     H237760   1.168   6.646   1.660
12060WAT      O37761   0.827   5.955   1.696
12060WAT     H137762   0.869   5.936   1.612
12060WAT     H237763   0.796   5.870   1.727
12061WAT      O37764   1.177   6.446   2.065
12061WAT     H137765   1.139   6.369   2.022
12061WAT     H237766   1.104   6.484   2.114
12062WAT      O37767   1.116   6.361   3.029
12062WAT     H137768   1.093   6.338   2.939
12062WAT     H237769   1.142   6.453   3.024
12063WAT      O37770   0.960   5.883   3.307
12063WAT     H137771   1.047   5.884   3.345
12063WAT     H237772   0.961   5.810   3.246
12064WAT      O37773   1.104   6.269   2.395
12064WAT     H137774   1.157   6.219   2.332
12064WAT     H237775   1.163   6.282   2.470
12065WAT      O37776   1.122   6.277   2.748
12065WAT     H137777   1.027   6.274   2.759
12065WAT     H237778   1.140   6.368   2.724
12066WAT      O37779   1.053   6.194   1.989
12066WAT     H137780   1.103   6.171   2.068
12066WAT     H237781   1.033   6.111   1.948
12067WAT      O37782   1.196   6.058   2.243
12067WAT     H137783   1.185   6.043   2.337
12067WAT     H237784   1.272   6.005   2.219
12068WAT      O37785   1.031   5.652   2.889
12068WAT     H137786   1.095   5.713   2.925
12068WAT     H237787   1.046   5.656   2.794
12069WAT      O37788   1.285   5.841   1.567
12069WAT     H137789   1.378   5.828   1.546
12069WAT     H237790   1.283   5.849   1.662
12070WAT      O37791   1.292   5.918   1.829
12070WAT     H137792   1.213   5.912   1.882
12070WAT     H237793   1.313   6.012   1.828
12071WAT      O37794   0.987   7.322   2.229
12071WAT     H137795   1.046   7.290   2.161
12071WAT     H237796   1.012   7.275   2.308
12072WAT      O37797   0.368   5.767   3.179
12072WAT     H137798   0.362   5.826   3.254
12072WAT     H237799   0.462   5.757   3.165
12073WAT      O37800   0.632   5.733   3.143
12073WAT     H137801   0.693   5.765   3.077
12073WAT     H237802   0.686   5.684   3.205
12074WAT      O37803   1.273   7.323   2.884
12074WAT     H137804   1.224   7.363   2.812
12074WAT     H237805   1.213   7.260   2.923
12075WAT      O37806   0.706   5.589   2.776
12075WAT     H137807   0.618   5.623   2.756
12075WAT     H237808   0.695   5.542   2.858
12076WAT      O37809   0.796   5.810   2.914
12076WAT     H137810   0.764   5.729   2.876
12076WAT     H237811   0.891   5.806   2.902
12077WAT      O37812   1.042   7.387   2.612
12077WAT     H137813   0.996   7.462   2.574
12077WAT     H237814   0.979   7.315   2.606
12078WAT      O37815   0.359   7.307   2.612
12078WAT     H137816   0.387   7.282   2.524
12078WAT     H237817   0.410   7.252   2.671
12079WAT      O37818   0.480   5.681   2.670
12079WAT     H137819   0.402   5.728   2.698
12079WAT     H237820   0.451   5.591   2.659
12080WAT      O37821   0.936   5.751   2.474
12080WAT     H137822   0.980   5.746   2.390
12080WAT     H237823   0.909   5.843   2.481
12081WAT      O37824   1.122   5.714   2.275
12081WAT     H137825   1.116   5.620   2.261
12081WAT     H237826   1.200   5.725   2.330
12082WAT      O37827   0.269   5.923   2.221
12082WAT     H137828   0.188   5.885   2.187
12082WAT     H237829   0.319   5.847   2.251
12083WAT      O37830   0.719   5.589   2.345
12083WAT     H137831   0.780   5.646   2.392
12083WAT     H237832   0.645   5.646   2.323
12084WAT      O37833   1.034   5.629   1.872
12084WAT     H137834   1.053   5.719   1.899
12084WAT     H237835   0.955   5.606   1.922
12085WAT      O37836   0.365   7.399   3.349
12085WAT     H137837   0.458   7.376   3.353
12085WAT     H237838   0.364   7.482   3.300
12086WAT      O37839   1.189   7.354   2.048
12086WAT     H137840   1.206   7.285   1.984
12086WAT     H237841   1.119   7.406   2.009
12087WAT      O37842   0.744   5.607   3.383
12087WAT     H137843   0.733   5.639   3.472
12087WAT     H237844   0.826   5.647   3.353
12088WAT      O37845   1.022   7.322   3.331
12088WAT     H137846   1.101   7.272   3.310
12088WAT     H237847   1.052   7.390   3.392
12089WAT      O37848   0.635   6.409   0.419
12089WAT     H137849   0.627   6.318   0.392
12089WAT     H237850   0.593   6.459   0.349
12090WAT      O37851   0.448   6.587   0.607
12090WAT     H137852   0.370   6.539   0.636
12090WAT     H237853   0.513   6.519   0.590
12091WAT      O37854   0.850   7.028   0.485
12091WAT     H137855   0.804   6.950   0.518
12091WAT     H237856   0.931   7.030   0.536
12092WAT      O37857   0.473   7.256   0.447
12092WAT     H137858   0.411   7.302   0.390
12092WAT     H237859   0.558   7.272   0.407
12093WAT      O37860   0.392   6.855   0.608
12093WAT     H137861   0.385   6.760   0.592
12093WAT     H237862   0.468   6.864   0.665
12094WAT      O37863   0.495   6.135   0.631
12094WAT     H137864   0.533   6.048   0.619
12094WAT     H237865   0.485   6.169   0.542
12095WAT      O37866   0.873   5.885   0.324
12095WAT     H137867   0.955   5.836   0.328
12095WAT     H237868   0.877   5.944   0.399
12096WAT      O37869   1.302   6.086   0.980
12096WAT     H137870   1.232   6.125   0.929
12096WAT     H237871   1.329   6.156   1.041
12097WAT      O37872   0.897   6.079   0.601
12097WAT     H137873   0.827   6.108   0.659
12097WAT     H237874   0.933   6.160   0.565
12098WAT      O37875   1.059   7.040   0.827
12098WAT     H137876   0.990   7.107   0.827
12098WAT     H237877   1.113   7.060   0.751
12099WAT      O37878   1.204   6.023   0.640
12099WAT     H137879   1.109   6.027   0.653
12099WAT     H237880   1.236   6.105   0.679
12100WAT      O37881   0.812   7.225   0.699
12100WAT     H137882   0.813   7.185   0.612
12100WAT     H237883   0.757   7.302   0.689
12101WAT      O37884   0.942   6.897   0.208
12101WAT     H137885   0.931   6.803   0.220
12101WAT     H237886   0.941   6.933   0.296
12102WAT      O37887   0.752   6.715   0.832
12102WAT     H137888   0.794   6.694   0.748
12102WAT     H237889   0.824   6.741   0.889
12103WAT      O37890   1.147   6.555   0.841
12103WAT     H137891   1.064   6.562   0.793
12103WAT     H237892   1.206   6.614   0.794
12104WAT      O37893   0.843   6.234   0.935
12104WAT     H137894   0.802   6.316   0.961
12104WAT     H237895   0.770   6.175   0.916
12105WAT      O37896   0.912   7.238   1.004
12105WAT     H137897   0.864   7.319   0.985
12105WAT     H237898   0.844   7.173   1.020
12106WAT      O37899   0.527   7.034   0.291
12106WAT     H137900   0.571   7.108   0.250
12106WAT     H237901   0.521   7.058   0.384
12107WAT      O37902   1.270   7.214   1.511
12107WAT     H137903   1.318   7.262   1.579
12107WAT     H237904   1.332   7.208   1.439
12108WAT      O37905   1.210   6.934   1.227
12108WAT     H137906   1.223   6.910   1.135
12108WAT     H237907   1.215   6.850   1.274
12109WAT      O37908   0.597   7.304   1.084
12109WAT     H137909   0.648   7.295   1.164
12109WAT     H237910   0.512   7.339   1.113
12110WAT      O37911   0.721   7.246   0.290
12110WAT     H137912   0.766   7.168   0.322
12110WAT     H237913   0.755   7.317   0.345
12111WAT      O37914   1.196   6.139   1.324
12111WAT     H137915   1.134   6.190   1.271
12111WAT     H237916   1.164   6.049   1.318
12112WAT      O37917   0.402   6.023   1.070
12112WAT     H137918   0.356   6.044   1.152
12112WAT     H237919   0.362   5.941   1.040
12113WAT      O37920   0.902   6.145   1.183
12113WAT     H137921   0.817   6.115   1.215
12113WAT     H237922   0.886   6.169   1.092
12114WAT      O37923   0.611   6.295   1.393
12114WAT     H137924   0.644   6.212   1.359
12114WAT     H237925   0.690   6.347   1.408
12115WAT      O37926   0.177   5.791   0.696
12115WAT     H137927   0.207   5.881   0.688
12115WAT     H237928   0.232   5.742   0.634
12116WAT      O37929   0.196   6.338   1.349
12116WAT     H137930   0.187   6.244   1.334
12116WAT     H237931   0.281   6.361   1.310
12117WAT      O37932   0.536   6.113   0.346
12117WAT     H137933   0.575   6.145   0.264
12117WAT     H237934   0.572   6.025   0.357
12118WAT      O37935   0.367   5.988   1.472
12118WAT     H137936   0.298   5.969   1.535
12118WAT     H237937   0.441   6.016   1.525
12119WAT      O37938   0.594   6.372   0.755
12119WAT     H137939   0.521   6.423   0.790
12119WAT     H237940   0.555   6.290   0.725
12120WAT      O37941   0.238   6.039   0.596
12120WAT     H137942   0.239   5.995   0.511
12120WAT     H237943   0.328   6.072   0.606
12121WAT      O37944   0.641   5.917   0.696
12121WAT     H137945   0.642   5.962   0.781
12121WAT     H237946   0.616   5.827   0.718
12122WAT      O37947   0.983   5.659   1.280
12122WAT     H137948   1.016   5.585   1.333
12122WAT     H237949   0.987   5.627   1.190
12123WAT      O37950   0.268   6.445   0.770
12123WAT     H137951   0.305   6.398   0.845
12123WAT     H237952   0.249   6.533   0.804
12124WAT      O37953   0.976   6.670   0.641
12124WAT     H137954   1.048   6.719   0.602
12124WAT     H237955   0.956   6.602   0.577
12125WAT      O37956   0.514   6.677   1.230
12125WAT     H137957   0.507   6.585   1.204
12125WAT     H237958   0.451   6.687   1.301
12126WAT      O37959   0.507   6.959   1.205
12126WAT     H137960   0.509   6.866   1.183
12126WAT     H237961   0.437   6.968   1.269
12127WAT      O37962   1.128   6.623   1.140
12127WAT     H137963   1.056   6.682   1.120
12127WAT     H237964   1.181   6.622   1.060
12128WAT      O37965   0.681   6.796   0.489
12128WAT     H137966   0.717   6.736   0.423
12128WAT     H237967   0.593   6.763   0.507
12129WAT      O37968   0.290   6.872   0.230
12129WAT     H137969   0.359   6.926   0.268
12129WAT     H237970   0.211   6.926   0.234
12130WAT      O37971   0.220   6.572   0.191
12130WAT     H137972   0.266   6.653   0.214
12130WAT     H237973   0.185   6.540   0.275
12131WAT      O37974   0.451   7.123   0.914
12131WAT     H137975   0.515   7.144   0.982
12131WAT     H237976   0.487   7.047   0.869
12132WAT      O37977   0.578   6.924   0.786
12132WAT     H137978   0.642   6.853   0.797
12132WAT     H237979   0.630   7.002   0.768
12133WAT      O37980   0.755   7.003   1.106
12133WAT     H137981   0.789   7.062   1.174
12133WAT     H237982   0.663   6.990   1.129
12134WAT      O37983   0.338   7.008   1.423
12134WAT     H137984   0.306   6.937   1.478
12134WAT     H237985   0.271   7.076   1.431
12135WAT      O37986   0.660   6.032   0.960
12135WAT     H137987   0.697   5.950   0.992
12135WAT     H237988   0.574   6.038   1.001
12136WAT      O37989   0.356   6.297   0.982
12136WAT     H137990   0.406   6.345   1.049
12136WAT     H237991   0.370   6.205   1.003
12137WAT      O37992   0.596   5.828   0.326
12137WAT     H137993   0.584   5.829   0.231
12137WAT     H237994   0.691   5.832   0.338
12138WAT      O37995   0.305   7.351   0.253
12138WAT     H137996   0.331   7.347   0.161
12138WAT     H237997   0.210   7.338   0.253
12139WAT      O37998   1.076   5.919   1.066
12139WAT     H137999   1.026   5.993   1.100
12139WAT     H238000   1.158   5.958   1.035
12140WAT      O38001   0.906   6.443   0.411
12140WAT     H138002   0.812   6.445   0.428
12140WAT     H238003   0.937   6.364   0.456
12141WAT      O38004   1.106   7.160   0.579
12141WAT     H138005   1.118   7.242   0.626
12141WAT     H238006   1.193   7.139   0.544
12142WAT      O38007   0.637   6.899   1.459
12142WAT     H138008   0.577   6.901   1.385
12142WAT     H238009   0.607   6.826   1.513
12143WAT      O38010   0.780   7.272   1.320
12143WAT     H138011   0.876   7.263   1.315
12143WAT     H238012   0.766   7.338   1.388
12144WAT      O38013   0.945   6.850   1.368
12144WAT     H138014   1.019   6.884   1.318
12144WAT     H238015   0.869   6.867   1.313
12145WAT      O38016   0.813   6.656   1.222
12145WAT     H138017   0.854   6.671   1.306
12145WAT     H238018   0.719   6.668   1.238
12146WAT      O38019   0.860   6.390   1.422
12146WAT     H138020   0.918   6.314   1.413
12146WAT     H238021   0.878   6.443   1.344
12147WAT      O38022   0.248   5.761   0.956
12147WAT     H138023   0.203   5.763   0.872
12147WAT     H238024   0.185   5.721   1.016
12148WAT      O38025   0.289   6.651   1.019
12148WAT     H138026   0.331   6.735   1.001
12148WAT     H238027   0.197   6.665   0.996
12149WAT      O38028   0.523   6.424   1.157
12149WAT     H138029   0.534   6.364   1.231
12149WAT     H238030   0.608   6.428   1.115
12150WAT      O38031   0.756   6.479   1.015
12150WAT     H138032   0.704   6.532   0.954
12150WAT     H238033   0.791   6.543   1.078
12151WAT      O38034   0.681   6.040   1.306
12151WAT     H138035   0.612   5.974   1.299
12151WAT     H238036   0.753   5.995   1.350
12152WAT      O38037   0.360   7.405   1.156
12152WAT     H138038   0.352   7.495   1.187
12152WAT     H238039   0.269   7.373   1.153
12153WAT      O38040   1.112   7.174   1.189
12153WAT     H138041   1.052   7.180   1.115
12153WAT     H238042   1.125   7.081   1.202
12154WAT      O38043   1.283   6.709   0.457
12154WAT     H138044   1.320   6.630   0.417
12154WAT     H238045   1.347   6.778   0.440
12155WAT      O38046   0.981   6.847   0.999
12155WAT     H138047   0.899   6.890   1.025
12155WAT     H238048   1.022   6.908   0.937
12156WAT      O38049   1.177   6.446   0.188
12156WAT     H138050   1.139   6.369   0.145
12156WAT     H238051   1.104   6.484   0.237
12157WAT      O38052   1.116   6.361   1.151
12157WAT     H138053   1.093   6.338   1.061
12157WAT     H238054   1.142   6.453   1.147
12158WAT      O38055   0.960   5.883   1.429
12158WAT     H138056   1.047   5.884   1.467
12158WAT     H238057   0.961   5.810   1.368
12159WAT      O38058   1.104   6.269   0.518
12159WAT     H138059   1.157   6.219   0.455
12159WAT     H238060   1.163   6.282   0.592
12160WAT      O38061   1.122   6.277   0.870
12160WAT     H138062   1.027   6.274   0.882
12160WAT     H238063   1.140   6.368   0.847
12161WAT      O38064   1.196   6.058   0.365
12161WAT     H138065   1.185   6.043   0.459
12161WAT     H238066   1.272   6.005   0.341
12162WAT      O38067   1.031   5.652   1.011
12162WAT     H138068   1.095   5.713   1.048
12162WAT     H238069   1.046   5.656   0.917
12163WAT      O38070   0.987   7.322   0.351
12163WAT     H138071   1.046   7.290   0.284
12163WAT     H238072   1.012   7.275   0.430
12164WAT      O38073   0.368   5.767   1.302
12164WAT     H138074   0.362   5.826   1.377
12164WAT     H238075   0.462   5.757   1.287
12165WAT      O38076   0.632   5.733   1.266
12165WAT     H138077   0.693   5.765   1.200
12165WAT     H238078   0.686   5.684   1.328
12166WAT      O38079   1.273   7.323   1.006
12166WAT     H138080   1.224   7.363   0.935
12166WAT     H238081   1.213   7.260   1.046
12167WAT      O38082   0.706   5.589   0.899
12167WAT     H138083   0.618   5.623   0.878
12167WAT     H238084   0.695   5.542   0.981
12168WAT      O38085   0.796   5.810   1.037
12168WAT     H138086   0.764   5.729   0.999
12168WAT     H238087   0.891   5.806   1.025
12169WAT      O38088   1.042   7.387   0.734
12169WAT     H138089   0.996   7.462   0.697
12169WAT     H238090   0.979   7.315   0.728
12170WAT      O38091   0.359   7.307   0.734
12170WAT     H138092   0.387   7.282   0.647
12170WAT     H238093   0.410   7.252   0.794
12171WAT      O38094   0.480   5.681   0.792
12171WAT     H138095   0.402   5.728   0.820
12171WAT     H238096   0.451   5.591   0.782
12172WAT      O38097   0.936   5.751   0.597
12172WAT     H138098   0.980   5.746   0.512
12172WAT     H238099   0.909   5.843   0.604
12173WAT      O38100   1.122   5.714   0.398
12173WAT     H138101   1.116   5.620   0.383
12173WAT     H238102   1.200   5.725   0.453
12174WAT      O38103   0.269   5.923   0.344
12174WAT     H138104   0.188   5.885   0.310
12174WAT     H238105   0.319   5.847   0.374
12175WAT      O38106   0.719   5.589   0.467
12175WAT     H138107   0.780   5.646   0.515
12175WAT     H238108   0.645   5.646   0.445
12176WAT      O38109   0.365   7.399   1.471
12176WAT     H138110   0.458   7.376   1.476
12176WAT     H238111   0.364   7.482   1.423
12177WAT      O38112   0.744   5.607   1.505
12177WAT     H138113   0.733   5.639   1.595
12177WAT     H238114   0.826   5.647   1.476
12178WAT      O38115   1.022   7.322   1.454
12178WAT     H138116   1.101   7.272   1.433
12178WAT     H238117   1.052   7.390   1.514
12179WAT      O38118   0.635   4.532   6.051
12179WAT     H138119   0.627   4.440   6.024
12179WAT     H238120   0.593   4.581   5.981
12180WAT      O38121   0.448   4.710   6.240
12180WAT     H138122   0.370   4.662   6.269
12180WAT     H238123   0.513   4.642   6.222
12181WAT      O38124   0.850   5.150   6.118
12181WAT     H138125   0.804   5.073   6.150
12181WAT     H238126   0.931   5.153   6.168
12182WAT      O38127   0.473   5.379   6.080
12182WAT     H138128   0.411   5.424   6.023
12182WAT     H238129   0.558   5.394   6.039
12183WAT      O38130   0.392   4.977   6.240
12183WAT     H138131   0.385   4.883   6.224
12183WAT     H238132   0.468   4.986   6.297
12184WAT      O38133   0.495   4.258   6.263
12184WAT     H138134   0.533   4.171   6.252
12184WAT     H238135   0.485   4.291   6.174
12185WAT      O38136   0.873   4.007   5.956
12185WAT     H138137   0.955   3.958   5.960
12185WAT     H238138   0.877   4.066   6.032
12186WAT      O38139   0.559   4.867   5.819
12186WAT     H138140   0.497   4.914   5.763
12186WAT     H238141   0.611   4.936   5.861
12187WAT      O38142   0.897   4.201   6.234
12187WAT     H138143   0.827   4.230   6.292
12187WAT     H238144   0.933   4.282   6.198
12188WAT      O38145   1.059   5.163   6.460
12188WAT     H138146   0.990   5.230   6.459
12188WAT     H238147   1.113   5.183   6.383
12189WAT      O38148   1.204   4.146   6.273
12189WAT     H138149   1.109   4.149   6.286
12189WAT     H238150   1.236   4.227   6.311
12190WAT      O38151   0.812   5.347   6.331
12190WAT     H138152   0.813   5.307   6.244
12190WAT     H238153   0.757   5.425   6.321
12191WAT      O38154   0.942   5.020   5.840
12191WAT     H138155   0.931   4.925   5.853
12191WAT     H238156   0.941   5.056   5.929
12192WAT      O38157   0.752   4.838   6.464
12192WAT     H138158   0.794   4.816   6.381
12192WAT     H238159   0.824   4.864   6.521
12193WAT      O38160   0.496   4.582   5.776
12193WAT     H138161   0.403   4.576   5.799
12193WAT     H238162   0.511   4.676   5.764
12194WAT      O38163   0.495   4.209   5.475
12194WAT     H138164   0.401   4.226   5.484
12194WAT     H238165   0.526   4.281   5.421
12195WAT      O38166   1.147   4.678   6.473
12195WAT     H138167   1.064   4.685   6.426
12195WAT     H238168   1.206   4.736   6.426
12196WAT      O38169   0.899   4.739   5.826
12196WAT     H138170   0.837   4.705   5.761
12196WAT     H238171   0.897   4.674   5.897
12197WAT      O38172   0.843   4.356   6.568
12197WAT     H138173   0.802   4.439   6.593
12197WAT     H238174   0.770   4.298   6.549
12198WAT      O38175   0.912   5.361   6.637
12198WAT     H138176   0.864   5.442   6.617
12198WAT     H238177   0.844   5.296   6.652
12199WAT      O38178   0.716   4.662   5.527
12199WAT     H138179   0.760   4.579   5.512
12199WAT     H238180   0.788   4.726   5.535
12200WAT      O38181   0.527   5.156   5.924
12200WAT     H138182   0.571   5.231   5.882
12200WAT     H238183   0.521   5.181   6.016
12201WAT      O38184   1.075   3.788   5.358
12201WAT     H138185   1.043   3.797   5.448
12201WAT     H238186   1.151   3.846   5.353
12202WAT      O38187   0.794   5.455   5.659
12202WAT     H138188   0.778   5.426   5.749
12202WAT     H238189   0.778   5.377   5.606
12203WAT      O38190   0.764   5.206   5.515
12203WAT     H138191   0.695   5.206   5.449
12203WAT     H238192   0.839   5.163   5.472
12204WAT      O38193   0.721   5.369   5.923
12204WAT     H138194   0.766   5.290   5.954
12204WAT     H238195   0.755   5.440   5.977
12205WAT      O38196   0.285   3.821   5.630
12205WAT     H138197   0.222   3.820   5.703
12205WAT     H238198   0.276   3.734   5.591
12206WAT      O38199   0.177   3.913   6.328
12206WAT     H138200   0.207   4.004   6.320
12206WAT     H238201   0.232   3.864   6.267
12207WAT      O38202   0.675   4.372   5.775
12207WAT     H138203   0.615   4.444   5.757
12207WAT     H238204   0.730   4.365   5.697
12208WAT      O38205   0.536   4.235   5.978
12208WAT     H138206   0.575   4.267   5.897
12208WAT     H238207   0.572   4.147   5.989
12209WAT      O38208   0.594   4.494   6.388
12209WAT     H138209   0.521   4.545   6.422
12209WAT     H238210   0.555   4.413   6.357
12210WAT      O38211   0.238   4.162   6.228
12210WAT     H138212   0.239   4.118   6.143
12210WAT     H238213   0.328   4.194   6.239
12211WAT      O38214   0.244   4.262   5.527
12211WAT     H138215   0.256   4.258   5.622
12211WAT     H238216   0.206   4.348   5.512
12212WAT      O38217   0.641   4.040   6.329
12212WAT     H138218   0.642   4.085   6.413
12212WAT     H238219   0.616   3.950   6.350
12213WAT      O38220   0.268   4.568   6.403
12213WAT     H138221   0.305   4.521   6.477
12213WAT     H238222   0.249   4.655   6.437
12214WAT      O38223   0.976   4.792   6.273
12214WAT     H138224   1.048   4.842   6.234
12214WAT     H238225   0.956   4.724   6.209
12215WAT      O38226   0.522   3.932   5.688
12215WAT     H138227   0.441   3.882   5.680
12215WAT     H238228   0.503   4.016   5.646
12216WAT      O38229   0.794   4.369   5.517
12216WAT     H138230   0.882   4.400   5.500
12216WAT     H238231   0.791   4.282   5.478
12217WAT      O38232   0.393   4.986   5.585
12217WAT     H138233   0.427   5.061   5.536
12217WAT     H238234   0.310   5.017   5.622
12218WAT      O38235   1.021   4.500   5.464
12218WAT     H138236   1.012   4.543   5.379
12218WAT     H238237   1.093   4.546   5.507
12219WAT      O38238   1.124   5.185   5.737
12219WAT     H138239   1.059   5.120   5.764
12219WAT     H238240   1.085   5.226   5.659
12220WAT      O38241   0.681   4.918   6.122
12220WAT     H138242   0.717   4.859   6.056
12220WAT     H238243   0.593   4.886   6.139
12221WAT      O38244   0.290   4.994   5.862
12221WAT     H138245   0.359   5.049   5.901
12221WAT     H238246   0.211   5.049   5.866
12222WAT      O38247   0.220   4.695   5.824
12222WAT     H138248   0.266   4.776   5.846
12222WAT     H238249   0.185   4.663   5.907
12223WAT      O38250   0.451   5.246   6.547
12223WAT     H138251   0.515   5.266   6.614
12223WAT     H238252   0.487   5.170   6.501
12224WAT      O38253   0.578   5.046   6.418
12224WAT     H138254   0.642   4.976   6.430
12224WAT     H238255   0.630   5.124   6.400
12225WAT      O38256   0.963   5.075   5.391
12225WAT     H138257   0.940   5.003   5.450
12225WAT     H238258   0.923   5.050   5.307
12226WAT      O38259   0.921   4.866   5.557
12226WAT     H138260   0.892   4.912   5.636
12226WAT     H238261   1.000   4.820   5.584
12227WAT      O38262   0.660   4.154   6.592
12227WAT     H138263   0.697   4.072   6.625
12227WAT     H238264   0.574   4.160   6.634
12228WAT      O38265   0.996   4.050   5.673
12228WAT     H138266   0.934   4.060   5.601
12228WAT     H238267   0.947   4.072   5.752
12229WAT      O38268   0.441   5.222   5.416
12229WAT     H138269   0.451   5.202   5.323
12229WAT     H238270   0.351   5.196   5.437
12230WAT      O38271   0.596   3.950   5.958
12230WAT     H138272   0.584   3.952   5.864
12230WAT     H238273   0.691   3.955   5.970
12231WAT      O38274   0.305   5.474   5.886
12231WAT     H138275   0.331   5.470   5.793
12231WAT     H238276   0.210   5.461   5.885
12232WAT      O38277   0.906   4.566   6.043
12232WAT     H138278   0.812   4.567   6.061
12232WAT     H238279   0.937   4.487   6.088
12233WAT      O38280   1.106   5.283   6.211
12233WAT     H138281   1.118   5.365   6.258
12233WAT     H238282   1.193   5.262   6.176
12234WAT      O38283   1.069   5.332   5.503
12234WAT     H138284   1.041   5.291   5.421
12234WAT     H238285   1.050   5.425   5.491
12235WAT      O38286   0.216   4.931   5.347
12235WAT     H138287   0.205   4.870   5.419
12235WAT     H238288   0.199   4.879   5.268
12236WAT      O38289   0.540   4.838   5.407
12236WAT     H138290   0.485   4.882   5.472
12236WAT     H238291   0.602   4.787   5.459
12237WAT      O38292   0.358   4.636   5.322
12237WAT     H138293   0.410   4.564   5.285
12237WAT     H238294   0.423   4.700   5.352
12238WAT      O38295   0.248   3.884   6.589
12238WAT     H138296   0.203   3.886   6.504
12238WAT     H238297   0.185   3.844   6.648
12239WAT      O38298   0.289   4.773   6.651
12239WAT     H138299   0.331   4.858   6.634
12239WAT     H238300   0.197   4.787   6.628
12240WAT      O38301   0.744   3.822   5.544
12240WAT     H138302   0.772   3.738   5.580
12240WAT     H238303   0.667   3.845   5.596
12241WAT      O38304   0.414   5.444   5.551
12241WAT     H138305   0.504   5.478   5.553
12241WAT     H238306   0.418   5.372   5.488
12242WAT      O38307   1.236   5.071   5.355
12242WAT     H138308   1.153   5.078   5.402
12242WAT     H238309   1.254   5.160   5.325
12243WAT      O38310   1.182   4.746   5.605
12243WAT     H138311   1.258   4.803   5.616
12243WAT     H238312   1.183   4.689   5.682
12244WAT      O38313   1.283   4.831   6.090
12244WAT     H138314   1.320   4.753   6.049
12244WAT     H238315   1.347   4.900   6.072
12245WAT      O38316   1.187   4.775   5.321
12245WAT     H138317   1.215   4.866   5.308
12245WAT     H238318   1.168   4.769   5.415
12246WAT      O38319   0.827   4.077   5.450
12246WAT     H138320   0.869   4.059   5.366
12246WAT     H238321   0.796   3.992   5.482
12247WAT      O38322   1.177   4.569   5.820
12247WAT     H138323   1.139   4.492   5.777
12247WAT     H238324   1.104   4.607   5.869
12248WAT      O38325   1.104   4.391   6.150
12248WAT     H138326   1.157   4.342   6.087
12248WAT     H238327   1.163   4.405   6.225
12249WAT      O38328   1.122   4.400   6.503
12249WAT     H138329   1.027   4.396   6.514
12249WAT     H238330   1.140   4.491   6.479
12250WAT      O38331   1.053   4.317   5.744
12250WAT     H138332   1.103   4.294   5.823
12250WAT     H238333   1.033   4.233   5.703
12251WAT      O38334   1.196   4.181   5.998
12251WAT     H138335   1.185   4.165   6.091
12251WAT     H238336   1.272   4.128   5.973
12252WAT      O38337   1.285   3.964   5.322
12252WAT     H138338   1.378   3.951   5.301
12252WAT     H238339   1.283   3.972   5.417
12253WAT      O38340   1.292   4.041   5.584
12253WAT     H138341   1.213   4.034   5.637
12253WAT     H238342   1.313   4.134   5.583
12254WAT      O38343   0.987   5.445   5.984
12254WAT     H138344   1.046   5.413   5.916
12254WAT     H238345   1.012   5.397   6.063
12255WAT      O38346   0.706   3.712   6.531
12255WAT     H138347   0.618   3.745   6.511
12255WAT     H238348   0.695   3.665   6.613
12256WAT      O38349   1.042   5.510   6.367
12256WAT     H138350   0.996   5.585   6.329
12256WAT     H238351   0.979   5.438   6.361
12257WAT      O38352   0.359   5.430   6.367
12257WAT     H138353   0.387   5.404   6.279
12257WAT     H238354   0.410   5.374   6.426
12258WAT      O38355   0.480   3.804   6.425
12258WAT     H138356   0.402   3.851   6.453
12258WAT     H238357   0.451   3.713   6.414
12259WAT      O38358   0.936   3.874   6.229
12259WAT     H138359   0.980   3.868   6.144
12259WAT     H238360   0.909   3.965   6.236
12260WAT      O38361   1.122   3.837   6.030
12260WAT     H138362   1.116   3.743   6.016
12260WAT     H238363   1.200   3.848   6.085
12261WAT      O38364   0.269   4.045   5.976
12261WAT     H138365   0.188   4.008   5.942
12261WAT     H238366   0.319   3.970   6.006
12262WAT      O38367   0.719   3.712   6.100
12262WAT     H138368   0.780   3.769   6.147
12262WAT     H238369   0.645   3.768   6.077
12263WAT      O38370   1.034   3.752   5.627
12263WAT     H138371   1.053   3.842   5.654
12263WAT     H238372   0.955   3.729   5.676
12264WAT      O38373   1.189   5.476   5.803
12264WAT     H138374   1.206   5.407   5.739
12264WAT     H238375   1.119   5.529   5.764
12265WAT      O38376   0.635   4.532   4.174
12265WAT     H138377   0.627   4.440   4.147
12265WAT     H238378   0.593   4.581   4.103
12266WAT      O38379   0.448   4.710   4.362
12266WAT     H138380   0.370   4.662   4.391
12266WAT     H238381   0.513   4.642   4.345
12267WAT      O38382   0.850   5.150   4.240
12267WAT     H138383   0.804   5.073   4.273
12267WAT     H238384   0.931   5.153   4.291
12268WAT      O38385   0.473   5.379   4.202
12268WAT     H138386   0.411   5.424   4.145
12268WAT     H238387   0.558   5.394   4.162
12269WAT      O38388   0.392   4.977   4.363
12269WAT     H138389   0.385   4.883   4.347
12269WAT     H238390   0.468   4.986   4.420
12270WAT      O38391   0.495   4.258   4.386
12270WAT     H138392   0.533   4.171   4.374
12270WAT     H238393   0.485   4.291   4.296
12271WAT      O38394   0.873   4.007   4.079
12271WAT     H138395   0.955   3.958   4.083
12271WAT     H238396   0.877   4.066   4.154
12272WAT      O38397   1.302   4.209   4.735
12272WAT     H138398   1.232   4.248   4.683
12272WAT     H238399   1.329   4.278   4.795
12273WAT      O38400   0.559   4.867   3.941
12273WAT     H138401   0.497   4.914   3.885
12273WAT     H238402   0.611   4.936   3.983
12274WAT      O38403   0.897   4.201   4.356
12274WAT     H138404   0.827   4.230   4.414
12274WAT     H238405   0.933   4.282   4.320
12275WAT      O38406   1.059   5.163   4.582
12275WAT     H138407   0.990   5.230   4.582
12275WAT     H238408   1.113   5.183   4.506
12276WAT      O38409   1.204   4.146   4.395
12276WAT     H138410   1.109   4.149   4.408
12276WAT     H238411   1.236   4.227   4.434
12277WAT      O38412   0.812   5.347   4.454
12277WAT     H138413   0.813   5.307   4.367
12277WAT     H238414   0.757   5.425   4.443
12278WAT      O38415   0.942   5.020   3.963
12278WAT     H138416   0.931   4.925   3.975
12278WAT     H238417   0.941   5.056   4.051
12279WAT      O38418   0.752   4.838   4.587
12279WAT     H138419   0.794   4.816   4.503
12279WAT     H238420   0.824   4.864   4.644
12280WAT      O38421   0.496   4.582   3.898
12280WAT     H138422   0.403   4.576   3.921
12280WAT     H238423   0.511   4.676   3.887
12281WAT      O38424   0.495   4.209   3.598
12281WAT     H138425   0.401   4.226   3.607
12281WAT     H238426   0.526   4.281   3.543
12282WAT      O38427   1.147   4.678   4.596
12282WAT     H138428   1.064   4.685   4.548
12282WAT     H238429   1.206   4.736   4.549
12283WAT      O38430   0.899   4.739   3.949
12283WAT     H138431   0.837   4.705   3.884
12283WAT     H238432   0.897   4.674   4.019
12284WAT      O38433   0.843   4.356   4.690
12284WAT     H138434   0.802   4.439   4.716
12284WAT     H238435   0.770   4.298   4.671
12285WAT      O38436   0.912   5.361   4.759
12285WAT     H138437   0.864   5.442   4.740
12285WAT     H238438   0.844   5.296   4.774
12286WAT      O38439   0.716   4.662   3.649
12286WAT     H138440   0.760   4.579   3.635
12286WAT     H238441   0.788   4.726   3.658
12287WAT      O38442   0.527   5.156   4.046
12287WAT     H138443   0.571   5.231   4.005
12287WAT     H238444   0.521   5.181   4.139
12288WAT      O38445   1.075   3.788   3.481
12288WAT     H138446   1.043   3.797   3.571
12288WAT     H238447   1.151   3.846   3.476
12289WAT      O38448   1.270   5.337   5.266
12289WAT     H138449   1.318   5.385   5.334
12289WAT     H238450   1.332   5.330   5.194
12290WAT      O38451   1.210   5.056   4.982
12290WAT     H138452   1.223   5.032   4.890
12290WAT     H238453   1.215   4.973   5.029
12291WAT      O38454   0.597   5.426   4.839
12291WAT     H138455   0.648   5.418   4.919
12291WAT     H238456   0.512   5.461   4.868
12292WAT      O38457   0.794   5.455   3.782
12292WAT     H138458   0.778   5.426   3.872
12292WAT     H238459   0.778   5.377   3.728
12293WAT      O38460   0.764   5.206   3.638
12293WAT     H138461   0.695   5.206   3.572
12293WAT     H238462   0.839   5.163   3.595
12294WAT      O38463   0.721   5.369   4.045
12294WAT     H138464   0.766   5.290   4.077
12294WAT     H238465   0.755   5.440   4.100
12295WAT      O38466   1.196   4.262   5.079
12295WAT     H138467   1.134   4.312   5.026
12295WAT     H238468   1.164   4.171   5.073
12296WAT      O38469   0.402   4.145   4.825
12296WAT     H138470   0.356   4.166   4.906
12296WAT     H238471   0.362   4.064   4.795
12297WAT      O38472   0.902   4.268   4.938
12297WAT     H138473   0.817   4.238   4.970
12297WAT     H238474   0.886   4.292   4.847
12298WAT      O38475   0.611   4.418   5.148
12298WAT     H138476   0.644   4.334   5.114
12298WAT     H238477   0.690   4.470   5.163
12299WAT      O38478   0.285   3.821   3.753
12299WAT     H138479   0.222   3.820   3.825
12299WAT     H238480   0.276   3.734   3.713
12300WAT      O38481   0.177   3.913   4.451
12300WAT     H138482   0.207   4.004   4.443
12300WAT     H238483   0.232   3.864   4.389
12301WAT      O38484   0.675   4.372   3.898
12301WAT     H138485   0.615   4.444   3.879
12301WAT     H238486   0.730   4.365   3.819
12302WAT      O38487   0.196   4.461   5.104
12302WAT     H138488   0.187   4.367   5.089
12302WAT     H238489   0.281   4.483   5.065
12303WAT      O38490   0.536   4.235   4.101
12303WAT     H138491   0.575   4.267   4.019
12303WAT     H238492   0.572   4.147   4.112
12304WAT      O38493   0.367   4.110   5.227
12304WAT     H138494   0.298   4.091   5.290
12304WAT     H238495   0.441   4.139   5.280
12305WAT      O38496   0.594   4.494   4.510
12305WAT     H138497   0.521   4.545   4.545
12305WAT     H238498   0.555   4.413   4.480
12306WAT      O38499   0.238   4.162   4.351
12306WAT     H138500   0.239   4.118   4.266
12306WAT     H238501   0.328   4.194   4.361
12307WAT      O38502   0.244   4.262   3.650
12307WAT     H138503   0.256   4.258   3.745
12307WAT     H238504   0.206   4.348   3.634
12308WAT      O38505   0.641   4.040   4.451
12308WAT     H138506   0.642   4.085   4.536
12308WAT     H238507   0.616   3.950   4.473
12309WAT      O38508   0.983   3.781   5.035
12309WAT     H138509   1.016   3.708   5.088
12309WAT     H238510   0.987   3.749   4.945
12310WAT      O38511   0.268   4.568   4.525
12310WAT     H138512   0.305   4.521   4.600
12310WAT     H238513   0.249   4.655   4.559
12311WAT      O38514   0.976   4.792   4.396
12311WAT     H138515   1.048   4.842   4.357
12311WAT     H238516   0.956   4.724   4.332
12312WAT      O38517   0.522   3.932   3.810
12312WAT     H138518   0.441   3.882   3.803
12312WAT     H238519   0.503   4.016   3.769
12313WAT      O38520   0.514   4.799   4.985
12313WAT     H138521   0.507   4.707   4.959
12313WAT     H238522   0.451   4.809   5.056
12314WAT      O38523   0.794   4.369   3.640
12314WAT     H138524   0.882   4.400   3.622
12314WAT     H238525   0.791   4.282   3.601
12315WAT      O38526   0.393   4.986   3.708
12315WAT     H138527   0.427   5.061   3.658
12315WAT     H238528   0.310   5.017   3.744
12316WAT      O38529   0.507   5.082   4.960
12316WAT     H138530   0.509   4.988   4.938
12316WAT     H238531   0.437   5.090   5.024
12317WAT      O38532   1.021   4.500   3.587
12317WAT     H138533   1.012   4.543   3.502
12317WAT     H238534   1.093   4.546   3.630
12318WAT      O38535   1.128   4.746   4.894
12318WAT     H138536   1.056   4.805   4.875
12318WAT     H238537   1.181   4.745   4.815
12319WAT      O38538   1.124   5.185   3.860
12319WAT     H138539   1.059   5.120   3.887
12319WAT     H238540   1.085   5.226   3.782
12320WAT      O38541   0.681   4.918   4.244
12320WAT     H138542   0.717   4.859   4.178
12320WAT     H238543   0.593   4.886   4.261
12321WAT      O38544   0.290   4.994   3.985
12321WAT     H138545   0.359   5.049   4.023
12321WAT     H238546   0.211   5.049   3.989
12322WAT      O38547   0.220   4.695   3.946
12322WAT     H138548   0.266   4.776   3.969
12322WAT     H238549   0.185   4.663   4.029
12323WAT      O38550   0.451   5.246   4.669
12323WAT     H138551   0.515   5.266   4.737
12323WAT     H238552   0.487   5.170   4.624
12324WAT      O38553   0.578   5.046   4.541
12324WAT     H138554   0.642   4.976   4.552
12324WAT     H238555   0.630   5.124   4.523
12325WAT      O38556   0.963   5.075   3.513
12325WAT     H138557   0.940   5.003   3.573
12325WAT     H238558   0.923   5.050   3.430
12326WAT      O38559   0.755   5.126   4.861
12326WAT     H138560   0.789   5.185   4.929
12326WAT     H238561   0.663   5.113   4.884
12327WAT      O38562   0.921   4.866   3.679
12327WAT     H138563   0.892   4.912   3.758
12327WAT     H238564   1.000   4.820   3.706
12328WAT      O38565   0.338   5.131   5.178
12328WAT     H138566   0.306   5.059   5.233
12328WAT     H238567   0.271   5.199   5.186
12329WAT      O38568   0.660   4.154   4.715
12329WAT     H138569   0.697   4.072   4.747
12329WAT     H238570   0.574   4.160   4.756
12330WAT      O38571   0.996   4.050   3.795
12330WAT     H138572   0.934   4.060   3.724
12330WAT     H238573   0.947   4.072   3.874
12331WAT      O38574   0.441   5.222   3.539
12331WAT     H138575   0.451   5.202   3.446
12331WAT     H238576   0.351   5.196   3.559
12332WAT      O38577   0.356   4.420   4.737
12332WAT     H138578   0.406   4.467   4.803
12332WAT     H238579   0.370   4.327   4.758
12333WAT      O38580   0.596   3.950   4.081
12333WAT     H138581   0.584   3.952   3.986
12333WAT     H238582   0.691   3.955   4.093
12334WAT      O38583   0.305   5.474   4.008
12334WAT     H138584   0.331   5.470   3.916
12334WAT     H238585   0.210   5.461   4.008
12335WAT      O38586   1.076   4.041   4.821
12335WAT     H138587   1.026   4.115   4.855
12335WAT     H238588   1.158   4.080   4.790
12336WAT      O38589   0.906   4.566   4.166
12336WAT     H138590   0.812   4.567   4.183
12336WAT     H238591   0.937   4.487   4.210
12337WAT      O38592   1.106   5.283   4.333
12337WAT     H138593   1.118   5.365   4.381
12337WAT     H238594   1.193   5.262   4.299
12338WAT      O38595   0.637   5.021   5.214
12338WAT     H138596   0.577   5.024   5.140
12338WAT     H238597   0.607   4.948   5.268
12339WAT      O38598   0.780   5.394   5.075
12339WAT     H138599   0.876   5.386   5.070
12339WAT     H238600   0.766   5.461   5.143
12340WAT      O38601   1.069   5.332   3.625
12340WAT     H138602   1.041   5.291   3.544
12340WAT     H238603   1.050   5.425   3.613
12341WAT      O38604   0.216   4.931   3.469
12341WAT     H138605   0.205   4.870   3.542
12341WAT     H238606   0.199   4.879   3.391
12342WAT      O38607   0.540   4.838   3.530
12342WAT     H138608   0.485   4.882   3.594
12342WAT     H238609   0.602   4.787   3.582
12343WAT      O38610   0.945   4.973   5.123
12343WAT     H138611   1.019   5.007   5.073
12343WAT     H238612   0.869   4.990   5.068
12344WAT      O38613   0.358   4.636   3.444
12344WAT     H138614   0.410   4.564   3.407
12344WAT     H238615   0.423   4.700   3.474
12345WAT      O38616   0.813   4.778   4.976
12345WAT     H138617   0.854   4.794   5.061
12345WAT     H238618   0.719   4.791   4.993
12346WAT      O38619   0.860   4.512   5.177
12346WAT     H138620   0.918   4.437   5.168
12346WAT     H238621   0.878   4.565   5.099
12347WAT      O38622   0.248   3.884   4.711
12347WAT     H138623   0.203   3.886   4.627
12347WAT     H238624   0.185   3.844   4.771
12348WAT      O38625   0.289   4.773   4.773
12348WAT     H138626   0.331   4.858   4.756
12348WAT     H238627   0.197   4.787   4.750
12349WAT      O38628   0.523   4.547   4.912
12349WAT     H138629   0.534   4.487   4.986
12349WAT     H238630   0.608   4.550   4.870
12350WAT      O38631   0.756   4.602   4.769
12350WAT     H138632   0.704   4.654   4.709
12350WAT     H238633   0.791   4.665   4.832
12351WAT      O38634   0.681   4.162   5.061
12351WAT     H138635   0.612   4.096   5.054
12351WAT     H238636   0.753   4.118   5.105
12352WAT      O38637   0.744   3.822   3.667
12352WAT     H138638   0.772   3.738   3.702
12352WAT     H238639   0.667   3.845   3.718
12353WAT      O38640   0.360   5.527   4.911
12353WAT     H138641   0.352   5.618   4.942
12353WAT     H238642   0.269   5.496   4.908
12354WAT      O38643   0.414   5.444   3.673
12354WAT     H138644   0.504   5.478   3.675
12354WAT     H238645   0.418   5.372   3.610
12355WAT      O38646   1.112   5.297   4.944
12355WAT     H138647   1.052   5.303   4.869
12355WAT     H238648   1.125   5.203   4.957
12356WAT      O38649   1.236   5.071   3.477
12356WAT     H138650   1.153   5.078   3.525
12356WAT     H238651   1.254   5.160   3.447
12357WAT      O38652   1.182   4.746   3.728
12357WAT     H138653   1.258   4.803   3.738
12357WAT     H238654   1.183   4.689   3.805
12358WAT      O38655   1.283   4.831   4.212
12358WAT     H138656   1.320   4.753   4.172
12358WAT     H238657   1.347   4.900   4.194
12359WAT      O38658   0.981   4.970   4.754
12359WAT     H138659   0.899   5.013   4.780
12359WAT     H238660   1.022   5.031   4.692
12360WAT      O38661   1.187   4.775   3.444
12360WAT     H138662   1.215   4.866   3.431
12360WAT     H238663   1.168   4.769   3.537
12361WAT      O38664   0.827   4.077   3.573
12361WAT     H138665   0.869   4.059   3.489
12361WAT     H238666   0.796   3.992   3.604
12362WAT      O38667   1.177   4.569   3.943
12362WAT     H138668   1.139   4.492   3.900
12362WAT     H238669   1.104   4.607   3.992
12363WAT      O38670   1.116   4.483   4.906
12363WAT     H138671   1.093   4.461   4.816
12363WAT     H238672   1.142   4.575   4.902
12364WAT      O38673   0.960   4.006   5.184
12364WAT     H138674   1.047   4.007   5.222
12364WAT     H238675   0.961   3.932   5.123
12365WAT      O38676   1.104   4.391   4.273
12365WAT     H138677   1.157   4.342   4.210
12365WAT     H238678   1.163   4.405   4.347
12366WAT      O38679   1.122   4.400   4.625
12366WAT     H138680   1.027   4.396   4.637
12366WAT     H238681   1.140   4.491   4.602
12367WAT      O38682   1.053   4.317   3.867
12367WAT     H138683   1.103   4.294   3.945
12367WAT     H238684   1.033   4.233   3.825
12368WAT      O38685   1.196   4.181   4.120
12368WAT     H138686   1.185   4.165   4.214
12368WAT     H238687   1.272   4.128   4.096
12369WAT      O38688   1.031   3.775   4.766
12369WAT     H138689   1.095   3.836   4.803
12369WAT     H238690   1.046   3.778   4.672
12370WAT      O38691   1.285   3.964   3.444
12370WAT     H138692   1.378   3.951   3.423
12370WAT     H238693   1.283   3.972   3.540
12371WAT      O38694   1.292   4.041   3.707
12371WAT     H138695   1.213   4.034   3.760
12371WAT     H238696   1.313   4.134   3.706
12372WAT      O38697   0.987   5.445   4.106
12372WAT     H138698   1.046   5.413   4.039
12372WAT     H238699   1.012   5.397   4.185
12373WAT      O38700   0.368   3.890   5.057
12373WAT     H138701   0.362   3.949   5.132
12373WAT     H238702   0.462   3.879   5.042
12374WAT      O38703   0.632   3.856   5.021
12374WAT     H138704   0.693   3.887   4.955
12374WAT     H238705   0.686   3.807   5.083
12375WAT      O38706   1.273   5.445   4.761
12375WAT     H138707   1.224   5.485   4.690
12375WAT     H238708   1.213   5.383   4.801
12376WAT      O38709   0.706   3.712   4.653
12376WAT     H138710   0.618   3.745   4.633
12376WAT     H238711   0.695   3.665   4.736
12377WAT      O38712   0.796   3.933   4.792
12377WAT     H138713   0.764   3.851   4.754
12377WAT     H238714   0.891   3.928   4.779
12378WAT      O38715   1.042   5.510   4.489
12378WAT     H138716   0.996   5.585   4.452
12378WAT     H238717   0.979   5.438   4.483
12379WAT      O38718   0.359   5.430   4.489
12379WAT     H138719   0.387   5.404   4.402
12379WAT     H238720   0.410   5.374   4.548
12380WAT      O38721   0.480   3.804   4.547
12380WAT     H138722   0.402   3.851   4.575
12380WAT     H238723   0.451   3.713   4.536
12381WAT      O38724   0.936   3.874   4.352
12381WAT     H138725   0.980   3.868   4.267
12381WAT     H238726   0.909   3.965   4.359
12382WAT      O38727   1.122   3.837   4.153
12382WAT     H138728   1.116   3.743   4.138
12382WAT     H238729   1.200   3.848   4.207
12383WAT      O38730   0.269   4.045   4.098
12383WAT     H138731   0.188   4.008   4.064
12383WAT     H238732   0.319   3.970   4.129
12384WAT      O38733   0.719   3.712   4.222
12384WAT     H138734   0.780   3.769   4.270
12384WAT     H238735   0.645   3.768   4.200
12385WAT      O38736   1.034   3.752   3.750
12385WAT     H138737   1.053   3.842   3.776
12385WAT     H238738   0.955   3.729   3.799
12386WAT      O38739   0.365   5.522   5.226
12386WAT     H138740   0.458   5.498   5.230
12386WAT     H238741   0.364   5.605   5.178
12387WAT      O38742   1.189   5.476   3.926
12387WAT     H138743   1.206   5.407   3.861
12387WAT     H238744   1.119   5.529   3.887
12388WAT      O38745   0.744   3.730   5.260
12388WAT     H138746   0.733   3.762   5.350
12388WAT     H238747   0.826   3.770   5.231
12389WAT      O38748   1.022   5.445   5.208
12389WAT     H138749   1.101   5.395   5.188
12389WAT     H238750   1.052   5.512   5.269
12390WAT      O38751   0.635   4.532   2.297
12390WAT     H138752   0.627   4.440   2.270
12390WAT     H238753   0.593   4.581   2.226
12391WAT      O38754   0.448   4.710   2.485
12391WAT     H138755   0.370   4.662   2.514
12391WAT     H238756   0.513   4.642   2.467
12392WAT      O38757   0.850   5.150   2.363
12392WAT     H138758   0.804   5.073   2.396
12392WAT     H238759   0.931   5.153   2.413
12393WAT      O38760   0.473   5.379   2.325
12393WAT     H138761   0.411   5.424   2.268
12393WAT     H238762   0.558   5.394   2.285
12394WAT      O38763   0.392   4.977   2.485
12394WAT     H138764   0.385   4.883   2.469
12394WAT     H238765   0.468   4.986   2.543
12395WAT      O38766   0.495   4.258   2.508
12395WAT     H138767   0.533   4.171   2.497
12395WAT     H238768   0.485   4.291   2.419
12396WAT      O38769   0.873   4.007   2.201
12396WAT     H138770   0.955   3.958   2.206
12396WAT     H238771   0.877   4.066   2.277
12397WAT      O38772   1.302   4.209   2.858
12397WAT     H138773   1.232   4.248   2.806
12397WAT     H238774   1.329   4.278   2.918
12398WAT      O38775   0.559   4.867   2.064
12398WAT     H138776   0.497   4.914   2.008
12398WAT     H238777   0.611   4.936   2.106
12399WAT      O38778   0.897   4.201   2.479
12399WAT     H138779   0.827   4.230   2.537
12399WAT     H238780   0.933   4.282   2.443
12400WAT      O38781   1.059   5.163   2.705
12400WAT     H138782   0.990   5.230   2.704
12400WAT     H238783   1.113   5.183   2.628
12401WAT      O38784   1.204   4.146   2.518
12401WAT     H138785   1.109   4.149   2.531
12401WAT     H238786   1.236   4.227   2.556
12402WAT      O38787   0.812   5.347   2.576
12402WAT     H138788   0.813   5.307   2.490
12402WAT     H238789   0.757   5.425   2.566
12403WAT      O38790   0.942   5.020   2.085
12403WAT     H138791   0.931   4.925   2.098
12403WAT     H238792   0.941   5.056   2.174
12404WAT      O38793   0.752   4.838   2.709
12404WAT     H138794   0.794   4.816   2.626
12404WAT     H238795   0.824   4.864   2.766
12405WAT      O38796   0.496   4.582   2.021
12405WAT     H138797   0.403   4.576   2.044
12405WAT     H238798   0.511   4.676   2.009
12406WAT      O38799   0.495   4.209   1.721
12406WAT     H138800   0.401   4.226   1.729
12406WAT     H238801   0.526   4.281   1.666
12407WAT      O38802   1.147   4.678   2.718
12407WAT     H138803   1.064   4.685   2.671
12407WAT     H238804   1.206   4.736   2.672
12408WAT      O38805   0.899   4.739   2.071
12408WAT     H138806   0.837   4.705   2.007
12408WAT     H238807   0.897   4.674   2.142
12409WAT      O38808   0.843   4.356   2.813
12409WAT     H138809   0.802   4.439   2.838
12409WAT     H238810   0.770   4.298   2.794
12410WAT      O38811   0.912   5.361   2.882
12410WAT     H138812   0.864   5.442   2.862
12410WAT     H238813   0.844   5.296   2.897
12411WAT      O38814   0.716   4.662   1.772
12411WAT     H138815   0.760   4.579   1.757
12411WAT     H238816   0.788   4.726   1.781
12412WAT      O38817   0.527   5.156   2.169
12412WAT     H138818   0.571   5.231   2.127
12412WAT     H238819   0.521   5.181   2.261
12413WAT      O38820   1.075   3.788   1.603
12413WAT     H138821   1.043   3.797   1.693
12413WAT     H238822   1.151   3.846   1.598
12414WAT      O38823   1.270   5.337   3.389
12414WAT     H138824   1.318   5.385   3.457
12414WAT     H238825   1.332   5.330   3.316
12415WAT      O38826   1.210   5.056   3.105
12415WAT     H138827   1.223   5.032   3.013
12415WAT     H238828   1.215   4.973   3.152
12416WAT      O38829   0.597   5.426   2.962
12416WAT     H138830   0.648   5.418   3.042
12416WAT     H238831   0.512   5.461   2.991
12417WAT      O38832   0.794   5.455   1.904
12417WAT     H138833   0.778   5.426   1.994
12417WAT     H238834   0.778   5.377   1.851
12418WAT      O38835   0.764   5.206   1.760
12418WAT     H138836   0.695   5.206   1.694
12418WAT     H238837   0.839   5.163   1.717
12419WAT      O38838   0.721   5.369   2.168
12419WAT     H138839   0.766   5.290   2.199
12419WAT     H238840   0.755   5.440   2.222
12420WAT      O38841   1.196   4.262   3.201
12420WAT     H138842   1.134   4.312   3.148
12420WAT     H238843   1.164   4.171   3.195
12421WAT      O38844   0.402   4.145   2.948
12421WAT     H138845   0.356   4.166   3.029
12421WAT     H238846   0.362   4.064   2.917
12422WAT      O38847   0.902   4.268   3.061
12422WAT     H138848   0.817   4.238   3.093
12422WAT     H238849   0.886   4.292   2.970
12423WAT      O38850   0.611   4.418   3.271
12423WAT     H138851   0.644   4.334   3.237
12423WAT     H238852   0.690   4.470   3.285
12424WAT      O38853   0.285   3.821   1.875
12424WAT     H138854   0.222   3.820   1.948
12424WAT     H238855   0.276   3.734   1.836
12425WAT      O38856   0.177   3.913   2.573
12425WAT     H138857   0.207   4.004   2.565
12425WAT     H238858   0.232   3.864   2.512
12426WAT      O38859   0.675   4.372   2.020
12426WAT     H138860   0.615   4.444   2.002
12426WAT     H238861   0.730   4.365   1.942
12427WAT      O38862   0.196   4.461   3.227
12427WAT     H138863   0.187   4.367   3.212
12427WAT     H238864   0.281   4.483   3.187
12428WAT      O38865   0.536   4.235   2.223
12428WAT     H138866   0.575   4.267   2.142
12428WAT     H238867   0.572   4.147   2.235
12429WAT      O38868   0.367   4.110   3.349
12429WAT     H138869   0.298   4.091   3.413
12429WAT     H238870   0.441   4.139   3.402
12430WAT      O38871   0.594   4.494   2.633
12430WAT     H138872   0.521   4.545   2.668
12430WAT     H238873   0.555   4.413   2.603
12431WAT      O38874   0.238   4.162   2.473
12431WAT     H138875   0.239   4.118   2.388
12431WAT     H238876   0.328   4.194   2.484
12432WAT      O38877   0.244   4.262   1.772
12432WAT     H138878   0.256   4.258   1.867
12432WAT     H238879   0.206   4.348   1.757
12433WAT      O38880   0.641   4.040   2.574
12433WAT     H138881   0.642   4.085   2.658
12433WAT     H238882   0.616   3.950   2.595
12434WAT      O38883   0.983   3.781   3.158
12434WAT     H138884   1.016   3.708   3.210
12434WAT     H238885   0.987   3.749   3.068
12435WAT      O38886   0.268   4.568   2.648
12435WAT     H138887   0.305   4.521   2.722
12435WAT     H238888   0.249   4.655   2.682
12436WAT      O38889   0.976   4.792   2.519
12436WAT     H138890   1.048   4.842   2.480
12436WAT     H238891   0.956   4.724   2.454
12437WAT      O38892   0.522   3.932   1.933
12437WAT     H138893   0.441   3.882   1.925
12437WAT     H238894   0.503   4.016   1.891
12438WAT      O38895   0.514   4.799   3.107
12438WAT     H138896   0.507   4.707   3.082
12438WAT     H238897   0.451   4.809   3.179
12439WAT      O38898   0.794   4.369   1.763
12439WAT     H138899   0.882   4.400   1.745
12439WAT     H238900   0.791   4.282   1.723
12440WAT      O38901   0.393   4.986   1.830
12440WAT     H138902   0.427   5.061   1.781
12440WAT     H238903   0.310   5.017   1.867
12441WAT      O38904   0.507   5.082   3.082
12441WAT     H138905   0.509   4.988   3.061
12441WAT     H238906   0.437   5.090   3.146
12442WAT      O38907   1.021   4.500   1.709
12442WAT     H138908   1.012   4.543   1.624
12442WAT     H238909   1.093   4.546   1.753
12443WAT      O38910   1.128   4.746   3.017
12443WAT     H138911   1.056   4.805   2.997
12443WAT     H238912   1.181   4.745   2.937
12444WAT      O38913   1.124   5.185   1.982
12444WAT     H138914   1.059   5.120   2.010
12444WAT     H238915   1.085   5.226   1.905
12445WAT      O38916   0.681   4.918   2.367
12445WAT     H138917   0.717   4.859   2.301
12445WAT     H238918   0.593   4.886   2.384
12446WAT      O38919   0.290   4.994   2.108
12446WAT     H138920   0.359   5.049   2.146
12446WAT     H238921   0.211   5.049   2.111
12447WAT      O38922   0.220   4.695   2.069
12447WAT     H138923   0.266   4.776   2.091
12447WAT     H238924   0.185   4.663   2.152
12448WAT      O38925   0.451   5.246   2.792
12448WAT     H138926   0.515   5.266   2.859
12448WAT     H238927   0.487   5.170   2.746
12449WAT      O38928   0.578   5.046   2.664
12449WAT     H138929   0.642   4.976   2.675
12449WAT     H238930   0.630   5.124   2.645
12450WAT      O38931   0.963   5.075   1.636
12450WAT     H138932   0.940   5.003   1.695
12450WAT     H238933   0.923   5.050   1.552
12451WAT      O38934   0.755   5.126   2.984
12451WAT     H138935   0.789   5.185   3.052
12451WAT     H238936   0.663   5.113   3.007
12452WAT      O38937   0.921   4.866   1.802
12452WAT     H138938   0.892   4.912   1.881
12452WAT     H238939   1.000   4.820   1.829
12453WAT      O38940   0.338   5.131   3.301
12453WAT     H138941   0.306   5.059   3.355
12453WAT     H238942   0.271   5.199   3.308
12454WAT      O38943   0.660   4.154   2.837
12454WAT     H138944   0.697   4.072   2.870
12454WAT     H238945   0.574   4.160   2.879
12455WAT      O38946   0.996   4.050   1.918
12455WAT     H138947   0.934   4.060   1.847
12455WAT     H238948   0.947   4.072   1.997
12456WAT      O38949   0.441   5.222   1.661
12456WAT     H138950   0.451   5.202   1.568
12456WAT     H238951   0.351   5.196   1.682
12457WAT      O38952   0.356   4.420   2.860
12457WAT     H138953   0.406   4.467   2.926
12457WAT     H238954   0.370   4.327   2.880
12458WAT      O38955   0.596   3.950   2.204
12458WAT     H138956   0.584   3.952   2.109
12458WAT     H238957   0.691   3.955   2.216
12459WAT      O38958   0.305   5.474   2.131
12459WAT     H138959   0.331   5.470   2.039
12459WAT     H238960   0.210   5.461   2.130
12460WAT      O38961   1.076   4.041   2.944
12460WAT     H138962   1.026   4.115   2.978
12460WAT     H238963   1.158   4.080   2.912
12461WAT      O38964   0.906   4.566   2.288
12461WAT     H138965   0.812   4.567   2.306
12461WAT     H238966   0.937   4.487   2.333
12462WAT      O38967   1.106   5.283   2.456
12462WAT     H138968   1.118   5.365   2.503
12462WAT     H238969   1.193   5.262   2.421
12463WAT      O38970   0.637   5.021   3.337
12463WAT     H138971   0.577   5.024   3.263
12463WAT     H238972   0.607   4.948   3.390
12464WAT      O38973   0.780   5.394   3.198
12464WAT     H138974   0.876   5.386   3.193
12464WAT     H238975   0.766   5.461   3.265
12465WAT      O38976   1.069   5.332   1.748
12465WAT     H138977   1.041   5.291   1.666
12465WAT     H238978   1.050   5.425   1.736
12466WAT      O38979   0.216   4.931   1.592
12466WAT     H138980   0.205   4.870   1.664
12466WAT     H238981   0.199   4.879   1.513
12467WAT      O38982   0.540   4.838   1.652
12467WAT     H138983   0.485   4.882   1.717
12467WAT     H238984   0.602   4.787   1.705
12468WAT      O38985   0.945   4.973   3.245
12468WAT     H138986   1.019   5.007   3.195
12468WAT     H238987   0.869   4.990   3.190
12469WAT      O38988   0.358   4.636   1.567
12469WAT     H138989   0.410   4.564   1.530
12469WAT     H238990   0.423   4.700   1.597
12470WAT      O38991   0.813   4.778   3.099
12470WAT     H138992   0.854   4.794   3.184
12470WAT     H238993   0.719   4.791   3.115
12471WAT      O38994   0.860   4.512   3.299
12471WAT     H138995   0.918   4.437   3.291
12471WAT     H238996   0.878   4.565   3.222
12472WAT      O38997   0.248   3.884   2.834
12472WAT     H138998   0.203   3.886   2.749
12472WAT     H238999   0.185   3.844   2.894
12473WAT      O39000   0.289   4.773   2.896
12473WAT     H139001   0.331   4.858   2.879
12473WAT     H239002   0.197   4.787   2.873
12474WAT      O39003   0.523   4.547   3.034
12474WAT     H139004   0.534   4.487   3.108
12474WAT     H239005   0.608   4.550   2.992
12475WAT      O39006   0.756   4.602   2.892
12475WAT     H139007   0.704   4.654   2.832
12475WAT     H239008   0.791   4.665   2.955
12476WAT      O39009   0.681   4.162   3.183
12476WAT     H139010   0.612   4.096   3.177
12476WAT     H239011   0.753   4.118   3.228
12477WAT      O39012   0.744   3.822   1.789
12477WAT     H139013   0.772   3.738   1.825
12477WAT     H239014   0.667   3.845   1.841
12478WAT      O39015   0.360   5.527   3.033
12478WAT     H139016   0.352   5.618   3.064
12478WAT     H239017   0.269   5.496   3.031
12479WAT      O39018   0.414   5.444   1.796
12479WAT     H139019   0.504   5.478   1.798
12479WAT     H239020   0.418   5.372   1.733
12480WAT      O39021   1.112   5.297   3.066
12480WAT     H139022   1.052   5.303   2.992
12480WAT     H239023   1.125   5.203   3.079
12481WAT      O39024   1.236   5.071   1.600
12481WAT     H139025   1.153   5.078   1.647
12481WAT     H239026   1.254   5.160   1.570
12482WAT      O39027   1.182   4.746   1.850
12482WAT     H139028   1.258   4.803   1.861
12482WAT     H239029   1.183   4.689   1.927
12483WAT      O39030   1.283   4.831   2.335
12483WAT     H139031   1.320   4.753   2.294
12483WAT     H239032   1.347   4.900   2.317
12484WAT      O39033   0.981   4.970   2.876
12484WAT     H139034   0.899   5.013   2.902
12484WAT     H239035   1.022   5.031   2.815
12485WAT      O39036   1.187   4.775   1.566
12485WAT     H139037   1.215   4.866   1.553
12485WAT     H239038   1.168   4.769   1.660
12486WAT      O39039   0.827   4.077   1.696
12486WAT     H139040   0.869   4.059   1.612
12486WAT     H239041   0.796   3.992   1.727
12487WAT      O39042   1.177   4.569   2.065
12487WAT     H139043   1.139   4.492   2.022
12487WAT     H239044   1.104   4.607   2.114
12488WAT      O39045   1.116   4.483   3.029
12488WAT     H139046   1.093   4.461   2.939
12488WAT     H239047   1.142   4.575   3.024
12489WAT      O39048   0.960   4.006   3.307
12489WAT     H139049   1.047   4.007   3.345
12489WAT     H239050   0.961   3.932   3.246
12490WAT      O39051   1.104   4.391   2.395
12490WAT     H139052   1.157   4.342   2.332
12490WAT     H239053   1.163   4.405   2.470
12491WAT      O39054   1.122   4.400   2.748
12491WAT     H139055   1.027   4.396   2.759
12491WAT     H239056   1.140   4.491   2.724
12492WAT      O39057   1.053   4.317   1.989
12492WAT     H139058   1.103   4.294   2.068
12492WAT     H239059   1.033   4.233   1.948
12493WAT      O39060   1.196   4.181   2.243
12493WAT     H139061   1.185   4.165   2.337
12493WAT     H239062   1.272   4.128   2.219
12494WAT      O39063   1.031   3.775   2.889
12494WAT     H139064   1.095   3.836   2.925
12494WAT     H239065   1.046   3.778   2.794
12495WAT      O39066   1.285   3.964   1.567
12495WAT     H139067   1.378   3.951   1.546
12495WAT     H239068   1.283   3.972   1.662
12496WAT      O39069   1.292   4.041   1.829
12496WAT     H139070   1.213   4.034   1.882
12496WAT     H239071   1.313   4.134   1.828
12497WAT      O39072   0.987   5.445   2.229
12497WAT     H139073   1.046   5.413   2.161
12497WAT     H239074   1.012   5.397   2.308
12498WAT      O39075   0.368   3.890   3.179
12498WAT     H139076   0.362   3.949   3.254
12498WAT     H239077   0.462   3.879   3.165
12499WAT      O39078   0.632   3.856   3.143
12499WAT     H139079   0.693   3.887   3.077
12499WAT     H239080   0.686   3.807   3.205
12500WAT      O39081   1.273   5.445   2.884
12500WAT     H139082   1.224   5.485   2.812
12500WAT     H239083   1.213   5.383   2.923
12501WAT      O39084   0.706   3.712   2.776
12501WAT     H139085   0.618   3.745   2.756
12501WAT     H239086   0.695   3.665   2.858
12502WAT      O39087   0.796   3.933   2.914
12502WAT     H139088   0.764   3.851   2.876
12502WAT     H239089   0.891   3.928   2.902
12503WAT      O39090   1.042   5.510   2.612
12503WAT     H139091   0.996   5.585   2.574
12503WAT     H239092   0.979   5.438   2.606
12504WAT      O39093   0.359   5.430   2.612
12504WAT     H139094   0.387   5.404   2.524
12504WAT     H239095   0.410   5.374   2.671
12505WAT      O39096   0.480   3.804   2.670
12505WAT     H139097   0.402   3.851   2.698
12505WAT     H239098   0.451   3.713   2.659
12506WAT      O39099   0.936   3.874   2.474
12506WAT     H139100   0.980   3.868   2.390
12506WAT     H239101   0.909   3.965   2.481
12507WAT      O39102   1.122   3.837   2.275
12507WAT     H139103   1.116   3.743   2.261
12507WAT     H239104   1.200   3.848   2.330
12508WAT      O39105   0.269   4.045   2.221
12508WAT     H139106   0.188   4.008   2.187
12508WAT     H239107   0.319   3.970   2.251
12509WAT      O39108   0.719   3.712   2.345
12509WAT     H139109   0.780   3.769   2.392
12509WAT     H239110   0.645   3.768   2.323
12510WAT      O39111   1.034   3.752   1.872
12510WAT     H139112   1.053   3.842   1.899
12510WAT     H239113   0.955   3.729   1.922
12511WAT      O39114   0.365   5.522   3.349
12511WAT     H139115   0.458   5.498   3.353
12511WAT     H239116   0.364   5.605   3.300
12512WAT      O39117   1.189   5.476   2.048
12512WAT     H139118   1.206   5.407   1.984
12512WAT     H239119   1.119   5.529   2.009
12513WAT      O39120   0.744   3.730   3.383
12513WAT     H139121   0.733   3.762   3.472
12513WAT     H239122   0.826   3.770   3.353
12514WAT      O39123   1.022   5.445   3.331
12514WAT     H139124   1.101   5.395   3.310
12514WAT     H239125   1.052   5.512   3.392
12515WAT      O39126   0.635   4.532   0.419
12515WAT     H139127   0.627   4.440   0.392
12515WAT     H239128   0.593   4.581   0.349
12516WAT      O39129   0.448   4.710   0.607
12516WAT     H139130   0.370   4.662   0.636
12516WAT     H239131   0.513   4.642   0.590
12517WAT      O39132   0.850   5.150   0.485
12517WAT     H139133   0.804   5.073   0.518
12517WAT     H239134   0.931   5.153   0.536
12518WAT      O39135   0.473   5.379   0.447
12518WAT     H139136   0.411   5.424   0.390
12518WAT     H239137   0.558   5.394   0.407
12519WAT      O39138   0.392   4.977   0.608
12519WAT     H139139   0.385   4.883   0.592
12519WAT     H239140   0.468   4.986   0.665
12520WAT      O39141   0.495   4.258   0.631
12520WAT     H139142   0.533   4.171   0.619
12520WAT     H239143   0.485   4.291   0.542
12521WAT      O39144   0.873   4.007   0.324
12521WAT     H139145   0.955   3.958   0.328
12521WAT     H239146   0.877   4.066   0.399
12522WAT      O39147   1.302   4.209   0.980
12522WAT     H139148   1.232   4.248   0.929
12522WAT     H239149   1.329   4.278   1.041
12523WAT      O39150   0.897   4.201   0.601
12523WAT     H139151   0.827   4.230   0.659
12523WAT     H239152   0.933   4.282   0.565
12524WAT      O39153   1.059   5.163   0.827
12524WAT     H139154   0.990   5.230   0.827
12524WAT     H239155   1.113   5.183   0.751
12525WAT      O39156   1.204   4.146   0.640
12525WAT     H139157   1.109   4.149   0.653
12525WAT     H239158   1.236   4.227   0.679
12526WAT      O39159   0.812   5.347   0.699
12526WAT     H139160   0.813   5.307   0.612
12526WAT     H239161   0.757   5.425   0.689
12527WAT      O39162   0.942   5.020   0.208
12527WAT     H139163   0.931   4.925   0.220
12527WAT     H239164   0.941   5.056   0.296
12528WAT      O39165   0.752   4.838   0.832
12528WAT     H139166   0.794   4.816   0.748
12528WAT     H239167   0.824   4.864   0.889
12529WAT      O39168   1.147   4.678   0.841
12529WAT     H139169   1.064   4.685   0.793
12529WAT     H239170   1.206   4.736   0.794
12530WAT      O39171   0.843   4.356   0.935
12530WAT     H139172   0.802   4.439   0.961
12530WAT     H239173   0.770   4.298   0.916
12531WAT      O39174   0.912   5.361   1.004
12531WAT     H139175   0.864   5.442   0.985
12531WAT     H239176   0.844   5.296   1.020
12532WAT      O39177   0.527   5.156   0.291
12532WAT     H139178   0.571   5.231   0.250
12532WAT     H239179   0.521   5.181   0.384
12533WAT      O39180   1.270   5.337   1.511
12533WAT     H139181   1.318   5.385   1.579
12533WAT     H239182   1.332   5.330   1.439
12534WAT      O39183   1.210   5.056   1.227
12534WAT     H139184   1.223   5.032   1.135
12534WAT     H239185   1.215   4.973   1.274
12535WAT      O39186   0.597   5.426   1.084
12535WAT     H139187   0.648   5.418   1.164
12535WAT     H239188   0.512   5.461   1.113
12536WAT      O39189   0.721   5.369   0.290
12536WAT     H139190   0.766   5.290   0.322
12536WAT     H239191   0.755   5.440   0.345
12537WAT      O39192   1.196   4.262   1.324
12537WAT     H139193   1.134   4.312   1.271
12537WAT     H239194   1.164   4.171   1.318
12538WAT      O39195   0.402   4.145   1.070
12538WAT     H139196   0.356   4.166   1.152
12538WAT     H239197   0.362   4.064   1.040
12539WAT      O39198   0.902   4.268   1.183
12539WAT     H139199   0.817   4.238   1.215
12539WAT     H239200   0.886   4.292   1.092
12540WAT      O39201   0.611   4.418   1.393
12540WAT     H139202   0.644   4.334   1.359
12540WAT     H239203   0.690   4.470   1.408
12541WAT      O39204   0.177   3.913   0.696
12541WAT     H139205   0.207   4.004   0.688
12541WAT     H239206   0.232   3.864   0.634
12542WAT      O39207   0.196   4.461   1.349
12542WAT     H139208   0.187   4.367   1.334
12542WAT     H239209   0.281   4.483   1.310
12543WAT      O39210   0.536   4.235   0.346
12543WAT     H139211   0.575   4.267   0.264
12543WAT     H239212   0.572   4.147   0.357
12544WAT      O39213   0.367   4.110   1.472
12544WAT     H139214   0.298   4.091   1.535
12544WAT     H239215   0.441   4.139   1.525
12545WAT      O39216   0.594   4.494   0.755
12545WAT     H139217   0.521   4.545   0.790
12545WAT     H239218   0.555   4.413   0.725
12546WAT      O39219   0.238   4.162   0.596
12546WAT     H139220   0.239   4.118   0.511
12546WAT     H239221   0.328   4.194   0.606
12547WAT      O39222   0.641   4.040   0.696
12547WAT     H139223   0.642   4.085   0.781
12547WAT     H239224   0.616   3.950   0.718
12548WAT      O39225   0.983   3.781   1.280
12548WAT     H139226   1.016   3.708   1.333
12548WAT     H239227   0.987   3.749   1.190
12549WAT      O39228   0.268   4.568   0.770
12549WAT     H139229   0.305   4.521   0.845
12549WAT     H239230   0.249   4.655   0.804
12550WAT      O39231   0.976   4.792   0.641
12550WAT     H139232   1.048   4.842   0.602
12550WAT     H239233   0.956   4.724   0.577
12551WAT      O39234   0.514   4.799   1.230
12551WAT     H139235   0.507   4.707   1.204
12551WAT     H239236   0.451   4.809   1.301
12552WAT      O39237   0.507   5.082   1.205
12552WAT     H139238   0.509   4.988   1.183
12552WAT     H239239   0.437   5.090   1.269
12553WAT      O39240   1.128   4.746   1.140
12553WAT     H139241   1.056   4.805   1.120
12553WAT     H239242   1.181   4.745   1.060
12554WAT      O39243   0.681   4.918   0.489
12554WAT     H139244   0.717   4.859   0.423
12554WAT     H239245   0.593   4.886   0.507
12555WAT      O39246   0.290   4.994   0.230
12555WAT     H139247   0.359   5.049   0.268
12555WAT     H239248   0.211   5.049   0.234
12556WAT      O39249   0.220   4.695   0.191
12556WAT     H139250   0.266   4.776   0.214
12556WAT     H239251   0.185   4.663   0.275
12557WAT      O39252   0.451   5.246   0.914
12557WAT     H139253   0.515   5.266   0.982
12557WAT     H239254   0.487   5.170   0.869
12558WAT      O39255   0.578   5.046   0.786
12558WAT     H139256   0.642   4.976   0.797
12558WAT     H239257   0.630   5.124   0.768
12559WAT      O39258   0.755   5.126   1.106
12559WAT     H139259   0.789   5.185   1.174
12559WAT     H239260   0.663   5.113   1.129
12560WAT      O39261   0.338   5.131   1.423
12560WAT     H139262   0.306   5.059   1.478
12560WAT     H239263   0.271   5.199   1.431
12561WAT      O39264   0.660   4.154   0.960
12561WAT     H139265   0.697   4.072   0.992
12561WAT     H239266   0.574   4.160   1.001
12562WAT      O39267   0.356   4.420   0.982
12562WAT     H139268   0.406   4.467   1.049
12562WAT     H239269   0.370   4.327   1.003
12563WAT      O39270   0.596   3.950   0.326
12563WAT     H139271   0.584   3.952   0.231
12563WAT     H239272   0.691   3.955   0.338
12564WAT      O39273   0.305   5.474   0.253
12564WAT     H139274   0.331   5.470   0.161
12564WAT     H239275   0.210   5.461   0.253
12565WAT      O39276   1.076   4.041   1.066
12565WAT     H139277   1.026   4.115   1.100
12565WAT     H239278   1.158   4.080   1.035
12566WAT      O39279   0.906   4.566   0.411
12566WAT     H139280   0.812   4.567   0.428
12566WAT     H239281   0.937   4.487   0.456
12567WAT      O39282   1.106   5.283   0.579
12567WAT     H139283   1.118   5.365   0.626
12567WAT     H239284   1.193   5.262   0.544
12568WAT      O39285   0.637   5.021   1.459
12568WAT     H139286   0.577   5.024   1.385
12568WAT     H239287   0.607   4.948   1.513
12569WAT      O39288   0.780   5.394   1.320
12569WAT     H139289   0.876   5.386   1.315
12569WAT     H239290   0.766   5.461   1.388
12570WAT      O39291   0.945   4.973   1.368
12570WAT     H139292   1.019   5.007   1.318
12570WAT     H239293   0.869   4.990   1.313
12571WAT      O39294   0.813   4.778   1.222
12571WAT     H139295   0.854   4.794   1.306
12571WAT     H239296   0.719   4.791   1.238
12572WAT      O39297   0.860   4.512   1.422
12572WAT     H139298   0.918   4.437   1.413
12572WAT     H239299   0.878   4.565   1.344
12573WAT      O39300   0.248   3.884   0.956
12573WAT     H139301   0.203   3.886   0.872
12573WAT     H239302   0.185   3.844   1.016
12574WAT      O39303   0.289   4.773   1.019
12574WAT     H139304   0.331   4.858   1.001
12574WAT     H239305   0.197   4.787   0.996
12575WAT      O39306   0.523   4.547   1.157
12575WAT     H139307   0.534   4.487   1.231
12575WAT     H239308   0.608   4.550   1.115
12576WAT      O39309   0.756   4.602   1.015
12576WAT     H139310   0.704   4.654   0.954
12576WAT     H239311   0.791   4.665   1.078
12577WAT      O39312   0.681   4.162   1.306
12577WAT     H139313   0.612   4.096   1.299
12577WAT     H239314   0.753   4.118   1.350
12578WAT      O39315   0.360   5.527   1.156
12578WAT     H139316   0.352   5.618   1.187
12578WAT     H239317   0.269   5.496   1.153
12579WAT      O39318   1.112   5.297   1.189
12579WAT     H139319   1.052   5.303   1.115
12579WAT     H239320   1.125   5.203   1.202
12580WAT      O39321   1.283   4.831   0.457
12580WAT     H139322   1.320   4.753   0.417
12580WAT     H239323   1.347   4.900   0.440
12581WAT      O39324   0.981   4.970   0.999
12581WAT     H139325   0.899   5.013   1.025
12581WAT     H239326   1.022   5.031   0.937
12582WAT      O39327   1.177   4.569   0.188
12582WAT     H139328   1.139   4.492   0.145
12582WAT     H239329   1.104   4.607   0.237
12583WAT      O39330   1.116   4.483   1.151
12583WAT     H139331   1.093   4.461   1.061
12583WAT     H239332   1.142   4.575   1.147
12584WAT      O39333   0.960   4.006   1.429
12584WAT     H139334   1.047   4.007   1.467
12584WAT     H239335   0.961   3.932   1.368
12585WAT      O39336   1.104   4.391   0.518
12585WAT     H139337   1.157   4.342   0.455
12585WAT     H239338   1.163   4.405   0.592
12586WAT      O39339   1.122   4.400   0.870
12586WAT     H139340   1.027   4.396   0.882
12586WAT     H239341   1.140   4.491   0.847
12587WAT      O39342   1.196   4.181   0.365
12587WAT     H139343   1.185   4.165   0.459
12587WAT     H239344   1.272   4.128   0.341
12588WAT      O39345   1.031   3.775   1.011
12588WAT     H139346   1.095   3.836   1.048
12588WAT     H239347   1.046   3.778   0.917
12589WAT      O39348   0.987   5.445   0.351
12589WAT     H139349   1.046   5.413   0.284
12589WAT     H239350   1.012   5.397   0.430
12590WAT      O39351   0.368   3.890   1.302
12590WAT     H139352   0.362   3.949   1.377
12590WAT     H239353   0.462   3.879   1.287
12591WAT      O39354   0.632   3.856   1.266
12591WAT     H139355   0.693   3.887   1.200
12591WAT     H239356   0.686   3.807   1.328
12592WAT      O39357   1.273   5.445   1.006
12592WAT     H139358   1.224   5.485   0.935
12592WAT     H239359   1.213   5.383   1.046
12593WAT      O39360   0.706   3.712   0.899
12593WAT     H139361   0.618   3.745   0.878
12593WAT     H239362   0.695   3.665   0.981
12594WAT      O39363   0.796   3.933   1.037
12594WAT     H139364   0.764   3.851   0.999
12594WAT     H239365   0.891   3.928   1.025
12595WAT      O39366   1.042   5.510   0.734
12595WAT     H139367   0.996   5.585   0.697
12595WAT     H239368   0.979   5.438   0.728
12596WAT      O39369   0.359   5.430   0.734
12596WAT     H139370   0.387   5.404   0.647
12596WAT     H239371   0.410   5.374   0.794
12597WAT      O39372   0.480   3.804   0.792
12597WAT     H139373   0.402   3.851   0.820
12597WAT     H239374   0.451   3.713   0.782
12598WAT      O39375   0.936   3.874   0.597
12598WAT     H139376   0.980   3.868   0.512
12598WAT     H239377   0.909   3.965   0.604
12599WAT      O39378   1.122   3.837   0.398
12599WAT     H139379   1.116   3.743   0.383
12599WAT     H239380   1.200   3.848   0.453
12600WAT      O39381   0.269   4.045   0.344
12600WAT     H139382   0.188   4.008   0.310
12600WAT     H239383   0.319   3.970   0.374
12601WAT      O39384   0.719   3.712   0.467
12601WAT     H139385   0.780   3.769   0.515
12601WAT     H239386   0.645   3.768   0.445
12602WAT      O39387   0.365   5.522   1.471
12602WAT     H139388   0.458   5.498   1.476
12602WAT     H239389   0.364   5.605   1.423
12603WAT      O39390   0.744   3.730   1.505
12603WAT     H139391   0.733   3.762   1.595
12603WAT     H239392   0.826   3.770   1.476
12604WAT      O39393   1.022   5.445   1.454
12604WAT     H139394   1.101   5.395   1.433
12604WAT     H239395   1.052   5.512   1.514
12605WAT      O39396   0.635   2.654   6.051
12605WAT     H139397   0.627   2.563   6.024
12605WAT     H239398   0.593   2.704   5.981
12606WAT      O39399   0.448   2.832   6.240
12606WAT     H139400   0.370   2.784   6.269
12606WAT     H239401   0.513   2.764   6.222
12607WAT      O39402   0.850   3.273   6.118
12607WAT     H139403   0.804   3.196   6.150
12607WAT     H239404   0.931   3.275   6.168
12608WAT      O39405   0.473   3.501   6.080
12608WAT     H139406   0.411   3.547   6.023
12608WAT     H239407   0.558   3.517   6.039
12609WAT      O39408   0.392   3.100   6.240
12609WAT     H139409   0.385   3.006   6.224
12609WAT     H239410   0.468   3.109   6.297
12610WAT      O39411   0.495   2.380   6.263
12610WAT     H139412   0.533   2.293   6.252
12610WAT     H239413   0.485   2.414   6.174
12611WAT      O39414   0.873   2.130   5.956
12611WAT     H139415   0.955   2.081   5.960
12611WAT     H239416   0.877   2.189   6.032
12612WAT      O39417   0.559   2.990   5.819
12612WAT     H139418   0.497   3.036   5.763
12612WAT     H239419   0.611   3.059   5.861
12613WAT      O39420   0.897   2.324   6.234
12613WAT     H139421   0.827   2.353   6.292
12613WAT     H239422   0.933   2.405   6.198
12614WAT      O39423   1.059   3.286   6.460
12614WAT     H139424   0.990   3.353   6.459
12614WAT     H239425   1.113   3.305   6.383
12615WAT      O39426   1.204   2.268   6.273
12615WAT     H139427   1.109   2.272   6.286
12615WAT     H239428   1.236   2.350   6.311
12616WAT      O39429   0.812   3.470   6.331
12616WAT     H139430   0.813   3.430   6.244
12616WAT     H239431   0.757   3.548   6.321
12617WAT      O39432   0.942   3.142   5.840
12617WAT     H139433   0.931   3.048   5.853
12617WAT     H239434   0.941   3.178   5.929
12618WAT      O39435   0.752   2.960   6.464
12618WAT     H139436   0.794   2.939   6.381
12618WAT     H239437   0.824   2.986   6.521
12619WAT      O39438   0.496   2.705   5.776
12619WAT     H139439   0.403   2.698   5.799
12619WAT     H239440   0.511   2.799   5.764
12620WAT      O39441   0.495   2.332   5.475
12620WAT     H139442   0.401   2.348   5.484
12620WAT     H239443   0.526   2.404   5.421
12621WAT      O39444   1.147   2.800   6.473
12621WAT     H139445   1.064   2.807   6.426
12621WAT     H239446   1.206   2.859   6.426
12622WAT      O39447   0.899   2.861   5.826
12622WAT     H139448   0.837   2.827   5.761
12622WAT     H239449   0.897   2.797   5.897
12623WAT      O39450   0.843   2.479   6.568
12623WAT     H139451   0.802   2.561   6.593
12623WAT     H239452   0.770   2.420   6.549
12624WAT      O39453   0.912   3.484   6.637
12624WAT     H139454   0.864   3.564   6.617
12624WAT     H239455   0.844   3.418   6.652
12625WAT      O39456   0.716   2.785   5.527
12625WAT     H139457   0.760   2.701   5.512
12625WAT     H239458   0.788   2.848   5.535
12626WAT      O39459   0.527   3.279   5.924
12626WAT     H139460   0.571   3.353   5.882
12626WAT     H239461   0.521   3.303   6.016
12627WAT      O39462   1.075   1.910   5.358
12627WAT     H139463   1.043   1.920   5.448
12627WAT     H239464   1.151   1.968   5.353
12628WAT      O39465   0.794   3.578   5.659
12628WAT     H139466   0.778   3.549   5.749
12628WAT     H239467   0.778   3.500   5.606
12629WAT      O39468   0.764   3.328   5.515
12629WAT     H139469   0.695   3.328   5.449
12629WAT     H239470   0.839   3.286   5.472
12630WAT      O39471   0.721   3.491   5.923
12630WAT     H139472   0.766   3.413   5.954
12630WAT     H239473   0.755   3.562   5.977
12631WAT      O39474   0.285   1.943   5.630
12631WAT     H139475   0.222   1.943   5.703
12631WAT     H239476   0.276   1.857   5.591
12632WAT      O39477   0.177   2.036   6.328
12632WAT     H139478   0.207   2.126   6.320
12632WAT     H239479   0.232   1.987   6.267
12633WAT      O39480   0.675   2.494   5.775
12633WAT     H139481   0.615   2.567   5.757
12633WAT     H239482   0.730   2.488   5.697
12634WAT      O39483   0.536   2.358   5.978
12634WAT     H139484   0.575   2.390   5.897
12634WAT     H239485   0.572   2.270   5.989
12635WAT      O39486   0.594   2.617   6.388
12635WAT     H139487   0.521   2.668   6.422
12635WAT     H239488   0.555   2.535   6.357
12636WAT      O39489   0.238   2.285   6.228
12636WAT     H139490   0.239   2.240   6.143
12636WAT     H239491   0.328   2.317   6.239
12637WAT      O39492   0.244   2.385   5.527
12637WAT     H139493   0.256   2.381   5.622
12637WAT     H239494   0.206   2.471   5.512
12638WAT      O39495   0.641   2.162   6.329
12638WAT     H139496   0.642   2.207   6.413
12638WAT     H239497   0.616   2.072   6.350
12639WAT      O39498   0.268   2.691   6.403
12639WAT     H139499   0.305   2.643   6.477
12639WAT     H239500   0.249   2.778   6.437
12640WAT      O39501   0.976   2.915   6.273
12640WAT     H139502   1.048   2.964   6.234
12640WAT     H239503   0.956   2.847   6.209
12641WAT      O39504   0.522   2.054   5.688
12641WAT     H139505   0.441   2.004   5.680
12641WAT     H239506   0.503   2.138   5.646
12642WAT      O39507   0.794   2.491   5.517
12642WAT     H139508   0.882   2.523   5.500
12642WAT     H239509   0.791   2.404   5.478
12643WAT      O39510   0.393   3.109   5.585
12643WAT     H139511   0.427   3.183   5.536
12643WAT     H239512   0.310   3.140   5.622
12644WAT      O39513   1.021   2.623   5.464
12644WAT     H139514   1.012   2.666   5.379
12644WAT     H239515   1.093   2.669   5.507
12645WAT      O39516   1.124   3.308   5.737
12645WAT     H139517   1.059   3.243   5.764
12645WAT     H239518   1.085   3.349   5.659
12646WAT      O39519   0.681   3.041   6.122
12646WAT     H139520   0.717   2.981   6.056
12646WAT     H239521   0.593   3.008   6.139
12647WAT      O39522   0.290   3.117   5.862
12647WAT     H139523   0.359   3.172   5.901
12647WAT     H239524   0.211   3.171   5.866
12648WAT      O39525   0.220   2.817   5.824
12648WAT     H139526   0.266   2.898   5.846
12648WAT     H239527   0.185   2.786   5.907
12649WAT      O39528   0.451   3.368   6.547
12649WAT     H139529   0.515   3.389   6.614
12649WAT     H239530   0.487   3.292   6.501
12650WAT      O39531   0.578   3.169   6.418
12650WAT     H139532   0.642   3.099   6.430
12650WAT     H239533   0.630   3.247   6.400
12651WAT      O39534   0.963   3.197   5.391
12651WAT     H139535   0.940   3.125   5.450
12651WAT     H239536   0.923   3.172   5.307
12652WAT      O39537   0.921   2.989   5.557
12652WAT     H139538   0.892   3.035   5.636
12652WAT     H239539   1.000   2.943   5.584
12653WAT      O39540   0.660   2.277   6.592
12653WAT     H139541   0.697   2.195   6.625
12653WAT     H239542   0.574   2.283   6.634
12654WAT      O39543   0.996   2.172   5.673
12654WAT     H139544   0.934   2.183   5.601
12654WAT     H239545   0.947   2.194   5.752
12655WAT      O39546   0.441   3.344   5.416
12655WAT     H139547   0.451   3.324   5.323
12655WAT     H239548   0.351   3.319   5.437
12656WAT      O39549   0.596   2.073   5.958
12656WAT     H139550   0.584   2.075   5.864
12656WAT     H239551   0.691   2.078   5.970
12657WAT      O39552   0.305   3.596   5.886
12657WAT     H139553   0.331   3.593   5.793
12657WAT     H239554   0.210   3.584   5.885
12658WAT      O39555   0.906   2.688   6.043
12658WAT     H139556   0.812   2.690   6.061
12658WAT     H239557   0.937   2.610   6.088
12659WAT      O39558   1.106   3.405   6.211
12659WAT     H139559   1.118   3.488   6.258
12659WAT     H239560   1.193   3.384   6.176
12660WAT      O39561   1.069   3.455   5.503
12660WAT     H139562   1.041   3.413   5.421
12660WAT     H239563   1.050   3.547   5.491
12661WAT      O39564   0.216   3.054   5.347
12661WAT     H139565   0.205   2.992   5.419
12661WAT     H239566   0.199   3.002   5.268
12662WAT      O39567   0.540   2.960   5.407
12662WAT     H139568   0.485   3.005   5.472
12662WAT     H239569   0.602   2.910   5.459
12663WAT      O39570   0.358   2.758   5.322
12663WAT     H139571   0.410   2.687   5.285
12663WAT     H239572   0.423   2.822   5.352
12664WAT      O39573   0.248   2.006   6.589
12664WAT     H139574   0.203   2.009   6.504
12664WAT     H239575   0.185   1.967   6.648
12665WAT      O39576   0.289   2.896   6.651
12665WAT     H139577   0.331   2.980   6.634
12665WAT     H239578   0.197   2.910   6.628
12666WAT      O39579   0.744   1.944   5.544
12666WAT     H139580   0.772   1.860   5.580
12666WAT     H239581   0.667   1.968   5.596
12667WAT      O39582   0.414   3.567   5.551
12667WAT     H139583   0.504   3.600   5.553
12667WAT     H239584   0.418   3.494   5.488
12668WAT      O39585   1.236   3.194   5.355
12668WAT     H139586   1.153   3.201   5.402
12668WAT     H239587   1.254   3.283   5.325
12669WAT      O39588   1.182   2.868   5.605
12669WAT     H139589   1.258   2.925   5.616
12669WAT     H239590   1.183   2.812   5.682
12670WAT      O39591   1.283   2.954   6.090
12670WAT     H139592   1.320   2.875   6.049
12670WAT     H239593   1.347   3.023   6.072
12671WAT      O39594   1.187   2.898   5.321
12671WAT     H139595   1.215   2.988   5.308
12671WAT     H239596   1.168   2.891   5.415
12672WAT      O39597   0.827   2.200   5.450
12672WAT     H139598   0.869   2.181   5.366
12672WAT     H239599   0.796   2.115   5.482
12673WAT      O39600   1.177   2.691   5.820
12673WAT     H139601   1.139   2.615   5.777
12673WAT     H239602   1.104   2.730   5.869
12674WAT      O39603   1.104   2.514   6.150
12674WAT     H139604   1.157   2.464   6.087
12674WAT     H239605   1.163   2.527   6.225
12675WAT      O39606   1.122   2.522   6.503
12675WAT     H139607   1.027   2.519   6.514
12675WAT     H239608   1.140   2.613   6.479
12676WAT      O39609   1.053   2.440   5.744
12676WAT     H139610   1.103   2.416   5.823
12676WAT     H239611   1.033   2.356   5.703
12677WAT      O39612   1.196   2.303   5.998
12677WAT     H139613   1.185   2.288   6.091
12677WAT     H239614   1.272   2.250   5.973
12678WAT      O39615   1.285   2.086   5.322
12678WAT     H139616   1.378   2.073   5.301
12678WAT     H239617   1.283   2.094   5.417
12679WAT      O39618   1.292   2.163   5.584
12679WAT     H139619   1.213   2.157   5.637
12679WAT     H239620   1.313   2.257   5.583
12680WAT      O39621   0.987   3.567   5.984
12680WAT     H139622   1.046   3.535   5.916
12680WAT     H239623   1.012   3.520   6.063
12681WAT      O39624   0.706   1.834   6.531
12681WAT     H139625   0.618   1.868   6.511
12681WAT     H239626   0.695   1.787   6.613
12682WAT      O39627   1.042   3.632   6.367
12682WAT     H139628   0.996   3.707   6.329
12682WAT     H239629   0.979   3.560   6.361
12683WAT      O39630   0.359   3.552   6.367
12683WAT     H139631   0.387   3.527   6.279
12683WAT     H239632   0.410   3.497   6.426
12684WAT      O39633   0.480   1.926   6.425
12684WAT     H139634   0.402   1.974   6.453
12684WAT     H239635   0.451   1.836   6.414
12685WAT      O39636   0.936   1.996   6.229
12685WAT     H139637   0.980   1.991   6.144
12685WAT     H239638   0.909   2.088   6.236
12686WAT      O39639   1.122   1.959   6.030
12686WAT     H139640   1.116   1.865   6.016
12686WAT     H239641   1.200   1.970   6.085
12687WAT      O39642   0.269   2.168   5.976
12687WAT     H139643   0.188   2.131   5.942
12687WAT     H239644   0.319   2.092   6.006
12688WAT      O39645   0.719   1.834   6.100
12688WAT     H139646   0.780   1.892   6.147
12688WAT     H239647   0.645   1.891   6.077
12689WAT      O39648   1.034   1.875   5.627
12689WAT     H139649   1.053   1.964   5.654
12689WAT     H239650   0.955   1.851   5.676
12690WAT      O39651   1.189   3.599   5.803
12690WAT     H139652   1.206   3.530   5.739
12690WAT     H239653   1.119   3.651   5.764
12691WAT      O39654   0.635   2.654   4.174
12691WAT     H139655   0.627   2.563   4.147
12691WAT     H239656   0.593   2.704   4.103
12692WAT      O39657   0.448   2.832   4.362
12692WAT     H139658   0.370   2.784   4.391
12692WAT     H239659   0.513   2.764   4.345
12693WAT      O39660   0.850   3.273   4.240
12693WAT     H139661   0.804   3.196   4.273
12693WAT     H239662   0.931   3.275   4.291
12694WAT      O39663   0.473   3.501   4.202
12694WAT     H139664   0.411   3.547   4.145
12694WAT     H239665   0.558   3.517   4.162
12695WAT      O39666   0.392   3.100   4.363
12695WAT     H139667   0.385   3.006   4.347
12695WAT     H239668   0.468   3.109   4.420
12696WAT      O39669   0.495   2.380   4.386
12696WAT     H139670   0.533   2.293   4.374
12696WAT     H239671   0.485   2.414   4.296
12697WAT      O39672   0.873   2.130   4.079
12697WAT     H139673   0.955   2.081   4.083
12697WAT     H239674   0.877   2.189   4.154
12698WAT      O39675   1.302   2.332   4.735
12698WAT     H139676   1.232   2.370   4.683
12698WAT     H239677   1.329   2.401   4.795
12699WAT      O39678   0.559   2.990   3.941
12699WAT     H139679   0.497   3.036   3.885
12699WAT     H239680   0.611   3.059   3.983
12700WAT      O39681   0.897   2.324   4.356
12700WAT     H139682   0.827   2.353   4.414
12700WAT     H239683   0.933   2.405   4.320
12701WAT      O39684   1.059   3.286   4.582
12701WAT     H139685   0.990   3.353   4.582
12701WAT     H239686   1.113   3.305   4.506
12702WAT      O39687   1.204   2.268   4.395
12702WAT     H139688   1.109   2.272   4.408
12702WAT     H239689   1.236   2.350   4.434
12703WAT      O39690   0.812   3.470   4.454
12703WAT     H139691   0.813   3.430   4.367
12703WAT     H239692   0.757   3.548   4.443
12704WAT      O39693   0.942   3.142   3.963
12704WAT     H139694   0.931   3.048   3.975
12704WAT     H239695   0.941   3.178   4.051
12705WAT      O39696   0.752   2.960   4.587
12705WAT     H139697   0.794   2.939   4.503
12705WAT     H239698   0.824   2.986   4.644
12706WAT      O39699   0.496   2.705   3.898
12706WAT     H139700   0.403   2.698   3.921
12706WAT     H239701   0.511   2.799   3.887
12707WAT      O39702   0.495   2.332   3.598
12707WAT     H139703   0.401   2.348   3.607
12707WAT     H239704   0.526   2.404   3.543
12708WAT      O39705   1.147   2.800   4.596
12708WAT     H139706   1.064   2.807   4.548
12708WAT     H239707   1.206   2.859   4.549
12709WAT      O39708   0.899   2.861   3.949
12709WAT     H139709   0.837   2.827   3.884
12709WAT     H239710   0.897   2.797   4.019
12710WAT      O39711   0.843   2.479   4.690
12710WAT     H139712   0.802   2.561   4.716
12710WAT     H239713   0.770   2.420   4.671
12711WAT      O39714   0.912   3.484   4.759
12711WAT     H139715   0.864   3.564   4.740
12711WAT     H239716   0.844   3.418   4.774
12712WAT      O39717   0.716   2.785   3.649
12712WAT     H139718   0.760   2.701   3.635
12712WAT     H239719   0.788   2.848   3.658
12713WAT      O39720   0.527   3.279   4.046
12713WAT     H139721   0.571   3.353   4.005
12713WAT     H239722   0.521   3.303   4.139
12714WAT      O39723   1.075   1.910   3.481
12714WAT     H139724   1.043   1.920   3.571
12714WAT     H239725   1.151   1.968   3.476
12715WAT      O39726   1.270   3.460   5.266
12715WAT     H139727   1.318   3.507   5.334
12715WAT     H239728   1.332   3.453   5.194
12716WAT      O39729   1.210   3.179   4.982
12716WAT     H139730   1.223   3.155   4.890
12716WAT     H239731   1.215   3.096   5.029
12717WAT      O39732   0.597   3.549   4.839
12717WAT     H139733   0.648   3.540   4.919
12717WAT     H239734   0.512   3.584   4.868
12718WAT      O39735   0.794   3.578   3.782
12718WAT     H139736   0.778   3.549   3.872
12718WAT     H239737   0.778   3.500   3.728
12719WAT      O39738   0.764   3.328   3.638
12719WAT     H139739   0.695   3.328   3.572
12719WAT     H239740   0.839   3.286   3.595
12720WAT      O39741   0.721   3.491   4.045
12720WAT     H139742   0.766   3.413   4.077
12720WAT     H239743   0.755   3.562   4.100
12721WAT      O39744   1.196   2.384   5.079
12721WAT     H139745   1.134   2.435   5.026
12721WAT     H239746   1.164   2.294   5.073
12722WAT      O39747   0.402   2.268   4.825
12722WAT     H139748   0.356   2.289   4.906
12722WAT     H239749   0.362   2.187   4.795
12723WAT      O39750   0.902   2.390   4.938
12723WAT     H139751   0.817   2.360   4.970
12723WAT     H239752   0.886   2.415   4.847
12724WAT      O39753   0.611   2.540   5.148
12724WAT     H139754   0.644   2.457   5.114
12724WAT     H239755   0.690   2.592   5.163
12725WAT      O39756   0.285   1.943   3.753
12725WAT     H139757   0.222   1.943   3.825
12725WAT     H239758   0.276   1.857   3.713
12726WAT      O39759   0.177   2.036   4.451
12726WAT     H139760   0.207   2.126   4.443
12726WAT     H239761   0.232   1.987   4.389
12727WAT      O39762   0.675   2.494   3.898
12727WAT     H139763   0.615   2.567   3.879
12727WAT     H239764   0.730   2.488   3.819
12728WAT      O39765   0.196   2.584   5.104
12728WAT     H139766   0.187   2.489   5.089
12728WAT     H239767   0.281   2.606   5.065
12729WAT      O39768   0.536   2.358   4.101
12729WAT     H139769   0.575   2.390   4.019
12729WAT     H239770   0.572   2.270   4.112
12730WAT      O39771   0.367   2.233   5.227
12730WAT     H139772   0.298   2.214   5.290
12730WAT     H239773   0.441   2.261   5.280
12731WAT      O39774   0.594   2.617   4.510
12731WAT     H139775   0.521   2.668   4.545
12731WAT     H239776   0.555   2.535   4.480
12732WAT      O39777   0.238   2.285   4.351
12732WAT     H139778   0.239   2.240   4.266
12732WAT     H239779   0.328   2.317   4.361
12733WAT      O39780   0.244   2.385   3.650
12733WAT     H139781   0.256   2.381   3.745
12733WAT     H239782   0.206   2.471   3.634
12734WAT      O39783   0.641   2.162   4.451
12734WAT     H139784   0.642   2.207   4.536
12734WAT     H239785   0.616   2.072   4.473
12735WAT      O39786   0.983   1.904   5.035
12735WAT     H139787   1.016   1.831   5.088
12735WAT     H239788   0.987   1.872   4.945
12736WAT      O39789   0.268   2.691   4.525
12736WAT     H139790   0.305   2.643   4.600
12736WAT     H239791   0.249   2.778   4.559
12737WAT      O39792   0.976   2.915   4.396
12737WAT     H139793   1.048   2.964   4.357
12737WAT     H239794   0.956   2.847   4.332
12738WAT      O39795   0.522   2.054   3.810
12738WAT     H139796   0.441   2.004   3.803
12738WAT     H239797   0.503   2.138   3.769
12739WAT      O39798   0.514   2.922   4.985
12739WAT     H139799   0.507   2.830   4.959
12739WAT     H239800   0.451   2.932   5.056
12740WAT      O39801   0.794   2.491   3.640
12740WAT     H139802   0.882   2.523   3.622
12740WAT     H239803   0.791   2.404   3.601
12741WAT      O39804   0.393   3.109   3.708
12741WAT     H139805   0.427   3.183   3.658
12741WAT     H239806   0.310   3.140   3.744
12742WAT      O39807   0.507   3.204   4.960
12742WAT     H139808   0.509   3.111   4.938
12742WAT     H239809   0.437   3.213   5.024
12743WAT      O39810   1.021   2.623   3.587
12743WAT     H139811   1.012   2.666   3.502
12743WAT     H239812   1.093   2.669   3.630
12744WAT      O39813   1.128   2.868   4.894
12744WAT     H139814   1.056   2.928   4.875
12744WAT     H239815   1.181   2.867   4.815
12745WAT      O39816   1.124   3.308   3.860
12745WAT     H139817   1.059   3.243   3.887
12745WAT     H239818   1.085   3.349   3.782
12746WAT      O39819   0.681   3.041   4.244
12746WAT     H139820   0.717   2.981   4.178
12746WAT     H239821   0.593   3.008   4.261
12747WAT      O39822   0.290   3.117   3.985
12747WAT     H139823   0.359   3.172   4.023
12747WAT     H239824   0.211   3.171   3.989
12748WAT      O39825   0.220   2.817   3.946
12748WAT     H139826   0.266   2.898   3.969
12748WAT     H239827   0.185   2.786   4.029
12749WAT      O39828   0.451   3.368   4.669
12749WAT     H139829   0.515   3.389   4.737
12749WAT     H239830   0.487   3.292   4.624
12750WAT      O39831   0.578   3.169   4.541
12750WAT     H139832   0.642   3.099   4.552
12750WAT     H239833   0.630   3.247   4.523
12751WAT      O39834   0.963   3.197   3.513
12751WAT     H139835   0.940   3.125   3.573
12751WAT     H239836   0.923   3.172   3.430
12752WAT      O39837   0.755   3.249   4.861
12752WAT     H139838   0.789   3.307   4.929
12752WAT     H239839   0.663   3.236   4.884
12753WAT      O39840   0.921   2.989   3.679
12753WAT     H139841   0.892   3.035   3.758
12753WAT     H239842   1.000   2.943   3.706
12754WAT      O39843   0.338   3.254   5.178
12754WAT     H139844   0.306   3.182   5.233
12754WAT     H239845   0.271   3.321   5.186
12755WAT      O39846   0.660   2.277   4.715
12755WAT     H139847   0.697   2.195   4.747
12755WAT     H239848   0.574   2.283   4.756
12756WAT      O39849   0.996   2.172   3.795
12756WAT     H139850   0.934   2.183   3.724
12756WAT     H239851   0.947   2.194   3.874
12757WAT      O39852   0.441   3.344   3.539
12757WAT     H139853   0.451   3.324   3.446
12757WAT     H239854   0.351   3.319   3.559
12758WAT      O39855   0.356   2.542   4.737
12758WAT     H139856   0.406   2.590   4.803
12758WAT     H239857   0.370   2.450   4.758
12759WAT      O39858   0.596   2.073   4.081
12759WAT     H139859   0.584   2.075   3.986
12759WAT     H239860   0.691   2.078   4.093
12760WAT      O39861   0.305   3.596   4.008
12760WAT     H139862   0.331   3.593   3.916
12760WAT     H239863   0.210   3.584   4.008
12761WAT      O39864   1.076   2.164   4.821
12761WAT     H139865   1.026   2.238   4.855
12761WAT     H239866   1.158   2.203   4.790
12762WAT      O39867   0.906   2.688   4.166
12762WAT     H139868   0.812   2.690   4.183
12762WAT     H239869   0.937   2.610   4.210
12763WAT      O39870   1.106   3.405   4.333
12763WAT     H139871   1.118   3.488   4.381
12763WAT     H239872   1.193   3.384   4.299
12764WAT      O39873   0.637   3.144   5.214
12764WAT     H139874   0.577   3.146   5.140
12764WAT     H239875   0.607   3.071   5.268
12765WAT      O39876   0.780   3.517   5.075
12765WAT     H139877   0.876   3.508   5.070
12765WAT     H239878   0.766   3.583   5.143
12766WAT      O39879   1.069   3.455   3.625
12766WAT     H139880   1.041   3.413   3.544
12766WAT     H239881   1.050   3.547   3.613
12767WAT      O39882   0.216   3.054   3.469
12767WAT     H139883   0.205   2.992   3.542
12767WAT     H239884   0.199   3.002   3.391
12768WAT      O39885   0.540   2.960   3.530
12768WAT     H139886   0.485   3.005   3.594
12768WAT     H239887   0.602   2.910   3.582
12769WAT      O39888   0.945   3.096   5.123
12769WAT     H139889   1.019   3.129   5.073
12769WAT     H239890   0.869   3.112   5.068
12770WAT      O39891   0.358   2.758   3.444
12770WAT     H139892   0.410   2.687   3.407
12770WAT     H239893   0.423   2.822   3.474
12771WAT      O39894   0.813   2.901   4.976
12771WAT     H139895   0.854   2.916   5.061
12771WAT     H239896   0.719   2.913   4.993
12772WAT      O39897   0.860   2.635   5.177
12772WAT     H139898   0.918   2.559   5.168
12772WAT     H239899   0.878   2.688   5.099
12773WAT      O39900   0.248   2.006   4.711
12773WAT     H139901   0.203   2.009   4.627
12773WAT     H239902   0.185   1.967   4.771
12774WAT      O39903   0.289   2.896   4.773
12774WAT     H139904   0.331   2.980   4.756
12774WAT     H239905   0.197   2.910   4.750
12775WAT      O39906   0.523   2.669   4.912
12775WAT     H139907   0.534   2.609   4.986
12775WAT     H239908   0.608   2.673   4.870
12776WAT      O39909   0.756   2.724   4.769
12776WAT     H139910   0.704   2.777   4.709
12776WAT     H239911   0.791   2.788   4.832
12777WAT      O39912   0.681   2.285   5.061
12777WAT     H139913   0.612   2.219   5.054
12777WAT     H239914   0.753   2.240   5.105
12778WAT      O39915   0.744   1.944   3.667
12778WAT     H139916   0.772   1.860   3.702
12778WAT     H239917   0.667   1.968   3.718
12779WAT      O39918   0.360   3.650   4.911
12779WAT     H139919   0.352   3.740   4.942
12779WAT     H239920   0.269   3.618   4.908
12780WAT      O39921   0.414   3.567   3.673
12780WAT     H139922   0.504   3.600   3.675
12780WAT     H239923   0.418   3.494   3.610
12781WAT      O39924   1.112   3.420   4.944
12781WAT     H139925   1.052   3.426   4.869
12781WAT     H239926   1.125   3.326   4.957
12782WAT      O39927   1.236   3.194   3.477
12782WAT     H139928   1.153   3.201   3.525
12782WAT     H239929   1.254   3.283   3.447
12783WAT      O39930   1.182   2.868   3.728
12783WAT     H139931   1.258   2.925   3.738
12783WAT     H239932   1.183   2.812   3.805
12784WAT      O39933   1.283   2.954   4.212
12784WAT     H139934   1.320   2.875   4.172
12784WAT     H239935   1.347   3.023   4.194
12785WAT      O39936   0.981   3.092   4.754
12785WAT     H139937   0.899   3.135   4.780
12785WAT     H239938   1.022   3.153   4.692
12786WAT      O39939   1.187   2.898   3.444
12786WAT     H139940   1.215   2.988   3.431
12786WAT     H239941   1.168   2.891   3.537
12787WAT      O39942   0.827   2.200   3.573
12787WAT     H139943   0.869   2.181   3.489
12787WAT     H239944   0.796   2.115   3.604
12788WAT      O39945   1.177   2.691   3.943
12788WAT     H139946   1.139   2.615   3.900
12788WAT     H239947   1.104   2.730   3.992
12789WAT      O39948   1.116   2.606   4.906
12789WAT     H139949   1.093   2.583   4.816
12789WAT     H239950   1.142   2.698   4.902
12790WAT      O39951   0.960   2.129   5.184
12790WAT     H139952   1.047   2.129   5.222
12790WAT     H239953   0.961   2.055   5.123
12791WAT      O39954   1.104   2.514   4.273
12791WAT     H139955   1.157   2.464   4.210
12791WAT     H239956   1.163   2.527   4.347
12792WAT      O39957   1.122   2.522   4.625
12792WAT     H139958   1.027   2.519   4.637
12792WAT     H239959   1.140   2.613   4.602
12793WAT      O39960   1.053   2.440   3.867
12793WAT     H139961   1.103   2.416   3.945
12793WAT     H239962   1.033   2.356   3.825
12794WAT      O39963   1.196   2.303   4.120
12794WAT     H139964   1.185   2.288   4.214
12794WAT     H239965   1.272   2.250   4.096
12795WAT      O39966   1.031   1.897   4.766
12795WAT     H139967   1.095   1.958   4.803
12795WAT     H239968   1.046   1.901   4.672
12796WAT      O39969   1.285   2.086   3.444
12796WAT     H139970   1.378   2.073   3.423
12796WAT     H239971   1.283   2.094   3.540
12797WAT      O39972   1.292   2.163   3.707
12797WAT     H139973   1.213   2.157   3.760
12797WAT     H239974   1.313   2.257   3.706
12798WAT      O39975   0.987   3.567   4.106
12798WAT     H139976   1.046   3.535   4.039
12798WAT     H239977   1.012   3.520   4.185
12799WAT      O39978   0.368   2.012   5.057
12799WAT     H139979   0.362   2.072   5.132
12799WAT     H239980   0.462   2.002   5.042
12800WAT      O39981   0.632   1.978   5.021
12800WAT     H139982   0.693   2.010   4.955
12800WAT     H239983   0.686   1.930   5.083
12801WAT      O39984   1.273   3.568   4.761
12801WAT     H139985   1.224   3.608   4.690
12801WAT     H239986   1.213   3.506   4.801
12802WAT      O39987   0.706   1.834   4.653
12802WAT     H139988   0.618   1.868   4.633
12802WAT     H239989   0.695   1.787   4.736
12803WAT      O39990   0.796   2.055   4.792
12803WAT     H139991   0.764   1.974   4.754
12803WAT     H239992   0.891   2.051   4.779
12804WAT      O39993   1.042   3.632   4.489
12804WAT     H139994   0.996   3.707   4.452
12804WAT     H239995   0.979   3.560   4.483
12805WAT      O39996   0.359   3.552   4.489
12805WAT     H139997   0.387   3.527   4.402
12805WAT     H239998   0.410   3.497   4.548
12806WAT      O39999   0.480   1.926   4.547
12806WAT     H140000   0.402   1.974   4.575
12806WAT     H240001   0.451   1.836   4.536
12807WAT      O40002   0.936   1.996   4.352
12807WAT     H140003   0.980   1.991   4.267
12807WAT     H240004   0.909   2.088   4.359
12808WAT      O40005   1.122   1.959   4.153
12808WAT     H140006   1.116   1.865   4.138
12808WAT     H240007   1.200   1.970   4.207
12809WAT      O40008   0.269   2.168   4.098
12809WAT     H140009   0.188   2.131   4.064
12809WAT     H240010   0.319   2.092   4.129
12810WAT      O40011   0.719   1.834   4.222
12810WAT     H140012   0.780   1.892   4.270
12810WAT     H240013   0.645   1.891   4.200
12811WAT      O40014   1.034   1.875   3.750
12811WAT     H140015   1.053   1.964   3.776
12811WAT     H240016   0.955   1.851   3.799
12812WAT      O40017   0.365   3.644   5.226
12812WAT     H140018   0.458   3.621   5.230
12812WAT     H240019   0.364   3.727   5.178
12813WAT      O40020   1.189   3.599   3.926
12813WAT     H140021   1.206   3.530   3.861
12813WAT     H240022   1.119   3.651   3.887
12814WAT      O40023   0.744   1.852   5.260
12814WAT     H140024   0.733   1.884   5.350
12814WAT     H240025   0.826   1.892   5.231
12815WAT      O40026   1.022   3.567   5.208
12815WAT     H140027   1.101   3.518   5.188
12815WAT     H240028   1.052   3.635   5.269
12816WAT      O40029   0.635   2.654   2.297
12816WAT     H140030   0.627   2.563   2.270
12816WAT     H240031   0.593   2.704   2.226
12817WAT      O40032   0.448   2.832   2.485
12817WAT     H140033   0.370   2.784   2.514
12817WAT     H240034   0.513   2.764   2.467
12818WAT      O40035   0.850   3.273   2.363
12818WAT     H140036   0.804   3.196   2.396
12818WAT     H240037   0.931   3.275   2.413
12819WAT      O40038   0.473   3.501   2.325
12819WAT     H140039   0.411   3.547   2.268
12819WAT     H240040   0.558   3.517   2.285
12820WAT      O40041   0.392   3.100   2.485
12820WAT     H140042   0.385   3.006   2.469
12820WAT     H240043   0.468   3.109   2.543
12821WAT      O40044   0.495   2.380   2.508
12821WAT     H140045   0.533   2.293   2.497
12821WAT     H240046   0.485   2.414   2.419
12822WAT      O40047   0.873   2.130   2.201
12822WAT     H140048   0.955   2.081   2.206
12822WAT     H240049   0.877   2.189   2.277
12823WAT      O40050   1.302   2.332   2.858
12823WAT     H140051   1.232   2.370   2.806
12823WAT     H240052   1.329   2.401   2.918
12824WAT      O40053   0.559   2.990   2.064
12824WAT     H140054   0.497   3.036   2.008
12824WAT     H240055   0.611   3.059   2.106
12825WAT      O40056   0.897   2.324   2.479
12825WAT     H140057   0.827   2.353   2.537
12825WAT     H240058   0.933   2.405   2.443
12826WAT      O40059   1.059   3.286   2.705
12826WAT     H140060   0.990   3.353   2.704
12826WAT     H240061   1.113   3.305   2.628
12827WAT      O40062   1.204   2.268   2.518
12827WAT     H140063   1.109   2.272   2.531
12827WAT     H240064   1.236   2.350   2.556
12828WAT      O40065   0.812   3.470   2.576
12828WAT     H140066   0.813   3.430   2.490
12828WAT     H240067   0.757   3.548   2.566
12829WAT      O40068   0.942   3.142   2.085
12829WAT     H140069   0.931   3.048   2.098
12829WAT     H240070   0.941   3.178   2.174
12830WAT      O40071   0.752   2.960   2.709
12830WAT     H140072   0.794   2.939   2.626
12830WAT     H240073   0.824   2.986   2.766
12831WAT      O40074   0.496   2.705   2.021
12831WAT     H140075   0.403   2.698   2.044
12831WAT     H240076   0.511   2.799   2.009
12832WAT      O40077   0.495   2.332   1.721
12832WAT     H140078   0.401   2.348   1.729
12832WAT     H240079   0.526   2.404   1.666
12833WAT      O40080   1.147   2.800   2.718
12833WAT     H140081   1.064   2.807   2.671
12833WAT     H240082   1.206   2.859   2.672
12834WAT      O40083   0.899   2.861   2.071
12834WAT     H140084   0.837   2.827   2.007
12834WAT     H240085   0.897   2.797   2.142
12835WAT      O40086   0.843   2.479   2.813
12835WAT     H140087   0.802   2.561   2.838
12835WAT     H240088   0.770   2.420   2.794
12836WAT      O40089   0.912   3.484   2.882
12836WAT     H140090   0.864   3.564   2.862
12836WAT     H240091   0.844   3.418   2.897
12837WAT      O40092   0.716   2.785   1.772
12837WAT     H140093   0.760   2.701   1.757
12837WAT     H240094   0.788   2.848   1.781
12838WAT      O40095   0.527   3.279   2.169
12838WAT     H140096   0.571   3.353   2.127
12838WAT     H240097   0.521   3.303   2.261
12839WAT      O40098   1.075   1.910   1.603
12839WAT     H140099   1.043   1.920   1.693
12839WAT     H240100   1.151   1.968   1.598
12840WAT      O40101   1.270   3.460   3.389
12840WAT     H140102   1.318   3.507   3.457
12840WAT     H240103   1.332   3.453   3.316
12841WAT      O40104   1.210   3.179   3.105
12841WAT     H140105   1.223   3.155   3.013
12841WAT     H240106   1.215   3.096   3.152
12842WAT      O40107   0.597   3.549   2.962
12842WAT     H140108   0.648   3.540   3.042
12842WAT     H240109   0.512   3.584   2.991
12843WAT      O40110   0.794   3.578   1.904
12843WAT     H140111   0.778   3.549   1.994
12843WAT     H240112   0.778   3.500   1.851
12844WAT      O40113   0.764   3.328   1.760
12844WAT     H140114   0.695   3.328   1.694
12844WAT     H240115   0.839   3.286   1.717
12845WAT      O40116   0.721   3.491   2.168
12845WAT     H140117   0.766   3.413   2.199
12845WAT     H240118   0.755   3.562   2.222
12846WAT      O40119   1.196   2.384   3.201
12846WAT     H140120   1.134   2.435   3.148
12846WAT     H240121   1.164   2.294   3.195
12847WAT      O40122   0.402   2.268   2.948
12847WAT     H140123   0.356   2.289   3.029
12847WAT     H240124   0.362   2.187   2.917
12848WAT      O40125   0.902   2.390   3.061
12848WAT     H140126   0.817   2.360   3.093
12848WAT     H240127   0.886   2.415   2.970
12849WAT      O40128   0.611   2.540   3.271
12849WAT     H140129   0.644   2.457   3.237
12849WAT     H240130   0.690   2.592   3.285
12850WAT      O40131   0.285   1.943   1.875
12850WAT     H140132   0.222   1.943   1.948
12850WAT     H240133   0.276   1.857   1.836
12851WAT      O40134   0.177   2.036   2.573
12851WAT     H140135   0.207   2.126   2.565
12851WAT     H240136   0.232   1.987   2.512
12852WAT      O40137   0.675   2.494   2.020
12852WAT     H140138   0.615   2.567   2.002
12852WAT     H240139   0.730   2.488   1.942
12853WAT      O40140   0.196   2.584   3.227
12853WAT     H140141   0.187   2.489   3.212
12853WAT     H240142   0.281   2.606   3.187
12854WAT      O40143   0.536   2.358   2.223
12854WAT     H140144   0.575   2.390   2.142
12854WAT     H240145   0.572   2.270   2.235
12855WAT      O40146   0.367   2.233   3.349
12855WAT     H140147   0.298   2.214   3.413
12855WAT     H240148   0.441   2.261   3.402
12856WAT      O40149   0.594   2.617   2.633
12856WAT     H140150   0.521   2.668   2.668
12856WAT     H240151   0.555   2.535   2.603
12857WAT      O40152   0.238   2.285   2.473
12857WAT     H140153   0.239   2.240   2.388
12857WAT     H240154   0.328   2.317   2.484
12858WAT      O40155   0.244   2.385   1.772
12858WAT     H140156   0.256   2.381   1.867
12858WAT     H240157   0.206   2.471   1.757
12859WAT      O40158   0.641   2.162   2.574
12859WAT     H140159   0.642   2.207   2.658
12859WAT     H240160   0.616   2.072   2.595
12860WAT      O40161   0.983   1.904   3.158
12860WAT     H140162   1.016   1.831   3.210
12860WAT     H240163   0.987   1.872   3.068
12861WAT      O40164   0.268   2.691   2.648
12861WAT     H140165   0.305   2.643   2.722
12861WAT     H240166   0.249   2.778   2.682
12862WAT      O40167   0.976   2.915   2.519
12862WAT     H140168   1.048   2.964   2.480
12862WAT     H240169   0.956   2.847   2.454
12863WAT      O40170   0.522   2.054   1.933
12863WAT     H140171   0.441   2.004   1.925
12863WAT     H240172   0.503   2.138   1.891
12864WAT      O40173   0.514   2.922   3.107
12864WAT     H140174   0.507   2.830   3.082
12864WAT     H240175   0.451   2.932   3.179
12865WAT      O40176   0.794   2.491   1.763
12865WAT     H140177   0.882   2.523   1.745
12865WAT     H240178   0.791   2.404   1.723
12866WAT      O40179   0.393   3.109   1.830
12866WAT     H140180   0.427   3.183   1.781
12866WAT     H240181   0.310   3.140   1.867
12867WAT      O40182   0.507   3.204   3.082
12867WAT     H140183   0.509   3.111   3.061
12867WAT     H240184   0.437   3.213   3.146
12868WAT      O40185   1.021   2.623   1.709
12868WAT     H140186   1.012   2.666   1.624
12868WAT     H240187   1.093   2.669   1.753
12869WAT      O40188   1.128   2.868   3.017
12869WAT     H140189   1.056   2.928   2.997
12869WAT     H240190   1.181   2.867   2.937
12870WAT      O40191   1.124   3.308   1.982
12870WAT     H140192   1.059   3.243   2.010
12870WAT     H240193   1.085   3.349   1.905
12871WAT      O40194   0.681   3.041   2.367
12871WAT     H140195   0.717   2.981   2.301
12871WAT     H240196   0.593   3.008   2.384
12872WAT      O40197   0.290   3.117   2.108
12872WAT     H140198   0.359   3.172   2.146
12872WAT     H240199   0.211   3.171   2.111
12873WAT      O40200   0.220   2.817   2.069
12873WAT     H140201   0.266   2.898   2.091
12873WAT     H240202   0.185   2.786   2.152
12874WAT      O40203   0.451   3.368   2.792
12874WAT     H140204   0.515   3.389   2.859
12874WAT     H240205   0.487   3.292   2.746
12875WAT      O40206   0.578   3.169   2.664
12875WAT     H140207   0.642   3.099   2.675
12875WAT     H240208   0.630   3.247   2.645
12876WAT      O40209   0.963   3.197   1.636
12876WAT     H140210   0.940   3.125   1.695
12876WAT     H240211   0.923   3.172   1.552
12877WAT      O40212   0.755   3.249   2.984
12877WAT     H140213   0.789   3.307   3.052
12877WAT     H240214   0.663   3.236   3.007
12878WAT      O40215   0.921   2.989   1.802
12878WAT     H140216   0.892   3.035   1.881
12878WAT     H240217   1.000   2.943   1.829
12879WAT      O40218   0.338   3.254   3.301
12879WAT     H140219   0.306   3.182   3.355
12879WAT     H240220   0.271   3.321   3.308
12880WAT      O40221   0.660   2.277   2.837
12880WAT     H140222   0.697   2.195   2.870
12880WAT     H240223   0.574   2.283   2.879
12881WAT      O40224   0.996   2.172   1.918
12881WAT     H140225   0.934   2.183   1.847
12881WAT     H240226   0.947   2.194   1.997
12882WAT      O40227   0.441   3.344   1.661
12882WAT     H140228   0.451   3.324   1.568
12882WAT     H240229   0.351   3.319   1.682
12883WAT      O40230   0.356   2.542   2.860
12883WAT     H140231   0.406   2.590   2.926
12883WAT     H240232   0.370   2.450   2.880
12884WAT      O40233   0.596   2.073   2.204
12884WAT     H140234   0.584   2.075   2.109
12884WAT     H240235   0.691   2.078   2.216
12885WAT      O40236   0.305   3.596   2.131
12885WAT     H140237   0.331   3.593   2.039
12885WAT     H240238   0.210   3.584   2.130
12886WAT      O40239   1.076   2.164   2.944
12886WAT     H140240   1.026   2.238   2.978
12886WAT     H240241   1.158   2.203   2.912
12887WAT      O40242   0.906   2.688   2.288
12887WAT     H140243   0.812   2.690   2.306
12887WAT     H240244   0.937   2.610   2.333
12888WAT      O40245   1.106   3.405   2.456
12888WAT     H140246   1.118   3.488   2.503
12888WAT     H240247   1.193   3.384   2.421
12889WAT      O40248   0.637   3.144   3.337
12889WAT     H140249   0.577   3.146   3.263
12889WAT     H240250   0.607   3.071   3.390
12890WAT      O40251   0.780   3.517   3.198
12890WAT     H140252   0.876   3.508   3.193
12890WAT     H240253   0.766   3.583   3.265
12891WAT      O40254   1.069   3.455   1.748
12891WAT     H140255   1.041   3.413   1.666
12891WAT     H240256   1.050   3.547   1.736
12892WAT      O40257   0.216   3.054   1.592
12892WAT     H140258   0.205   2.992   1.664
12892WAT     H240259   0.199   3.002   1.513
12893WAT      O40260   0.540   2.960   1.652
12893WAT     H140261   0.485   3.005   1.717
12893WAT     H240262   0.602   2.910   1.705
12894WAT      O40263   0.945   3.096   3.245
12894WAT     H140264   1.019   3.129   3.195
12894WAT     H240265   0.869   3.112   3.190
12895WAT      O40266   0.358   2.758   1.567
12895WAT     H140267   0.410   2.687   1.530
12895WAT     H240268   0.423   2.822   1.597
12896WAT      O40269   0.813   2.901   3.099
12896WAT     H140270   0.854   2.916   3.184
12896WAT     H240271   0.719   2.913   3.115
12897WAT      O40272   0.860   2.635   3.299
12897WAT     H140273   0.918   2.559   3.291
12897WAT     H240274   0.878   2.688   3.222
12898WAT      O40275   0.248   2.006   2.834
12898WAT     H140276   0.203   2.009   2.749
12898WAT     H240277   0.185   1.967   2.894
12899WAT      O40278   0.289   2.896   2.896
12899WAT     H140279   0.331   2.980   2.879
12899WAT     H240280   0.197   2.910   2.873
12900WAT      O40281   0.523   2.669   3.034
12900WAT     H140282   0.534   2.609   3.108
12900WAT     H240283   0.608   2.673   2.992
12901WAT      O40284   0.756   2.724   2.892
12901WAT     H140285   0.704   2.777   2.832
12901WAT     H240286   0.791   2.788   2.955
12902WAT      O40287   0.681   2.285   3.183
12902WAT     H140288   0.612   2.219   3.177
12902WAT     H240289   0.753   2.240   3.228
12903WAT      O40290   0.744   1.944   1.789
12903WAT     H140291   0.772   1.860   1.825
12903WAT     H240292   0.667   1.968   1.841
12904WAT      O40293   0.360   3.650   3.033
12904WAT     H140294   0.352   3.740   3.064
12904WAT     H240295   0.269   3.618   3.031
12905WAT      O40296   0.414   3.567   1.796
12905WAT     H140297   0.504   3.600   1.798
12905WAT     H240298   0.418   3.494   1.733
12906WAT      O40299   1.112   3.420   3.066
12906WAT     H140300   1.052   3.426   2.992
12906WAT     H240301   1.125   3.326   3.079
12907WAT      O40302   1.236   3.194   1.600
12907WAT     H140303   1.153   3.201   1.647
12907WAT     H240304   1.254   3.283   1.570
12908WAT      O40305   1.182   2.868   1.850
12908WAT     H140306   1.258   2.925   1.861
12908WAT     H240307   1.183   2.812   1.927
12909WAT      O40308   1.283   2.954   2.335
12909WAT     H140309   1.320   2.875   2.294
12909WAT     H240310   1.347   3.023   2.317
12910WAT      O40311   0.981   3.092   2.876
12910WAT     H140312   0.899   3.135   2.902
12910WAT     H240313   1.022   3.153   2.815
12911WAT      O40314   1.187   2.898   1.566
12911WAT     H140315   1.215   2.988   1.553
12911WAT     H240316   1.168   2.891   1.660
12912WAT      O40317   0.827   2.200   1.696
12912WAT     H140318   0.869   2.181   1.612
12912WAT     H240319   0.796   2.115   1.727
12913WAT      O40320   1.177   2.691   2.065
12913WAT     H140321   1.139   2.615   2.022
12913WAT     H240322   1.104   2.730   2.114
12914WAT      O40323   1.116   2.606   3.029
12914WAT     H140324   1.093   2.583   2.939
12914WAT     H240325   1.142   2.698   3.024
12915WAT      O40326   0.960   2.129   3.307
12915WAT     H140327   1.047   2.129   3.345
12915WAT     H240328   0.961   2.055   3.246
12916WAT      O40329   1.104   2.514   2.395
12916WAT     H140330   1.157   2.464   2.332
12916WAT     H240331   1.163   2.527   2.470
12917WAT      O40332   1.122   2.522   2.748
12917WAT     H140333   1.027   2.519   2.759
12917WAT     H240334   1.140   2.613   2.724
12918WAT      O40335   1.053   2.440   1.989
12918WAT     H140336   1.103   2.416   2.068
12918WAT     H240337   1.033   2.356   1.948
12919WAT      O40338   1.196   2.303   2.243
12919WAT     H140339   1.185   2.288   2.337
12919WAT     H240340   1.272   2.250   2.219
12920WAT      O40341   1.031   1.897   2.889
12920WAT     H140342   1.095   1.958   2.925
12920WAT     H240343   1.046   1.901   2.794
12921WAT      O40344   1.285   2.086   1.567
12921WAT     H140345   1.378   2.073   1.546
12921WAT     H240346   1.283   2.094   1.662
12922WAT      O40347   1.292   2.163   1.829
12922WAT     H140348   1.213   2.157   1.882
12922WAT     H240349   1.313   2.257   1.828
12923WAT      O40350   0.987   3.567   2.229
12923WAT     H140351   1.046   3.535   2.161
12923WAT     H240352   1.012   3.520   2.308
12924WAT      O40353   0.368   2.012   3.179
12924WAT     H140354   0.362   2.072   3.254
12924WAT     H240355   0.462   2.002   3.165
12925WAT      O40356   0.632   1.978   3.143
12925WAT     H140357   0.693   2.010   3.077
12925WAT     H240358   0.686   1.930   3.205
12926WAT      O40359   1.273   3.568   2.884
12926WAT     H140360   1.224   3.608   2.812
12926WAT     H240361   1.213   3.506   2.923
12927WAT      O40362   0.706   1.834   2.776
12927WAT     H140363   0.618   1.868   2.756
12927WAT     H240364   0.695   1.787   2.858
12928WAT      O40365   0.796   2.055   2.914
12928WAT     H140366   0.764   1.974   2.876
12928WAT     H240367   0.891   2.051   2.902
12929WAT      O40368   1.042   3.632   2.612
12929WAT     H140369   0.996   3.707   2.574
12929WAT     H240370   0.979   3.560   2.606
12930WAT      O40371   0.359   3.552   2.612
12930WAT     H140372   0.387   3.527   2.524
12930WAT     H240373   0.410   3.497   2.671
12931WAT      O40374   0.480   1.926   2.670
12931WAT     H140375   0.402   1.974   2.698
12931WAT     H240376   0.451   1.836   2.659
12932WAT      O40377   0.936   1.996   2.474
12932WAT     H140378   0.980   1.991   2.390
12932WAT     H240379   0.909   2.088   2.481
12933WAT      O40380   1.122   1.959   2.275
12933WAT     H140381   1.116   1.865   2.261
12933WAT     H240382   1.200   1.970   2.330
12934WAT      O40383   0.269   2.168   2.221
12934WAT     H140384   0.188   2.131   2.187
12934WAT     H240385   0.319   2.092   2.251
12935WAT      O40386   0.719   1.834   2.345
12935WAT     H140387   0.780   1.892   2.392
12935WAT     H240388   0.645   1.891   2.323
12936WAT      O40389   1.034   1.875   1.872
12936WAT     H140390   1.053   1.964   1.899
12936WAT     H240391   0.955   1.851   1.922
12937WAT      O40392   0.365   3.644   3.349
12937WAT     H140393   0.458   3.621   3.353
12937WAT     H240394   0.364   3.727   3.300
12938WAT      O40395   1.189   3.599   2.048
12938WAT     H140396   1.206   3.530   1.984
12938WAT     H240397   1.119   3.651   2.009
12939WAT      O40398   0.744   1.852   3.383
12939WAT     H140399   0.733   1.884   3.472
12939WAT     H240400   0.826   1.892   3.353
12940WAT      O40401   1.022   3.567   3.331
12940WAT     H140402   1.101   3.518   3.310
12940WAT     H240403   1.052   3.635   3.392
12941WAT      O40404   0.635   2.654   0.419
12941WAT     H140405   0.627   2.563   0.392
12941WAT     H240406   0.593   2.704   0.349
12942WAT      O40407   0.448   2.832   0.607
12942WAT     H140408   0.370   2.784   0.636
12942WAT     H240409   0.513   2.764   0.590
12943WAT      O40410   0.850   3.273   0.485
12943WAT     H140411   0.804   3.196   0.518
12943WAT     H240412   0.931   3.275   0.536
12944WAT      O40413   0.473   3.501   0.447
12944WAT     H140414   0.411   3.547   0.390
12944WAT     H240415   0.558   3.517   0.407
12945WAT      O40416   0.392   3.100   0.608
12945WAT     H140417   0.385   3.006   0.592
12945WAT     H240418   0.468   3.109   0.665
12946WAT      O40419   0.495   2.380   0.631
12946WAT     H140420   0.533   2.293   0.619
12946WAT     H240421   0.485   2.414   0.542
12947WAT      O40422   0.873   2.130   0.324
12947WAT     H140423   0.955   2.081   0.328
12947WAT     H240424   0.877   2.189   0.399
12948WAT      O40425   1.302   2.332   0.980
12948WAT     H140426   1.232   2.370   0.929
12948WAT     H240427   1.329   2.401   1.041
12949WAT      O40428   0.897   2.324   0.601
12949WAT     H140429   0.827   2.353   0.659
12949WAT     H240430   0.933   2.405   0.565
12950WAT      O40431   1.059   3.286   0.827
12950WAT     H140432   0.990   3.353   0.827
12950WAT     H240433   1.113   3.305   0.751
12951WAT      O40434   1.204   2.268   0.640
12951WAT     H140435   1.109   2.272   0.653
12951WAT     H240436   1.236   2.350   0.679
12952WAT      O40437   0.812   3.470   0.699
12952WAT     H140438   0.813   3.430   0.612
12952WAT     H240439   0.757   3.548   0.689
12953WAT      O40440   0.942   3.142   0.208
12953WAT     H140441   0.931   3.048   0.220
12953WAT     H240442   0.941   3.178   0.296
12954WAT      O40443   0.752   2.960   0.832
12954WAT     H140444   0.794   2.939   0.748
12954WAT     H240445   0.824   2.986   0.889
12955WAT      O40446   1.147   2.800   0.841
12955WAT     H140447   1.064   2.807   0.793
12955WAT     H240448   1.206   2.859   0.794
12956WAT      O40449   0.843   2.479   0.935
12956WAT     H140450   0.802   2.561   0.961
12956WAT     H240451   0.770   2.420   0.916
12957WAT      O40452   0.912   3.484   1.004
12957WAT     H140453   0.864   3.564   0.985
12957WAT     H240454   0.844   3.418   1.020
12958WAT      O40455   0.527   3.279   0.291
12958WAT     H140456   0.571   3.353   0.250
12958WAT     H240457   0.521   3.303   0.384
12959WAT      O40458   1.270   3.460   1.511
12959WAT     H140459   1.318   3.507   1.579
12959WAT     H240460   1.332   3.453   1.439
12960WAT      O40461   1.210   3.179   1.227
12960WAT     H140462   1.223   3.155   1.135
12960WAT     H240463   1.215   3.096   1.274
12961WAT      O40464   0.597   3.549   1.084
12961WAT     H140465   0.648   3.540   1.164
12961WAT     H240466   0.512   3.584   1.113
12962WAT      O40467   0.721   3.491   0.290
12962WAT     H140468   0.766   3.413   0.322
12962WAT     H240469   0.755   3.562   0.345
12963WAT      O40470   1.196   2.384   1.324
12963WAT     H140471   1.134   2.435   1.271
12963WAT     H240472   1.164   2.294   1.318
12964WAT      O40473   0.402   2.268   1.070
12964WAT     H140474   0.356   2.289   1.152
12964WAT     H240475   0.362   2.187   1.040
12965WAT      O40476   0.902   2.390   1.183
12965WAT     H140477   0.817   2.360   1.215
12965WAT     H240478   0.886   2.415   1.092
12966WAT      O40479   0.611   2.540   1.393
12966WAT     H140480   0.644   2.457   1.359
12966WAT     H240481   0.690   2.592   1.408
12967WAT      O40482   0.177   2.036   0.696
12967WAT     H140483   0.207   2.126   0.688
12967WAT     H240484   0.232   1.987   0.634
12968WAT      O40485   0.196   2.584   1.349
12968WAT     H140486   0.187   2.489   1.334
12968WAT     H240487   0.281   2.606   1.310
12969WAT      O40488   0.536   2.358   0.346
12969WAT     H140489   0.575   2.390   0.264
12969WAT     H240490   0.572   2.270   0.357
12970WAT      O40491   0.367   2.233   1.472
12970WAT     H140492   0.298   2.214   1.535
12970WAT     H240493   0.441   2.261   1.525
12971WAT      O40494   0.594   2.617   0.755
12971WAT     H140495   0.521   2.668   0.790
12971WAT     H240496   0.555   2.535   0.725
12972WAT      O40497   0.238   2.285   0.596
12972WAT     H140498   0.239   2.240   0.511
12972WAT     H240499   0.328   2.317   0.606
12973WAT      O40500   0.641   2.162   0.696
12973WAT     H140501   0.642   2.207   0.781
12973WAT     H240502   0.616   2.072   0.718
12974WAT      O40503   0.983   1.904   1.280
12974WAT     H140504   1.016   1.831   1.333
12974WAT     H240505   0.987   1.872   1.190
12975WAT      O40506   0.268   2.691   0.770
12975WAT     H140507   0.305   2.643   0.845
12975WAT     H240508   0.249   2.778   0.804
12976WAT      O40509   0.976   2.915   0.641
12976WAT     H140510   1.048   2.964   0.602
12976WAT     H240511   0.956   2.847   0.577
12977WAT      O40512   0.514   2.922   1.230
12977WAT     H140513   0.507   2.830   1.204
12977WAT     H240514   0.451   2.932   1.301
12978WAT      O40515   0.507   3.204   1.205
12978WAT     H140516   0.509   3.111   1.183
12978WAT     H240517   0.437   3.213   1.269
12979WAT      O40518   1.128   2.868   1.140
12979WAT     H140519   1.056   2.928   1.120
12979WAT     H240520   1.181   2.867   1.060
12980WAT      O40521   0.681   3.041   0.489
12980WAT     H140522   0.717   2.981   0.423
12980WAT     H240523   0.593   3.008   0.507
12981WAT      O40524   0.290   3.117   0.230
12981WAT     H140525   0.359   3.172   0.268
12981WAT     H240526   0.211   3.171   0.234
12982WAT      O40527   0.220   2.817   0.191
12982WAT     H140528   0.266   2.898   0.214
12982WAT     H240529   0.185   2.786   0.275
12983WAT      O40530   0.451   3.368   0.914
12983WAT     H140531   0.515   3.389   0.982
12983WAT     H240532   0.487   3.292   0.869
12984WAT      O40533   0.578   3.169   0.786
12984WAT     H140534   0.642   3.099   0.797
12984WAT     H240535   0.630   3.247   0.768
12985WAT      O40536   0.755   3.249   1.106
12985WAT     H140537   0.789   3.307   1.174
12985WAT     H240538   0.663   3.236   1.129
12986WAT      O40539   0.338   3.254   1.423
12986WAT     H140540   0.306   3.182   1.478
12986WAT     H240541   0.271   3.321   1.431
12987WAT      O40542   0.660   2.277   0.960
12987WAT     H140543   0.697   2.195   0.992
12987WAT     H240544   0.574   2.283   1.001
12988WAT      O40545   0.356   2.542   0.982
12988WAT     H140546   0.406   2.590   1.049
12988WAT     H240547   0.370   2.450   1.003
12989WAT      O40548   0.596   2.073   0.326
12989WAT     H140549   0.584   2.075   0.231
12989WAT     H240550   0.691   2.078   0.338
12990WAT      O40551   0.305   3.596   0.253
12990WAT     H140552   0.331   3.593   0.161
12990WAT     H240553   0.210   3.584   0.253
12991WAT      O40554   1.076   2.164   1.066
12991WAT     H140555   1.026   2.238   1.100
12991WAT     H240556   1.158   2.203   1.035
12992WAT      O40557   0.906   2.688   0.411
12992WAT     H140558   0.812   2.690   0.428
12992WAT     H240559   0.937   2.610   0.456
12993WAT      O40560   1.106   3.405   0.579
12993WAT     H140561   1.118   3.488   0.626
12993WAT     H240562   1.193   3.384   0.544
12994WAT      O40563   0.637   3.144   1.459
12994WAT     H140564   0.577   3.146   1.385
12994WAT     H240565   0.607   3.071   1.513
12995WAT      O40566   0.780   3.517   1.320
12995WAT     H140567   0.876   3.508   1.315
12995WAT     H240568   0.766   3.583   1.388
12996WAT      O40569   0.945   3.096   1.368
12996WAT     H140570   1.019   3.129   1.318
12996WAT     H240571   0.869   3.112   1.313
12997WAT      O40572   0.813   2.901   1.222
12997WAT     H140573   0.854   2.916   1.306
12997WAT     H240574   0.719   2.913   1.238
12998WAT      O40575   0.860   2.635   1.422
12998WAT     H140576   0.918   2.559   1.413
12998WAT     H240577   0.878   2.688   1.344
12999WAT      O40578   0.248   2.006   0.956
12999WAT     H140579   0.203   2.009   0.872
12999WAT     H240580   0.185   1.967   1.016
13000WAT      O40581   0.289   2.896   1.019
13000WAT     H140582   0.331   2.980   1.001
13000WAT     H240583   0.197   2.910   0.996
13001WAT      O40584   0.523   2.669   1.157
13001WAT     H140585   0.534   2.609   1.231
13001WAT     H240586   0.608   2.673   1.115
13002WAT      O40587   0.756   2.724   1.015
13002WAT     H140588   0.704   2.777   0.954
13002WAT     H240589   0.791   2.788   1.078
13003WAT      O40590   0.681   2.285   1.306
13003WAT     H140591   0.612   2.219   1.299
13003WAT     H240592   0.753   2.240   1.350
13004WAT      O40593   0.360   3.650   1.156
13004WAT     H140594   0.352   3.740   1.187
13004WAT     H240595   0.269   3.618   1.153
13005WAT      O40596   1.112   3.420   1.189
13005WAT     H140597   1.052   3.426   1.115
13005WAT     H240598   1.125   3.326   1.202
13006WAT      O40599   1.283   2.954   0.457
13006WAT     H140600   1.320   2.875   0.417
13006WAT     H240601   1.347   3.023   0.440
13007WAT      O40602   0.981   3.092   0.999
13007WAT     H140603   0.899   3.135   1.025
13007WAT     H240604   1.022   3.153   0.937
13008WAT      O40605   1.177   2.691   0.188
13008WAT     H140606   1.139   2.615   0.145
13008WAT     H240607   1.104   2.730   0.237
13009WAT      O40608   1.116   2.606   1.151
13009WAT     H140609   1.093   2.583   1.061
13009WAT     H240610   1.142   2.698   1.147
13010WAT      O40611   0.960   2.129   1.429
13010WAT     H140612   1.047   2.129   1.467
13010WAT     H240613   0.961   2.055   1.368
13011WAT      O40614   1.104   2.514   0.518
13011WAT     H140615   1.157   2.464   0.455
13011WAT     H240616   1.163   2.527   0.592
13012WAT      O40617   1.122   2.522   0.870
13012WAT     H140618   1.027   2.519   0.882
13012WAT     H240619   1.140   2.613   0.847
13013WAT      O40620   1.196   2.303   0.365
13013WAT     H140621   1.185   2.288   0.459
13013WAT     H240622   1.272   2.250   0.341
13014WAT      O40623   1.031   1.897   1.011
13014WAT     H140624   1.095   1.958   1.048
13014WAT     H240625   1.046   1.901   0.917
13015WAT      O40626   0.987   3.567   0.351
13015WAT     H140627   1.046   3.535   0.284
13015WAT     H240628   1.012   3.520   0.430
13016WAT      O40629   0.368   2.012   1.302
13016WAT     H140630   0.362   2.072   1.377
13016WAT     H240631   0.462   2.002   1.287
13017WAT      O40632   0.632   1.978   1.266
13017WAT     H140633   0.693   2.010   1.200
13017WAT     H240634   0.686   1.930   1.328
13018WAT      O40635   1.273   3.568   1.006
13018WAT     H140636   1.224   3.608   0.935
13018WAT     H240637   1.213   3.506   1.046
13019WAT      O40638   0.706   1.834   0.899
13019WAT     H140639   0.618   1.868   0.878
13019WAT     H240640   0.695   1.787   0.981
13020WAT      O40641   0.796   2.055   1.037
13020WAT     H140642   0.764   1.974   0.999
13020WAT     H240643   0.891   2.051   1.025
13021WAT      O40644   1.042   3.632   0.734
13021WAT     H140645   0.996   3.707   0.697
13021WAT     H240646   0.979   3.560   0.728
13022WAT      O40647   0.359   3.552   0.734
13022WAT     H140648   0.387   3.527   0.647
13022WAT     H240649   0.410   3.497   0.794
13023WAT      O40650   0.480   1.926   0.792
13023WAT     H140651   0.402   1.974   0.820
13023WAT     H240652   0.451   1.836   0.782
13024WAT      O40653   0.936   1.996   0.597
13024WAT     H140654   0.980   1.991   0.512
13024WAT     H240655   0.909   2.088   0.604
13025WAT      O40656   1.122   1.959   0.398
13025WAT     H140657   1.116   1.865   0.383
13025WAT     H240658   1.200   1.970   0.453
13026WAT      O40659   0.269   2.168   0.344
13026WAT     H140660   0.188   2.131   0.310
13026WAT     H240661   0.319   2.092   0.374
13027WAT      O40662   0.719   1.834   0.467
13027WAT     H140663   0.780   1.892   0.515
13027WAT     H240664   0.645   1.891   0.445
13028WAT      O40665   0.365   3.644   1.471
13028WAT     H140666   0.458   3.621   1.476
13028WAT     H240667   0.364   3.727   1.423
13029WAT      O40668   0.744   1.852   1.505
13029WAT     H140669   0.733   1.884   1.595
13029WAT     H240670   0.826   1.892   1.476
13030WAT      O40671   1.022   3.567   1.454
13030WAT     H140672   1.101   3.518   1.433
13030WAT     H240673   1.052   3.635   1.514
13031WAT      O40674   0.635   0.777   6.051
13031WAT     H140675   0.627   0.685   6.024
13031WAT     H240676   0.593   0.827   5.981
13032WAT      O40677   0.448   0.955   6.240
13032WAT     H140678   0.370   0.907   6.269
13032WAT     H240679   0.513   0.887   6.222
13033WAT      O40680   0.850   1.395   6.118
13033WAT     H140681   0.804   1.318   6.150
13033WAT     H240682   0.931   1.398   6.168
13034WAT      O40683   0.473   1.624   6.080
13034WAT     H140684   0.411   1.669   6.023
13034WAT     H240685   0.558   1.639   6.039
13035WAT      O40686   0.392   1.222   6.240
13035WAT     H140687   0.385   1.128   6.224
13035WAT     H240688   0.468   1.231   6.297
13036WAT      O40689   0.495   0.503   6.263
13036WAT     H140690   0.533   0.416   6.252
13036WAT     H240691   0.485   0.537   6.174
13037WAT      O40692   0.873   0.252   5.956
13037WAT     H140693   0.955   0.203   5.960
13037WAT     H240694   0.877   0.311   6.032
13038WAT      O40695   0.559   1.112   5.819
13038WAT     H140696   0.497   1.159   5.763
13038WAT     H240697   0.611   1.181   5.861
13039WAT      O40698   0.897   0.446   6.234
13039WAT     H140699   0.827   0.475   6.292
13039WAT     H240700   0.933   0.527   6.198
13040WAT      O40701   1.059   1.408   6.460
13040WAT     H140702   0.990   1.475   6.459
13040WAT     H240703   1.113   1.428   6.383
13041WAT      O40704   1.204   0.391   6.273
13041WAT     H140705   1.109   0.394   6.286
13041WAT     H240706   1.236   0.472   6.311
13042WAT      O40707   0.812   1.593   6.331
13042WAT     H140708   0.813   1.552   6.244
13042WAT     H240709   0.757   1.670   6.321
13043WAT      O40710   0.942   1.265   5.840
13043WAT     H140711   0.931   1.171   5.853
13043WAT     H240712   0.941   1.301   5.929
13044WAT      O40713   0.752   1.083   6.464
13044WAT     H140714   0.794   1.062   6.381
13044WAT     H240715   0.824   1.109   6.521
13045WAT      O40716   0.496   0.827   5.776
13045WAT     H140717   0.403   0.821   5.799
13045WAT     H240718   0.511   0.921   5.764
13046WAT      O40719   0.495   0.455   5.475
13046WAT     H140720   0.401   0.471   5.484
13046WAT     H240721   0.526   0.526   5.421
13047WAT      O40722   1.147   0.923   6.473
13047WAT     H140723   1.064   0.930   6.426
13047WAT     H240724   1.206   0.981   6.426
13048WAT      O40725   0.899   0.984   5.826
13048WAT     H140726   0.837   0.950   5.761
13048WAT     H240727   0.897   0.919   5.897
13049WAT      O40728   0.843   0.601   6.568
13049WAT     H140729   0.802   0.684   6.593
13049WAT     H240730   0.770   0.543   6.549
13050WAT      O40731   0.912   1.606   6.637
13050WAT     H140732   0.864   1.687   6.617
13050WAT     H240733   0.844   1.541   6.652
13051WAT      O40734   0.716   0.908   5.527
13051WAT     H140735   0.760   0.824   5.512
13051WAT     H240736   0.788   0.971   5.535
13052WAT      O40737   0.527   1.401   5.924
13052WAT     H140738   0.571   1.476   5.882
13052WAT     H240739   0.521   1.426   6.016
13053WAT      O40740   0.794   1.700   5.659
13053WAT     H140741   0.778   1.671   5.749
13053WAT     H240742   0.778   1.623   5.606
13054WAT      O40743   0.764   1.451   5.515
13054WAT     H140744   0.695   1.451   5.449
13054WAT     H240745   0.839   1.409   5.472
13055WAT      O40746   0.721   1.614   5.923
13055WAT     H140747   0.766   1.536   5.954
13055WAT     H240748   0.755   1.685   5.977
13056WAT      O40749   0.675   0.617   5.775
13056WAT     H140750   0.615   0.689   5.757
13056WAT     H240751   0.730   0.611   5.697
13057WAT      O40752   0.536   0.480   5.978
13057WAT     H140753   0.575   0.512   5.897
13057WAT     H240754   0.572   0.393   5.989
13058WAT      O40755   0.594   0.740   6.388
13058WAT     H140756   0.521   0.790   6.422
13058WAT     H240757   0.555   0.658   6.357
13059WAT      O40758   0.238   0.407   6.228
13059WAT     H140759   0.239   0.363   6.143
13059WAT     H240760   0.328   0.439   6.239
13060WAT      O40761   0.244   0.507   5.527
13060WAT     H140762   0.256   0.503   5.622
13060WAT     H240763   0.206   0.593   5.512
13061WAT      O40764   0.641   0.285   6.329
13061WAT     H140765   0.642   0.330   6.413
13061WAT     H240766   0.616   0.195   6.350
13062WAT      O40767   0.268   0.813   6.403
13062WAT     H140768   0.305   0.766   6.477
13062WAT     H240769   0.249   0.901   6.437
13063WAT      O40770   0.976   1.037   6.273
13063WAT     H140771   1.048   1.087   6.234
13063WAT     H240772   0.956   0.970   6.209
13064WAT      O40773   0.522   0.177   5.688
13064WAT     H140774   0.441   0.127   5.680
13064WAT     H240775   0.503   0.261   5.646
13065WAT      O40776   0.794   0.614   5.517
13065WAT     H140777   0.882   0.645   5.500
13065WAT     H240778   0.791   0.527   5.478
13066WAT      O40779   0.393   1.231   5.585
13066WAT     H140780   0.427   1.306   5.536
13066WAT     H240781   0.310   1.263   5.622
13067WAT      O40782   1.021   0.745   5.464
13067WAT     H140783   1.012   0.788   5.379
13067WAT     H240784   1.093   0.791   5.507
13068WAT      O40785   1.124   1.431   5.737
13068WAT     H140786   1.059   1.365   5.764
13068WAT     H240787   1.085   1.471   5.659
13069WAT      O40788   0.681   1.163   6.122
13069WAT     H140789   0.717   1.104   6.056
13069WAT     H240790   0.593   1.131   6.139
13070WAT      O40791   0.290   1.239   5.862
13070WAT     H140792   0.359   1.294   5.901
13070WAT     H240793   0.211   1.294   5.866
13071WAT      O40794   0.220   0.940   5.824
13071WAT     H140795   0.266   1.021   5.846
13071WAT     H240796   0.185   0.908   5.907
13072WAT      O40797   0.451   1.491   6.547
13072WAT     H140798   0.515   1.512   6.614
13072WAT     H240799   0.487   1.415   6.501
13073WAT      O40800   0.578   1.291   6.418
13073WAT     H140801   0.642   1.221   6.430
13073WAT     H240802   0.630   1.369   6.400
13074WAT      O40803   0.963   1.320   5.391
13074WAT     H140804   0.940   1.248   5.450
13074WAT     H240805   0.923   1.295   5.307
13075WAT      O40806   0.921   1.111   5.557
13075WAT     H140807   0.892   1.158   5.636
13075WAT     H240808   1.000   1.065   5.584
13076WAT      O40809   0.660   0.399   6.592
13076WAT     H140810   0.697   0.317   6.625
13076WAT     H240811   0.574   0.405   6.634
13077WAT      O40812   0.996   0.295   5.673
13077WAT     H140813   0.934   0.305   5.601
13077WAT     H240814   0.947   0.317   5.752
13078WAT      O40815   0.441   1.467   5.416
13078WAT     H140816   0.451   1.447   5.323
13078WAT     H240817   0.351   1.442   5.437
13079WAT      O40818   0.596   0.195   5.958
13079WAT     H140819   0.584   0.197   5.864
13079WAT     H240820   0.691   0.200   5.970
13080WAT      O40821   0.305   1.719   5.886
13080WAT     H140822   0.331   1.715   5.793
13080WAT     H240823   0.210   1.706   5.885
13081WAT      O40824   0.906   0.811   6.043
13081WAT     H140825   0.812   0.812   6.061
13081WAT     H240826   0.937   0.732   6.088
13082WAT      O40827   1.106   1.528   6.211
13082WAT     H140828   1.118   1.610   6.258
13082WAT     H240829   1.193   1.507   6.176
13083WAT      O40830   1.069   1.577   5.503
13083WAT     H140831   1.041   1.536   5.421
13083WAT     H240832   1.050   1.670   5.491
13084WAT      O40833   0.216   1.177   5.347
13084WAT     H140834   0.205   1.115   5.419
13084WAT     H240835   0.199   1.124   5.268
13085WAT      O40836   0.540   1.083   5.407
13085WAT     H140837   0.485   1.127   5.472
13085WAT     H240838   0.602   1.032   5.459
13086WAT      O40839   0.358   0.881   5.322
13086WAT     H140840   0.410   0.809   5.285
13086WAT     H240841   0.423   0.945   5.352
13087WAT      O40842   0.289   1.018   6.651
13087WAT     H140843   0.331   1.103   6.634
13087WAT     H240844   0.197   1.032   6.628
13088WAT      O40845   0.414   1.689   5.551
13088WAT     H140846   0.504   1.723   5.553
13088WAT     H240847   0.418   1.617   5.488
13089WAT      O40848   1.236   1.316   5.355
13089WAT     H140849   1.153   1.323   5.402
13089WAT     H240850   1.254   1.405   5.325
13090WAT      O40851   1.182   0.991   5.605
13090WAT     H140852   1.258   1.048   5.616
13090WAT     H240853   1.183   0.934   5.682
13091WAT      O40854   1.283   1.076   6.090
13091WAT     H140855   1.320   0.998   6.049
13091WAT     H240856   1.347   1.145   6.072
13092WAT      O40857   1.187   1.020   5.321
13092WAT     H140858   1.215   1.111   5.308
13092WAT     H240859   1.168   1.014   5.415
13093WAT      O40860   0.827   0.323   5.450
13093WAT     H140861   0.869   0.304   5.366
13093WAT     H240862   0.796   0.237   5.482
13094WAT      O40863   1.177   0.814   5.820
13094WAT     H140864   1.139   0.737   5.777
13094WAT     H240865   1.104   0.852   5.869
13095WAT      O40866   1.104   0.636   6.150
13095WAT     H140867   1.157   0.587   6.087
13095WAT     H240868   1.163   0.650   6.225
13096WAT      O40869   1.122   0.645   6.503
13096WAT     H140870   1.027   0.641   6.514
13096WAT     H240871   1.140   0.736   6.479
13097WAT      O40872   1.053   0.562   5.744
13097WAT     H140873   1.103   0.539   5.823
13097WAT     H240874   1.033   0.478   5.703
13098WAT      O40875   1.196   0.426   5.998
13098WAT     H140876   1.185   0.410   6.091
13098WAT     H240877   1.272   0.373   5.973
13099WAT      O40878   1.285   0.209   5.322
13099WAT     H140879   1.378   0.196   5.301
13099WAT     H240880   1.283   0.217   5.417
13100WAT      O40881   1.292   0.286   5.584
13100WAT     H140882   1.213   0.279   5.637
13100WAT     H240883   1.313   0.379   5.583
13101WAT      O40884   0.987   1.690   5.984
13101WAT     H140885   1.046   1.658   5.916
13101WAT     H240886   1.012   1.643   6.063
13102WAT      O40887   1.042   1.755   6.367
13102WAT     H140888   0.996   1.830   6.329
13102WAT     H240889   0.979   1.683   6.361
13103WAT      O40890   0.359   1.675   6.367
13103WAT     H140891   0.387   1.649   6.279
13103WAT     H240892   0.410   1.620   6.426
13104WAT      O40893   0.269   0.291   5.976
13104WAT     H140894   0.188   0.253   5.942
13104WAT     H240895   0.319   0.215   6.006
13105WAT      O40896   1.189   1.721   5.803
13105WAT     H140897   1.206   1.653   5.739
13105WAT     H240898   1.119   1.774   5.764
13106WAT      O40899   0.635   0.777   4.174
13106WAT     H140900   0.627   0.685   4.147
13106WAT     H240901   0.593   0.827   4.103
13107WAT      O40902   0.448   0.955   4.362
13107WAT     H140903   0.370   0.907   4.391
13107WAT     H240904   0.513   0.887   4.345
13108WAT      O40905   0.850   1.395   4.240
13108WAT     H140906   0.804   1.318   4.273
13108WAT     H240907   0.931   1.398   4.291
13109WAT      O40908   0.473   1.624   4.202
13109WAT     H140909   0.411   1.669   4.145
13109WAT     H240910   0.558   1.639   4.162
13110WAT      O40911   0.392   1.222   4.363
13110WAT     H140912   0.385   1.128   4.347
13110WAT     H240913   0.468   1.231   4.420
13111WAT      O40914   0.495   0.503   4.386
13111WAT     H140915   0.533   0.416   4.374
13111WAT     H240916   0.485   0.537   4.296
13112WAT      O40917   0.873   0.252   4.079
13112WAT     H140918   0.955   0.203   4.083
13112WAT     H240919   0.877   0.311   4.154
13113WAT      O40920   1.302   0.454   4.735
13113WAT     H140921   1.232   0.493   4.683
13113WAT     H240922   1.329   0.524   4.795
13114WAT      O40923   0.559   1.112   3.941
13114WAT     H140924   0.497   1.159   3.885
13114WAT     H240925   0.611   1.181   3.983
13115WAT      O40926   0.897   0.446   4.356
13115WAT     H140927   0.827   0.475   4.414
13115WAT     H240928   0.933   0.527   4.320
13116WAT      O40929   1.059   1.408   4.582
13116WAT     H140930   0.990   1.475   4.582
13116WAT     H240931   1.113   1.428   4.506
13117WAT      O40932   1.204   0.391   4.395
13117WAT     H140933   1.109   0.394   4.408
13117WAT     H240934   1.236   0.472   4.434
13118WAT      O40935   0.812   1.593   4.454
13118WAT     H140936   0.813   1.552   4.367
13118WAT     H240937   0.757   1.670   4.443
13119WAT      O40938   0.942   1.265   3.963
13119WAT     H140939   0.931   1.171   3.975
13119WAT     H240940   0.941   1.301   4.051
13120WAT      O40941   0.752   1.083   4.587
13120WAT     H140942   0.794   1.062   4.503
13120WAT     H240943   0.824   1.109   4.644
13121WAT      O40944   0.496   0.827   3.898
13121WAT     H140945   0.403   0.821   3.921
13121WAT     H240946   0.511   0.921   3.887
13122WAT      O40947   0.495   0.455   3.598
13122WAT     H140948   0.401   0.471   3.607
13122WAT     H240949   0.526   0.526   3.543
13123WAT      O40950   1.147   0.923   4.596
13123WAT     H140951   1.064   0.930   4.548
13123WAT     H240952   1.206   0.981   4.549
13124WAT      O40953   0.899   0.984   3.949
13124WAT     H140954   0.837   0.950   3.884
13124WAT     H240955   0.897   0.919   4.019
13125WAT      O40956   0.843   0.601   4.690
13125WAT     H140957   0.802   0.684   4.716
13125WAT     H240958   0.770   0.543   4.671
13126WAT      O40959   0.912   1.606   4.759
13126WAT     H140960   0.864   1.687   4.740
13126WAT     H240961   0.844   1.541   4.774
13127WAT      O40962   0.716   0.908   3.649
13127WAT     H140963   0.760   0.824   3.635
13127WAT     H240964   0.788   0.971   3.658
13128WAT      O40965   0.527   1.401   4.046
13128WAT     H140966   0.571   1.476   4.005
13128WAT     H240967   0.521   1.426   4.139
13129WAT      O40968   1.270   1.582   5.266
13129WAT     H140969   1.318   1.630   5.334
13129WAT     H240970   1.332   1.575   5.194
13130WAT      O40971   1.210   1.301   4.982
13130WAT     H140972   1.223   1.277   4.890
13130WAT     H240973   1.215   1.218   5.029
13131WAT      O40974   0.597   1.672   4.839
13131WAT     H140975   0.648   1.663   4.919
13131WAT     H240976   0.512   1.706   4.868
13132WAT      O40977   0.794   1.700   3.782
13132WAT     H140978   0.778   1.671   3.872
13132WAT     H240979   0.778   1.623   3.728
13133WAT      O40980   0.764   1.451   3.638
13133WAT     H140981   0.695   1.451   3.572
13133WAT     H240982   0.839   1.409   3.595
13134WAT      O40983   0.721   1.614   4.045
13134WAT     H140984   0.766   1.536   4.077
13134WAT     H240985   0.755   1.685   4.100
13135WAT      O40986   1.196   0.507   5.079
13135WAT     H140987   1.134   0.557   5.026
13135WAT     H240988   1.164   0.417   5.073
13136WAT      O40989   0.402   0.391   4.825
13136WAT     H140990   0.356   0.411   4.906
13136WAT     H240991   0.362   0.309   4.795
13137WAT      O40992   0.902   0.513   4.938
13137WAT     H140993   0.817   0.483   4.970
13137WAT     H240994   0.886   0.537   4.847
13138WAT      O40995   0.611   0.663   5.148
13138WAT     H140996   0.644   0.579   5.114
13138WAT     H240997   0.690   0.715   5.163
13139WAT      O40998   0.675   0.617   3.898
13139WAT     H140999   0.615   0.689   3.879
13139WAT     H241000   0.730   0.611   3.819
13140WAT      O41001   0.196   0.706   5.104
13140WAT     H141002   0.187   0.612   5.089
13140WAT     H241003   0.281   0.728   5.065
13141WAT      O41004   0.536   0.480   4.101
13141WAT     H141005   0.575   0.512   4.019
13141WAT     H241006   0.572   0.393   4.112
13142WAT      O41007   0.367   0.356   5.227
13142WAT     H141008   0.298   0.336   5.290
13142WAT     H241009   0.441   0.384   5.280
13143WAT      O41010   0.594   0.740   4.510
13143WAT     H141011   0.521   0.790   4.545
13143WAT     H241012   0.555   0.658   4.480
13144WAT      O41013   0.238   0.407   4.351
13144WAT     H141014   0.239   0.363   4.266
13144WAT     H241015   0.328   0.439   4.361
13145WAT      O41016   0.244   0.507   3.650
13145WAT     H141017   0.256   0.503   3.745
13145WAT     H241018   0.206   0.593   3.634
13146WAT      O41019   0.641   0.285   4.451
13146WAT     H141020   0.642   0.330   4.536
13146WAT     H241021   0.616   0.195   4.473
13147WAT      O41022   0.268   0.813   4.525
13147WAT     H141023   0.305   0.766   4.600
13147WAT     H241024   0.249   0.901   4.559
13148WAT      O41025   0.976   1.037   4.396
13148WAT     H141026   1.048   1.087   4.357
13148WAT     H241027   0.956   0.970   4.332
13149WAT      O41028   0.522   0.177   3.810
13149WAT     H141029   0.441   0.127   3.803
13149WAT     H241030   0.503   0.261   3.769
13150WAT      O41031   0.514   1.045   4.985
13150WAT     H141032   0.507   0.952   4.959
13150WAT     H241033   0.451   1.054   5.056
13151WAT      O41034   0.794   0.614   3.640
13151WAT     H141035   0.882   0.645   3.622
13151WAT     H241036   0.791   0.527   3.601
13152WAT      O41037   0.393   1.231   3.708
13152WAT     H141038   0.427   1.306   3.658
13152WAT     H241039   0.310   1.263   3.744
13153WAT      O41040   0.507   1.327   4.960
13153WAT     H141041   0.509   1.234   4.938
13153WAT     H241042   0.437   1.335   5.024
13154WAT      O41043   1.021   0.745   3.587
13154WAT     H141044   1.012   0.788   3.502
13154WAT     H241045   1.093   0.791   3.630
13155WAT      O41046   1.128   0.991   4.894
13155WAT     H141047   1.056   1.050   4.875
13155WAT     H241048   1.181   0.990   4.815
13156WAT      O41049   1.124   1.431   3.860
13156WAT     H141050   1.059   1.365   3.887
13156WAT     H241051   1.085   1.471   3.782
13157WAT      O41052   0.681   1.163   4.244
13157WAT     H141053   0.717   1.104   4.178
13157WAT     H241054   0.593   1.131   4.261
13158WAT      O41055   0.290   1.239   3.985
13158WAT     H141056   0.359   1.294   4.023
13158WAT     H241057   0.211   1.294   3.989
13159WAT      O41058   0.220   0.940   3.946
13159WAT     H141059   0.266   1.021   3.969
13159WAT     H241060   0.185   0.908   4.029
13160WAT      O41061   0.451   1.491   4.669
13160WAT     H141062   0.515   1.512   4.737
13160WAT     H241063   0.487   1.415   4.624
13161WAT      O41064   0.578   1.291   4.541
13161WAT     H141065   0.642   1.221   4.552
13161WAT     H241066   0.630   1.369   4.523
13162WAT      O41067   0.963   1.320   3.513
13162WAT     H141068   0.940   1.248   3.573
13162WAT     H241069   0.923   1.295   3.430
13163WAT      O41070   0.755   1.371   4.861
13163WAT     H141071   0.789   1.430   4.929
13163WAT     H241072   0.663   1.358   4.884
13164WAT      O41073   0.921   1.111   3.679
13164WAT     H141074   0.892   1.158   3.758
13164WAT     H241075   1.000   1.065   3.706
13165WAT      O41076   0.338   1.376   5.178
13165WAT     H141077   0.306   1.304   5.233
13165WAT     H241078   0.271   1.444   5.186
13166WAT      O41079   0.660   0.399   4.715
13166WAT     H141080   0.697   0.317   4.747
13166WAT     H241081   0.574   0.405   4.756
13167WAT      O41082   0.996   0.295   3.795
13167WAT     H141083   0.934   0.305   3.724
13167WAT     H241084   0.947   0.317   3.874
13168WAT      O41085   0.441   1.467   3.539
13168WAT     H141086   0.451   1.447   3.446
13168WAT     H241087   0.351   1.442   3.559
13169WAT      O41088   0.356   0.665   4.737
13169WAT     H141089   0.406   0.712   4.803
13169WAT     H241090   0.370   0.572   4.758
13170WAT      O41091   0.596   0.195   4.081
13170WAT     H141092   0.584   0.197   3.986
13170WAT     H241093   0.691   0.200   4.093
13171WAT      O41094   0.305   1.719   4.008
13171WAT     H141095   0.331   1.715   3.916
13171WAT     H241096   0.210   1.706   4.008
13172WAT      O41097   1.076   0.286   4.821
13172WAT     H141098   1.026   0.360   4.855
13172WAT     H241099   1.158   0.325   4.790
13173WAT      O41100   0.906   0.811   4.166
13173WAT     H141101   0.812   0.812   4.183
13173WAT     H241102   0.937   0.732   4.210
13174WAT      O41103   1.106   1.528   4.333
13174WAT     H141104   1.118   1.610   4.381
13174WAT     H241105   1.193   1.507   4.299
13175WAT      O41106   0.637   1.266   5.214
13175WAT     H141107   0.577   1.269   5.140
13175WAT     H241108   0.607   1.193   5.268
13176WAT      O41109   0.780   1.639   5.075
13176WAT     H141110   0.876   1.631   5.070
13176WAT     H241111   0.766   1.706   5.143
13177WAT      O41112   1.069   1.577   3.625
13177WAT     H141113   1.041   1.536   3.544
13177WAT     H241114   1.050   1.670   3.613
13178WAT      O41115   0.216   1.177   3.469
13178WAT     H141116   0.205   1.115   3.542
13178WAT     H241117   0.199   1.124   3.391
13179WAT      O41118   0.540   1.083   3.530
13179WAT     H141119   0.485   1.127   3.594
13179WAT     H241120   0.602   1.032   3.582
13180WAT      O41121   0.945   1.218   5.123
13180WAT     H141122   1.019   1.252   5.073
13180WAT     H241123   0.869   1.235   5.068
13181WAT      O41124   0.358   0.881   3.444
13181WAT     H141125   0.410   0.809   3.407
13181WAT     H241126   0.423   0.945   3.474
13182WAT      O41127   0.813   1.023   4.976
13182WAT     H141128   0.854   1.039   5.061
13182WAT     H241129   0.719   1.036   4.993
13183WAT      O41130   0.860   0.757   5.177
13183WAT     H141131   0.918   0.682   5.168
13183WAT     H241132   0.878   0.810   5.099
13184WAT      O41133   0.289   1.018   4.773
13184WAT     H141134   0.331   1.103   4.756
13184WAT     H241135   0.197   1.032   4.750
13185WAT      O41136   0.523   0.792   4.912
13185WAT     H141137   0.534   0.732   4.986
13185WAT     H241138   0.608   0.795   4.870
13186WAT      O41139   0.756   0.847   4.769
13186WAT     H141140   0.704   0.899   4.709
13186WAT     H241141   0.791   0.910   4.832
13187WAT      O41142   0.681   0.408   5.061
13187WAT     H141143   0.612   0.341   5.054
13187WAT     H241144   0.753   0.363   5.105
13188WAT      O41145   0.360   1.773   4.911
13188WAT     H141146   0.352   1.863   4.942
13188WAT     H241147   0.269   1.741   4.908
13189WAT      O41148   0.414   1.689   3.673
13189WAT     H141149   0.504   1.723   3.675
13189WAT     H241150   0.418   1.617   3.610
13190WAT      O41151   1.112   1.542   4.944
13190WAT     H141152   1.052   1.548   4.869
13190WAT     H241153   1.125   1.448   4.957
13191WAT      O41154   1.236   1.316   3.477
13191WAT     H141155   1.153   1.323   3.525
13191WAT     H241156   1.254   1.405   3.447
13192WAT      O41157   1.182   0.991   3.728
13192WAT     H141158   1.258   1.048   3.738
13192WAT     H241159   1.183   0.934   3.805
13193WAT      O41160   1.283   1.076   4.212
13193WAT     H141161   1.320   0.998   4.172
13193WAT     H241162   1.347   1.145   4.194
13194WAT      O41163   0.981   1.215   4.754
13194WAT     H141164   0.899   1.258   4.780
13194WAT     H241165   1.022   1.276   4.692
13195WAT      O41166   1.187   1.020   3.444
13195WAT     H141167   1.215   1.111   3.431
13195WAT     H241168   1.168   1.014   3.537
13196WAT      O41169   0.827   0.323   3.573
13196WAT     H141170   0.869   0.304   3.489
13196WAT     H241171   0.796   0.237   3.604
13197WAT      O41172   1.177   0.814   3.943
13197WAT     H141173   1.139   0.737   3.900
13197WAT     H241174   1.104   0.852   3.992
13198WAT      O41175   1.116   0.729   4.906
13198WAT     H141176   1.093   0.706   4.816
13198WAT     H241177   1.142   0.821   4.902
13199WAT      O41178   0.960   0.251   5.184
13199WAT     H141179   1.047   0.252   5.222
13199WAT     H241180   0.961   0.177   5.123
13200WAT      O41181   1.104   0.636   4.273
13200WAT     H141182   1.157   0.587   4.210
13200WAT     H241183   1.163   0.650   4.347
13201WAT      O41184   1.122   0.645   4.625
13201WAT     H141185   1.027   0.641   4.637
13201WAT     H241186   1.140   0.736   4.602
13202WAT      O41187   1.053   0.562   3.867
13202WAT     H141188   1.103   0.539   3.945
13202WAT     H241189   1.033   0.478   3.825
13203WAT      O41190   1.196   0.426   4.120
13203WAT     H141191   1.185   0.410   4.214
13203WAT     H241192   1.272   0.373   4.096
13204WAT      O41193   1.285   0.209   3.444
13204WAT     H141194   1.378   0.196   3.423
13204WAT     H241195   1.283   0.217   3.540
13205WAT      O41196   1.292   0.286   3.707
13205WAT     H141197   1.213   0.279   3.760
13205WAT     H241198   1.313   0.379   3.706
13206WAT      O41199   0.987   1.690   4.106
13206WAT     H141200   1.046   1.658   4.039
13206WAT     H241201   1.012   1.643   4.185
13207WAT      O41202   1.273   1.691   4.761
13207WAT     H141203   1.224   1.730   4.690
13207WAT     H241204   1.213   1.628   4.801
13208WAT      O41205   1.042   1.755   4.489
13208WAT     H141206   0.996   1.830   4.452
13208WAT     H241207   0.979   1.683   4.483
13209WAT      O41208   0.359   1.675   4.489
13209WAT     H141209   0.387   1.649   4.402
13209WAT     H241210   0.410   1.620   4.548
13210WAT      O41211   0.269   0.291   4.098
13210WAT     H141212   0.188   0.253   4.064
13210WAT     H241213   0.319   0.215   4.129
13211WAT      O41214   0.365   1.767   5.226
13211WAT     H141215   0.458   1.743   5.230
13211WAT     H241216   0.364   1.850   5.178
13212WAT      O41217   1.189   1.721   3.926
13212WAT     H141218   1.206   1.653   3.861
13212WAT     H241219   1.119   1.774   3.887
13213WAT      O41220   1.022   1.690   5.208
13213WAT     H141221   1.101   1.640   5.188
13213WAT     H241222   1.052   1.758   5.269
13214WAT      O41223   0.635   0.777   2.297
13214WAT     H141224   0.627   0.685   2.270
13214WAT     H241225   0.593   0.827   2.226
13215WAT      O41226   0.448   0.955   2.485
13215WAT     H141227   0.370   0.907   2.514
13215WAT     H241228   0.513   0.887   2.467
13216WAT      O41229   0.850   1.395   2.363
13216WAT     H141230   0.804   1.318   2.396
13216WAT     H241231   0.931   1.398   2.413
13217WAT      O41232   0.473   1.624   2.325
13217WAT     H141233   0.411   1.669   2.268
13217WAT     H241234   0.558   1.639   2.285
13218WAT      O41235   0.392   1.222   2.485
13218WAT     H141236   0.385   1.128   2.469
13218WAT     H241237   0.468   1.231   2.543
13219WAT      O41238   0.495   0.503   2.508
13219WAT     H141239   0.533   0.416   2.497
13219WAT     H241240   0.485   0.537   2.419
13220WAT      O41241   0.873   0.252   2.201
13220WAT     H141242   0.955   0.203   2.206
13220WAT     H241243   0.877   0.311   2.277
13221WAT      O41244   1.302   0.454   2.858
13221WAT     H141245   1.232   0.493   2.806
13221WAT     H241246   1.329   0.524   2.918
13222WAT      O41247   0.559   1.112   2.064
13222WAT     H141248   0.497   1.159   2.008
13222WAT     H241249   0.611   1.181   2.106
13223WAT      O41250   0.897   0.446   2.479
13223WAT     H141251   0.827   0.475   2.537
13223WAT     H241252   0.933   0.527   2.443
13224WAT      O41253   1.059   1.408   2.705
13224WAT     H141254   0.990   1.475   2.704
13224WAT     H241255   1.113   1.428   2.628
13225WAT      O41256   1.204   0.391   2.518
13225WAT     H141257   1.109   0.394   2.531
13225WAT     H241258   1.236   0.472   2.556
13226WAT      O41259   0.812   1.593   2.576
13226WAT     H141260   0.813   1.552   2.490
13226WAT     H241261   0.757   1.670   2.566
13227WAT      O41262   0.942   1.265   2.085
13227WAT     H141263   0.931   1.171   2.098
13227WAT     H241264   0.941   1.301   2.174
13228WAT      O41265   0.752   1.083   2.709
13228WAT     H141266   0.794   1.062   2.626
13228WAT     H241267   0.824   1.109   2.766
13229WAT      O41268   0.496   0.827   2.021
13229WAT     H141269   0.403   0.821   2.044
13229WAT     H241270   0.511   0.921   2.009
13230WAT      O41271   0.495   0.455   1.721
13230WAT     H141272   0.401   0.471   1.729
13230WAT     H241273   0.526   0.526   1.666
13231WAT      O41274   1.147   0.923   2.718
13231WAT     H141275   1.064   0.930   2.671
13231WAT     H241276   1.206   0.981   2.672
13232WAT      O41277   0.899   0.984   2.071
13232WAT     H141278   0.837   0.950   2.007
13232WAT     H241279   0.897   0.919   2.142
13233WAT      O41280   0.843   0.601   2.813
13233WAT     H141281   0.802   0.684   2.838
13233WAT     H241282   0.770   0.543   2.794
13234WAT      O41283   0.912   1.606   2.882
13234WAT     H141284   0.864   1.687   2.862
13234WAT     H241285   0.844   1.541   2.897
13235WAT      O41286   0.716   0.908   1.772
13235WAT     H141287   0.760   0.824   1.757
13235WAT     H241288   0.788   0.971   1.781
13236WAT      O41289   0.527   1.401   2.169
13236WAT     H141290   0.571   1.476   2.127
13236WAT     H241291   0.521   1.426   2.261
13237WAT      O41292   1.270   1.582   3.389
13237WAT     H141293   1.318   1.630   3.457
13237WAT     H241294   1.332   1.575   3.316
13238WAT      O41295   1.210   1.301   3.105
13238WAT     H141296   1.223   1.277   3.013
13238WAT     H241297   1.215   1.218   3.152
13239WAT      O41298   0.597   1.672   2.962
13239WAT     H141299   0.648   1.663   3.042
13239WAT     H241300   0.512   1.706   2.991
13240WAT      O41301   0.794   1.700   1.904
13240WAT     H141302   0.778   1.671   1.994
13240WAT     H241303   0.778   1.623   1.851
13241WAT      O41304   0.764   1.451   1.760
13241WAT     H141305   0.695   1.451   1.694
13241WAT     H241306   0.839   1.409   1.717
13242WAT      O41307   0.721   1.614   2.168
13242WAT     H141308   0.766   1.536   2.199
13242WAT     H241309   0.755   1.685   2.222
13243WAT      O41310   1.196   0.507   3.201
13243WAT     H141311   1.134   0.557   3.148
13243WAT     H241312   1.164   0.417   3.195
13244WAT      O41313   0.402   0.391   2.948
13244WAT     H141314   0.356   0.411   3.029
13244WAT     H241315   0.362   0.309   2.917
13245WAT      O41316   0.902   0.513   3.061
13245WAT     H141317   0.817   0.483   3.093
13245WAT     H241318   0.886   0.537   2.970
13246WAT      O41319   0.611   0.663   3.271
13246WAT     H141320   0.644   0.579   3.237
13246WAT     H241321   0.690   0.715   3.285
13247WAT      O41322   0.675   0.617   2.020
13247WAT     H141323   0.615   0.689   2.002
13247WAT     H241324   0.730   0.611   1.942
13248WAT      O41325   0.196   0.706   3.227
13248WAT     H141326   0.187   0.612   3.212
13248WAT     H241327   0.281   0.728   3.187
13249WAT      O41328   0.536   0.480   2.223
13249WAT     H141329   0.575   0.512   2.142
13249WAT     H241330   0.572   0.393   2.235
13250WAT      O41331   0.367   0.356   3.349
13250WAT     H141332   0.298   0.336   3.413
13250WAT     H241333   0.441   0.384   3.402
13251WAT      O41334   0.594   0.740   2.633
13251WAT     H141335   0.521   0.790   2.668
13251WAT     H241336   0.555   0.658   2.603
13252WAT      O41337   0.238   0.407   2.473
13252WAT     H141338   0.239   0.363   2.388
13252WAT     H241339   0.328   0.439   2.484
13253WAT      O41340   0.244   0.507   1.772
13253WAT     H141341   0.256   0.503   1.867
13253WAT     H241342   0.206   0.593   1.757
13254WAT      O41343   0.641   0.285   2.574
13254WAT     H141344   0.642   0.330   2.658
13254WAT     H241345   0.616   0.195   2.595
13255WAT      O41346   0.268   0.813   2.648
13255WAT     H141347   0.305   0.766   2.722
13255WAT     H241348   0.249   0.901   2.682
13256WAT      O41349   0.976   1.037   2.519
13256WAT     H141350   1.048   1.087   2.480
13256WAT     H241351   0.956   0.970   2.454
13257WAT      O41352   0.522   0.177   1.933
13257WAT     H141353   0.441   0.127   1.925
13257WAT     H241354   0.503   0.261   1.891
13258WAT      O41355   0.514   1.045   3.107
13258WAT     H141356   0.507   0.952   3.082
13258WAT     H241357   0.451   1.054   3.179
13259WAT      O41358   0.794   0.614   1.763
13259WAT     H141359   0.882   0.645   1.745
13259WAT     H241360   0.791   0.527   1.723
13260WAT      O41361   0.393   1.231   1.830
13260WAT     H141362   0.427   1.306   1.781
13260WAT     H241363   0.310   1.263   1.867
13261WAT      O41364   0.507   1.327   3.082
13261WAT     H141365   0.509   1.234   3.061
13261WAT     H241366   0.437   1.335   3.146
13262WAT      O41367   1.021   0.745   1.709
13262WAT     H141368   1.012   0.788   1.624
13262WAT     H241369   1.093   0.791   1.753
13263WAT      O41370   1.128   0.991   3.017
13263WAT     H141371   1.056   1.050   2.997
13263WAT     H241372   1.181   0.990   2.937
13264WAT      O41373   1.124   1.431   1.982
13264WAT     H141374   1.059   1.365   2.010
13264WAT     H241375   1.085   1.471   1.905
13265WAT      O41376   0.681   1.163   2.367
13265WAT     H141377   0.717   1.104   2.301
13265WAT     H241378   0.593   1.131   2.384
13266WAT      O41379   0.290   1.239   2.108
13266WAT     H141380   0.359   1.294   2.146
13266WAT     H241381   0.211   1.294   2.111
13267WAT      O41382   0.220   0.940   2.069
13267WAT     H141383   0.266   1.021   2.091
13267WAT     H241384   0.185   0.908   2.152
13268WAT      O41385   0.451   1.491   2.792
13268WAT     H141386   0.515   1.512   2.859
13268WAT     H241387   0.487   1.415   2.746
13269WAT      O41388   0.578   1.291   2.664
13269WAT     H141389   0.642   1.221   2.675
13269WAT     H241390   0.630   1.369   2.645
13270WAT      O41391   0.963   1.320   1.636
13270WAT     H141392   0.940   1.248   1.695
13270WAT     H241393   0.923   1.295   1.552
13271WAT      O41394   0.755   1.371   2.984
13271WAT     H141395   0.789   1.430   3.052
13271WAT     H241396   0.663   1.358   3.007
13272WAT      O41397   0.921   1.111   1.802
13272WAT     H141398   0.892   1.158   1.881
13272WAT     H241399   1.000   1.065   1.829
13273WAT      O41400   0.338   1.376   3.301
13273WAT     H141401   0.306   1.304   3.355
13273WAT     H241402   0.271   1.444   3.308
13274WAT      O41403   0.660   0.399   2.837
13274WAT     H141404   0.697   0.317   2.870
13274WAT     H241405   0.574   0.405   2.879
13275WAT      O41406   0.996   0.295   1.918
13275WAT     H141407   0.934   0.305   1.847
13275WAT     H241408   0.947   0.317   1.997
13276WAT      O41409   0.441   1.467   1.661
13276WAT     H141410   0.451   1.447   1.568
13276WAT     H241411   0.351   1.442   1.682
13277WAT      O41412   0.356   0.665   2.860
13277WAT     H141413   0.406   0.712   2.926
13277WAT     H241414   0.370   0.572   2.880
13278WAT      O41415   0.596   0.195   2.204
13278WAT     H141416   0.584   0.197   2.109
13278WAT     H241417   0.691   0.200   2.216
13279WAT      O41418   0.305   1.719   2.131
13279WAT     H141419   0.331   1.715   2.039
13279WAT     H241420   0.210   1.706   2.130
13280WAT      O41421   1.076   0.286   2.944
13280WAT     H141422   1.026   0.360   2.978
13280WAT     H241423   1.158   0.325   2.912
13281WAT      O41424   0.906   0.811   2.288
13281WAT     H141425   0.812   0.812   2.306
13281WAT     H241426   0.937   0.732   2.333
13282WAT      O41427   1.106   1.528   2.456
13282WAT     H141428   1.118   1.610   2.503
13282WAT     H241429   1.193   1.507   2.421
13283WAT      O41430   0.637   1.266   3.337
13283WAT     H141431   0.577   1.269   3.263
13283WAT     H241432   0.607   1.193   3.390
13284WAT      O41433   0.780   1.639   3.198
13284WAT     H141434   0.876   1.631   3.193
13284WAT     H241435   0.766   1.706   3.265
13285WAT      O41436   1.069   1.577   1.748
13285WAT     H141437   1.041   1.536   1.666
13285WAT     H241438   1.050   1.670   1.736
13286WAT      O41439   0.216   1.177   1.592
13286WAT     H141440   0.205   1.115   1.664
13286WAT     H241441   0.199   1.124   1.513
13287WAT      O41442   0.540   1.083   1.652
13287WAT     H141443   0.485   1.127   1.717
13287WAT     H241444   0.602   1.032   1.705
13288WAT      O41445   0.945   1.218   3.245
13288WAT     H141446   1.019   1.252   3.195
13288WAT     H241447   0.869   1.235   3.190
13289WAT      O41448   0.358   0.881   1.567
13289WAT     H141449   0.410   0.809   1.530
13289WAT     H241450   0.423   0.945   1.597
13290WAT      O41451   0.813   1.023   3.099
13290WAT     H141452   0.854   1.039   3.184
13290WAT     H241453   0.719   1.036   3.115
13291WAT      O41454   0.860   0.757   3.299
13291WAT     H141455   0.918   0.682   3.291
13291WAT     H241456   0.878   0.810   3.222
13292WAT      O41457   0.289   1.018   2.896
13292WAT     H141458   0.331   1.103   2.879
13292WAT     H241459   0.197   1.032   2.873
13293WAT      O41460   0.523   0.792   3.034
13293WAT     H141461   0.534   0.732   3.108
13293WAT     H241462   0.608   0.795   2.992
13294WAT      O41463   0.756   0.847   2.892
13294WAT     H141464   0.704   0.899   2.832
13294WAT     H241465   0.791   0.910   2.955
13295WAT      O41466   0.681   0.408   3.183
13295WAT     H141467   0.612   0.341   3.177
13295WAT     H241468   0.753   0.363   3.228
13296WAT      O41469   0.360   1.773   3.033
13296WAT     H141470   0.352   1.863   3.064
13296WAT     H241471   0.269   1.741   3.031
13297WAT      O41472   0.414   1.689   1.796
13297WAT     H141473   0.504   1.723   1.798
13297WAT     H241474   0.418   1.617   1.733
13298WAT      O41475   1.112   1.542   3.066
13298WAT     H141476   1.052   1.548   2.992
13298WAT     H241477   1.125   1.448   3.079
13299WAT      O41478   1.236   1.316   1.600
13299WAT     H141479   1.153   1.323   1.647
13299WAT     H241480   1.254   1.405   1.570
13300WAT      O41481   1.182   0.991   1.850
13300WAT     H141482   1.258   1.048   1.861
13300WAT     H241483   1.183   0.934   1.927
13301WAT      O41484   1.283   1.076   2.335
13301WAT     H141485   1.320   0.998   2.294
13301WAT     H241486   1.347   1.145   2.317
13302WAT      O41487   0.981   1.215   2.876
13302WAT     H141488   0.899   1.258   2.902
13302WAT     H241489   1.022   1.276   2.815
13303WAT      O41490   1.187   1.020   1.566
13303WAT     H141491   1.215   1.111   1.553
13303WAT     H241492   1.168   1.014   1.660
13304WAT      O41493   0.827   0.323   1.696
13304WAT     H141494   0.869   0.304   1.612
13304WAT     H241495   0.796   0.237   1.727
13305WAT      O41496   1.177   0.814   2.065
13305WAT     H141497   1.139   0.737   2.022
13305WAT     H241498   1.104   0.852   2.114
13306WAT      O41499   1.116   0.729   3.029
13306WAT     H141500   1.093   0.706   2.939
13306WAT     H241501   1.142   0.821   3.024
13307WAT      O41502   0.960   0.251   3.307
13307WAT     H141503   1.047   0.252   3.345
13307WAT     H241504   0.961   0.177   3.246
13308WAT      O41505   1.104   0.636   2.395
13308WAT     H141506   1.157   0.587   2.332
13308WAT     H241507   1.163   0.650   2.470
13309WAT      O41508   1.122   0.645   2.748
13309WAT     H141509   1.027   0.641   2.759
13309WAT     H241510   1.140   0.736   2.724
13310WAT      O41511   1.053   0.562   1.989
13310WAT     H141512   1.103   0.539   2.068
13310WAT     H241513   1.033   0.478   1.948
13311WAT      O41514   1.196   0.426   2.243
13311WAT     H141515   1.185   0.410   2.337
13311WAT     H241516   1.272   0.373   2.219
13312WAT      O41517   1.285   0.209   1.567
13312WAT     H141518   1.378   0.196   1.546
13312WAT     H241519   1.283   0.217   1.662
13313WAT      O41520   1.292   0.286   1.829
13313WAT     H141521   1.213   0.279   1.882
13313WAT     H241522   1.313   0.379   1.828
13314WAT      O41523   0.987   1.690   2.229
13314WAT     H141524   1.046   1.658   2.161
13314WAT     H241525   1.012   1.643   2.308
13315WAT      O41526   1.273   1.691   2.884
13315WAT     H141527   1.224   1.730   2.812
13315WAT     H241528   1.213   1.628   2.923
13316WAT      O41529   1.042   1.755   2.612
13316WAT     H141530   0.996   1.830   2.574
13316WAT     H241531   0.979   1.683   2.606
13317WAT      O41532   0.359   1.675   2.612
13317WAT     H141533   0.387   1.649   2.524
13317WAT     H241534   0.410   1.620   2.671
13318WAT      O41535   0.269   0.291   2.221
13318WAT     H141536   0.188   0.253   2.187
13318WAT     H241537   0.319   0.215   2.251
13319WAT      O41538   0.365   1.767   3.349
13319WAT     H141539   0.458   1.743   3.353
13319WAT     H241540   0.364   1.850   3.300
13320WAT      O41541   1.189   1.721   2.048
13320WAT     H141542   1.206   1.653   1.984
13320WAT     H241543   1.119   1.774   2.009
13321WAT      O41544   1.022   1.690   3.331
13321WAT     H141545   1.101   1.640   3.310
13321WAT     H241546   1.052   1.758   3.392
13322WAT      O41547   0.635   0.777   0.419
13322WAT     H141548   0.627   0.685   0.392
13322WAT     H241549   0.593   0.827   0.349
13323WAT      O41550   0.448   0.955   0.607
13323WAT     H141551   0.370   0.907   0.636
13323WAT     H241552   0.513   0.887   0.590
13324WAT      O41553   0.850   1.395   0.485
13324WAT     H141554   0.804   1.318   0.518
13324WAT     H241555   0.931   1.398   0.536
13325WAT      O41556   0.473   1.624   0.447
13325WAT     H141557   0.411   1.669   0.390
13325WAT     H241558   0.558   1.639   0.407
13326WAT      O41559   0.392   1.222   0.608
13326WAT     H141560   0.385   1.128   0.592
13326WAT     H241561   0.468   1.231   0.665
13327WAT      O41562   0.495   0.503   0.631
13327WAT     H141563   0.533   0.416   0.619
13327WAT     H241564   0.485   0.537   0.542
13328WAT      O41565   0.873   0.252   0.324
13328WAT     H141566   0.955   0.203   0.328
13328WAT     H241567   0.877   0.311   0.399
13329WAT      O41568   1.302   0.454   0.980
13329WAT     H141569   1.232   0.493   0.929
13329WAT     H241570   1.329   0.524   1.041
13330WAT      O41571   0.897   0.446   0.601
13330WAT     H141572   0.827   0.475   0.659
13330WAT     H241573   0.933   0.527   0.565
13331WAT      O41574   1.059   1.408   0.827
13331WAT     H141575   0.990   1.475   0.827
13331WAT     H241576   1.113   1.428   0.751
13332WAT      O41577   1.204   0.391   0.640
13332WAT     H141578   1.109   0.394   0.653
13332WAT     H241579   1.236   0.472   0.679
13333WAT      O41580   0.812   1.593   0.699
13333WAT     H141581   0.813   1.552   0.612
13333WAT     H241582   0.757   1.670   0.689
13334WAT      O41583   0.942   1.265   0.208
13334WAT     H141584   0.931   1.171   0.220
13334WAT     H241585   0.941   1.301   0.296
13335WAT      O41586   0.752   1.083   0.832
13335WAT     H141587   0.794   1.062   0.748
13335WAT     H241588   0.824   1.109   0.889
13336WAT      O41589   1.147   0.923   0.841
13336WAT     H141590   1.064   0.930   0.793
13336WAT     H241591   1.206   0.981   0.794
13337WAT      O41592   0.843   0.601   0.935
13337WAT     H141593   0.802   0.684   0.961
13337WAT     H241594   0.770   0.543   0.916
13338WAT      O41595   0.912   1.606   1.004
13338WAT     H141596   0.864   1.687   0.985
13338WAT     H241597   0.844   1.541   1.020
13339WAT      O41598   0.527   1.401   0.291
13339WAT     H141599   0.571   1.476   0.250
13339WAT     H241600   0.521   1.426   0.384
13340WAT      O41601   1.270   1.582   1.511
13340WAT     H141602   1.318   1.630   1.579
13340WAT     H241603   1.332   1.575   1.439
13341WAT      O41604   1.210   1.301   1.227
13341WAT     H141605   1.223   1.277   1.135
13341WAT     H241606   1.215   1.218   1.274
13342WAT      O41607   0.597   1.672   1.084
13342WAT     H141608   0.648   1.663   1.164
13342WAT     H241609   0.512   1.706   1.113
13343WAT      O41610   0.721   1.614   0.290
13343WAT     H141611   0.766   1.536   0.322
13343WAT     H241612   0.755   1.685   0.345
13344WAT      O41613   1.196   0.507   1.324
13344WAT     H141614   1.134   0.557   1.271
13344WAT     H241615   1.164   0.417   1.318
13345WAT      O41616   0.402   0.391   1.070
13345WAT     H141617   0.356   0.411   1.152
13345WAT     H241618   0.362   0.309   1.040
13346WAT      O41619   0.902   0.513   1.183
13346WAT     H141620   0.817   0.483   1.215
13346WAT     H241621   0.886   0.537   1.092
13347WAT      O41622   0.611   0.663   1.393
13347WAT     H141623   0.644   0.579   1.359
13347WAT     H241624   0.690   0.715   1.408
13348WAT      O41625   0.196   0.706   1.349
13348WAT     H141626   0.187   0.612   1.334
13348WAT     H241627   0.281   0.728   1.310
13349WAT      O41628   0.536   0.480   0.346
13349WAT     H141629   0.575   0.512   0.264
13349WAT     H241630   0.572   0.393   0.357
13350WAT      O41631   0.367   0.356   1.472
13350WAT     H141632   0.298   0.336   1.535
13350WAT     H241633   0.441   0.384   1.525
13351WAT      O41634   0.594   0.740   0.755
13351WAT     H141635   0.521   0.790   0.790
13351WAT     H241636   0.555   0.658   0.725
13352WAT      O41637   0.238   0.407   0.596
13352WAT     H141638   0.239   0.363   0.511
13352WAT     H241639   0.328   0.439   0.606
13353WAT      O41640   0.641   0.285   0.696
13353WAT     H141641   0.642   0.330   0.781
13353WAT     H241642   0.616   0.195   0.718
13354WAT      O41643   0.268   0.813   0.770
13354WAT     H141644   0.305   0.766   0.845
13354WAT     H241645   0.249   0.901   0.804
13355WAT      O41646   0.976   1.037   0.641
13355WAT     H141647   1.048   1.087   0.602
13355WAT     H241648   0.956   0.970   0.577
13356WAT      O41649   0.514   1.045   1.230
13356WAT     H141650   0.507   0.952   1.204
13356WAT     H241651   0.451   1.054   1.301
13357WAT      O41652   0.507   1.327   1.205
13357WAT     H141653   0.509   1.234   1.183
13357WAT     H241654   0.437   1.335   1.269
13358WAT      O41655   1.128   0.991   1.140
13358WAT     H141656   1.056   1.050   1.120
13358WAT     H241657   1.181   0.990   1.060
13359WAT      O41658   0.681   1.163   0.489
13359WAT     H141659   0.717   1.104   0.423
13359WAT     H241660   0.593   1.131   0.507
13360WAT      O41661   0.290   1.239   0.230
13360WAT     H141662   0.359   1.294   0.268
13360WAT     H241663   0.211   1.294   0.234
13361WAT      O41664   0.220   0.940   0.191
13361WAT     H141665   0.266   1.021   0.214
13361WAT     H241666   0.185   0.908   0.275
13362WAT      O41667   0.451   1.491   0.914
13362WAT     H141668   0.515   1.512   0.982
13362WAT     H241669   0.487   1.415   0.869
13363WAT      O41670   0.578   1.291   0.786
13363WAT     H141671   0.642   1.221   0.797
13363WAT     H241672   0.630   1.369   0.768
13364WAT      O41673   0.755   1.371   1.106
13364WAT     H141674   0.789   1.430   1.174
13364WAT     H241675   0.663   1.358   1.129
13365WAT      O41676   0.338   1.376   1.423
13365WAT     H141677   0.306   1.304   1.478
13365WAT     H241678   0.271   1.444   1.431
13366WAT      O41679   0.660   0.399   0.960
13366WAT     H141680   0.697   0.317   0.992
13366WAT     H241681   0.574   0.405   1.001
13367WAT      O41682   0.356   0.665   0.982
13367WAT     H141683   0.406   0.712   1.049
13367WAT     H241684   0.370   0.572   1.003
13368WAT      O41685   0.596   0.195   0.326
13368WAT     H141686   0.584   0.197   0.231
13368WAT     H241687   0.691   0.200   0.338
13369WAT      O41688   0.305   1.719   0.253
13369WAT     H141689   0.331   1.715   0.161
13369WAT     H241690   0.210   1.706   0.253
13370WAT      O41691   1.076   0.286   1.066
13370WAT     H141692   1.026   0.360   1.100
13370WAT     H241693   1.158   0.325   1.035
13371WAT      O41694   0.906   0.811   0.411
13371WAT     H141695   0.812   0.812   0.428
13371WAT     H241696   0.937   0.732   0.456
13372WAT      O41697   1.106   1.528   0.579
13372WAT     H141698   1.118   1.610   0.626
13372WAT     H241699   1.193   1.507   0.544
13373WAT      O41700   0.637   1.266   1.459
13373WAT     H141701   0.577   1.269   1.385
13373WAT     H241702   0.607   1.193   1.513
13374WAT      O41703   0.780   1.639   1.320
13374WAT     H141704   0.876   1.631   1.315
13374WAT     H241705   0.766   1.706   1.388
13375WAT      O41706   0.945   1.218   1.368
13375WAT     H141707   1.019   1.252   1.318
13375WAT     H241708   0.869   1.235   1.313
13376WAT      O41709   0.813   1.023   1.222
13376WAT     H141710   0.854   1.039   1.306
13376WAT     H241711   0.719   1.036   1.238
13377WAT      O41712   0.860   0.757   1.422
13377WAT     H141713   0.918   0.682   1.413
13377WAT     H241714   0.878   0.810   1.344
13378WAT      O41715   0.289   1.018   1.019
13378WAT     H141716   0.331   1.103   1.001
13378WAT     H241717   0.197   1.032   0.996
13379WAT      O41718   0.523   0.792   1.157
13379WAT     H141719   0.534   0.732   1.231
13379WAT     H241720   0.608   0.795   1.115
13380WAT      O41721   0.756   0.847   1.015
13380WAT     H141722   0.704   0.899   0.954
13380WAT     H241723   0.791   0.910   1.078
13381WAT      O41724   0.681   0.408   1.306
13381WAT     H141725   0.612   0.341   1.299
13381WAT     H241726   0.753   0.363   1.350
13382WAT      O41727   0.360   1.773   1.156
13382WAT     H141728   0.352   1.863   1.187
13382WAT     H241729   0.269   1.741   1.153
13383WAT      O41730   1.112   1.542   1.189
13383WAT     H141731   1.052   1.548   1.115
13383WAT     H241732   1.125   1.448   1.202
13384WAT      O41733   1.283   1.076   0.457
13384WAT     H141734   1.320   0.998   0.417
13384WAT     H241735   1.347   1.145   0.440
13385WAT      O41736   0.981   1.215   0.999
13385WAT     H141737   0.899   1.258   1.025
13385WAT     H241738   1.022   1.276   0.937
13386WAT      O41739   1.177   0.814   0.188
13386WAT     H141740   1.139   0.737   0.145
13386WAT     H241741   1.104   0.852   0.237
13387WAT      O41742   1.116   0.729   1.151
13387WAT     H141743   1.093   0.706   1.061
13387WAT     H241744   1.142   0.821   1.147
13388WAT      O41745   0.960   0.251   1.429
13388WAT     H141746   1.047   0.252   1.467
13388WAT     H241747   0.961   0.177   1.368
13389WAT      O41748   1.104   0.636   0.518
13389WAT     H141749   1.157   0.587   0.455
13389WAT     H241750   1.163   0.650   0.592
13390WAT      O41751   1.122   0.645   0.870
13390WAT     H141752   1.027   0.641   0.882
13390WAT     H241753   1.140   0.736   0.847
13391WAT      O41754   1.196   0.426   0.365
13391WAT     H141755   1.185   0.410   0.459
13391WAT     H241756   1.272   0.373   0.341
13392WAT      O41757   0.987   1.690   0.351
13392WAT     H141758   1.046   1.658   0.284
13392WAT     H241759   1.012   1.643   0.430
13393WAT      O41760   1.273   1.691   1.006
13393WAT     H141761   1.224   1.730   0.935
13393WAT     H241762   1.213   1.628   1.046
13394WAT      O41763   1.042   1.755   0.734
13394WAT     H141764   0.996   1.830   0.697
13394WAT     H241765   0.979   1.683   0.728
13395WAT      O41766   0.359   1.675   0.734
13395WAT     H141767   0.387   1.649   0.647
13395WAT     H241768   0.410   1.620   0.794
13396WAT      O41769   0.269   0.291   0.344
13396WAT     H141770   0.188   0.253   0.310
13396WAT     H241771   0.319   0.215   0.374
13397WAT      O41772   0.365   1.767   1.471
13397WAT     H141773   0.458   1.743   1.476
13397WAT     H241774   0.364   1.850   1.423
13398WAT      O41775   1.022   1.690   1.454
13398WAT     H141776   1.101   1.640   1.433
13398WAT     H241777   1.052   1.758   1.514
   8.20860   9.23552   6.82766
