default_name
 32629
  50.8849422  38.8234543  15.4786589  51.5679422  40.0394543  15.4796589
  52.9709422  40.0714543  15.4736589  53.6749422  41.2834543  15.4696589
  55.0719422  41.2974543  15.4676589  55.8019422  40.1004543  15.4696589
  57.2049422  40.0974543  15.4716589  57.9129422  38.8964543  15.4726589
  57.2289422  37.6814543  15.4706589  55.8269422  37.6514543  15.4686589
  55.1229422  36.4394543  15.4676589  53.7259422  36.4244543  15.4666589
  52.9969422  37.6214543  15.4696589  51.5939422  37.6234543  15.4716589
  53.6909422  38.8544543  15.4706589  55.1079422  38.8684543  15.4696589
  49.7979422  38.8124543  15.4836589  50.9959422  40.9644543  15.4866589
  53.1409422  42.2304543  15.4686589  55.5869422  42.2554543  15.4646589
  57.7569422  41.0344543  15.4736589  58.9999422  38.9074543  15.4756589
  57.7999422  36.7554543  15.4706589  55.6569422  35.4924543  15.4666589
  53.2109422  35.4664543  15.4656589  51.0419422  36.6854543  15.4696589
  54.2289422  24.2274543  30.3966589  54.3939422  23.2794543  30.9026589
  53.9129422  24.1724543  29.3546589  51.8549422  30.0114543  32.8526589
  52.0879422  28.9854543  32.2336589  53.1749422  28.7924543  31.1876589
  53.1179422  29.5944543  30.4436589  52.8739422  27.4314543  30.5196589
  54.2529422  26.7414543  30.3136589  54.4119422  25.4054543  31.0126589
  55.3159422  27.7564543  30.8016589  54.5929422  28.6864543  31.7916589
  55.1599422  30.0784543  32.0466589  52.3859422  27.5964543  29.5486589
  51.3839422  27.7894543  32.3206589  50.0509422  27.7404543  32.9636589
  49.9979422  27.1794543  34.4046589  51.1129422  27.6494543  35.3816589
  52.4739422  26.9404543  35.2056589  52.2459422  25.5284543  35.3326589
  52.9179422  24.6754543  34.3816589  52.0299422  23.4164543  34.2046589
  50.8639422  23.7594543  33.4416589  52.7819422  22.2464543  33.5126589
  52.0139422  20.9084543  33.5846589  50.8169422  20.9764543  32.8076589
  54.0469422  22.0374543  34.1706589  54.9429422  23.1544543  34.1196589
  56.1629422  22.7894543  34.7376589  54.3259422  24.3194543  34.9186589
  55.2049422  25.4534543  34.8356589  51.8329422  26.7904543  31.4546589
  51.3959422  25.6514543  31.4096589  54.4019422  26.5824543  29.2376589
  54.7459422  25.4454543  32.0476589  55.6869422  28.3364543  29.9466589
  56.1669422  27.2414543  31.2636589  54.5129422  28.1604543  32.7536589
  54.3929422  30.7824543  32.3716589  49.3799422  27.1444543  32.3296589
  49.6439422  28.7584543  32.9786589  49.0289422  27.4624543  34.8306589
  49.9839422  26.0864543  34.3586589  51.2479422  28.7334543  35.2956589
  50.7699422  27.4634543  36.4066589  53.1669422  27.2894543  35.9766589
  52.9139422  27.1904543  34.2346589  53.0159422  25.1644543  33.4066589
  51.7319422  23.0724543  35.2056589  51.1299422  24.3364543  32.6886589
  52.9489422  22.4934543  32.4566589  52.6619422  20.1054543  33.2086589
  51.7819422  20.6784543  34.6326589  50.4209422  21.8564543  32.9826589
  55.1239422  23.4494543  33.0796589  56.5959422  23.6484543  34.8926589
  54.2219422  23.9734543  35.9576589  55.2099422  25.8804543  35.7316589
  58.5979422  34.1394543  30.6426589  58.4039422  32.9754543  30.3266589
  59.1889422  31.7514543  30.8086589  60.1699422  31.7424543  30.3156589
  58.3479422  30.5434543  30.3076589  57.7259422  29.9034543  31.5686589
  56.4089422  30.5704543  31.9476589  58.7839422  30.1994543  32.6486589
  59.2999422  31.6284543  32.3526589  60.6929422  31.9354543  32.8886589
  58.9859422  29.8234543  29.7816589  57.4119422  32.5234543  29.4596589
  56.6989422  33.4314543  28.5386589  55.5709422  34.2694543  29.1846589
  54.5779422  33.5214543  30.1096589  53.8779422  32.2774543  29.5286589
  53.4769422  32.5434543  28.1766589  52.6669422  31.5244543  27.5446589
  53.5499422  30.4004543  26.9276589  54.1209422  29.5894543  27.9576589
  52.7099422  29.4954543  25.9776589  53.5579422  28.4634543  25.2016589
  54.0429422  27.4554543  26.0936589  52.0469422  30.3224543  24.9996589
  51.1049422  31.2534543  25.5516589  50.5019422  31.9824543  24.5016589
  51.8739422  32.2534543  26.4386589  50.9569422  33.1684543  27.0446589
  57.3359422  31.1384543  29.3326589  56.6119422  30.5194543  28.5696589
  57.6269422  28.8234543  31.4436589  56.5239422  31.6224543  32.1936589
  59.6059422  29.4794543  32.5516589  58.3599422  30.0984543  33.6546589
  58.6029422  32.3474543  32.7956589  61.4089422  32.2724543  32.1376589
  56.2639422  32.8404543  27.7236589  57.4319422  34.1114543  28.0846589
  56.0419422  35.0644543  29.7756589  55.0139422  34.7734543  28.3856589
  55.1059422  33.2114543  31.0136589  53.8069422  34.2314543  30.4326589
  53.0079422  32.0344543  30.1526589  54.5649422  31.4304543  29.5756589
  51.9519422  31.0844543  28.2526589  54.3409422  30.8724543  26.3256589
  54.9989422  29.9814543  28.1926589  51.9569422  28.9494543  26.5626589
  52.9369422  28.0034543  24.4206589  54.3919422  28.9744543  24.7016589
  54.3399422  27.9254543  26.8986589  50.3389422  30.7254543  26.1346589
  50.1549422  32.7694543  24.9636589  52.5869422  32.7844543  25.7896589
  51.4789422  33.6894543  27.6866589  62.8159422  28.9024543  38.3916589
  62.1799422  29.1374543  37.3756589  60.8669422  29.9124543  37.2856589
  60.0929422  29.3804543  37.8466589  60.5029422  29.9424543  35.7826589
  60.2909422  31.4284543  35.3736589  61.1139422  31.8524543  34.1656589
  60.5809422  32.3024543  36.6196589  61.0159422  31.3664543  37.7706589
  60.3229422  31.5794543  39.1096589  59.5849422  29.3624543  35.6146589
  62.5469422  28.7894543  36.0846589  63.6659422  27.8654543  35.8036589
  65.0799422  28.4594543  36.0166589  65.3089422  29.9214543  35.5526589
  64.9439422  30.2484543  34.0886589  65.4509422  29.2124543  33.2336589
  65.3499422  29.4554543  31.8116589  63.9469422  29.0664543  31.2656589
  62.9659422  30.0104543  31.7046589  63.9469422  29.0264543  29.7086589
  62.6299422  28.4804543  29.1116589  61.5629422  29.3924543  29.3866589
  65.0139422  28.1704543  29.2526589  66.3269422  28.6124543  29.6236589
  67.2879422  27.7174543  29.0996589  66.4369422  28.5764543  31.1606589
  67.7269422  29.0414543  31.5686589  61.6549422  29.1974543  35.0966589
  61.7569422  28.9544543  33.9046589  59.2289422  31.5594543  35.1426589
  62.1489422  32.1104543  34.3886589  59.6949422  32.8884543  36.8906589
  61.3749422  33.0324543  36.4146589  62.0879422  31.5564543  37.9276589
  61.0269422  31.6994543  39.9336589  63.5909422  27.5294543  34.7616589
  63.5509422  26.9744543  36.4306589  65.3089422  28.4134543  37.0876589
  65.8099422  27.8024543  35.5266589  64.7479422  30.5984543  36.2086589
  66.3679422  30.1644543  35.7046589  65.3769422  31.2204543  33.8216589
  63.8579422  30.3344543  34.0036589  65.5589422  30.5074543  31.5726589
  63.6999422  28.0574543  31.6316589  62.5879422  29.6694543  32.5526589
  64.1059422  30.0424543  29.3206589  62.7509422  28.3534543  28.0266589
  62.4179422  27.4924543  29.5416589  61.7699422  29.7654543  30.2706589
  66.5119422  29.6274543  29.2456589  68.0579422  27.8784543  29.6806589
  66.2779422  27.5334543  31.4766589  67.6789422  29.1294543  32.5426589
  55.6279422  30.3444543  42.2406589  56.1329422  30.1414543  41.1506589
  55.8439422  30.9104543  39.8636589  54.8179422  30.7014543  39.5596589
  56.8309422  30.3154543  38.8266589  57.8119422  31.4544543  38.4606589
  59.0089422  31.5814543  39.4036589  56.9019422  32.6884543  38.6166589
  56.0949422  32.4344543  39.9136589  54.8099422  33.2164543  40.1996589
  56.2809422  29.9904543  37.9336589  57.0369422  29.1274543  40.8406589
  57.3229422  28.0094543  41.7636589  58.3649422  28.3234543  42.8636589
  59.6259422  29.1224543  42.4386589  60.4829422  28.5474543  41.2866589
  60.6209422  27.1274543  41.4546589  61.6269422  26.5254543  40.6096589
  60.9909422  25.8414543  39.3696589  60.3949422  26.8054543  38.4966589
  62.0949422  25.0604543  38.5986589  61.5729422  24.2854543  37.3696589
  61.2149422  25.2074543  36.3346589  62.6989422  24.1044543  39.4966589
  63.3769422  24.6924543  40.6186589  63.9249422  23.6704543  41.4266589
  62.3499422  25.4684543  41.4676589  63.0079422  26.1144543  42.5616589
  57.4399422  29.1004543  39.5096589  58.1009422  28.2274543  38.9736589
  58.1309422  31.3344543  37.4196589  58.7449422  31.7164543  40.4506589
  56.2289422  32.6894543  37.7526589  57.4679422  33.6284543  38.6416589
  56.7649422  32.6354543  40.7606589  54.4059422  32.9634543  41.1816589
  57.6869422  27.1544543  41.1796589  56.3849422  27.6954543  42.2386589
  57.8589422  28.8974543  43.6496589  58.6719422  27.3804543  43.3306589
  59.3319422  30.1454543  42.1766589  60.2699422  29.2174543  43.3206589
  61.4639422  29.0384543  41.3086589  60.0309422  28.7834543  40.3196589
  62.3689422  27.2644543  40.2746589  60.2369422  25.1174543  39.7116589
  59.6009422  27.1904543  38.9366589  62.8609422  25.7684543  38.2566589
  62.3599422  23.6074543  37.0116589  60.7109422  23.6714543  37.6616589
  60.6959422  25.9104543  36.7786589  64.1739422  25.3664543  40.2696589
  64.0469422  24.1264543  42.2806589  61.6059422  24.7434543  41.8316589
  62.3519422  26.7394543  42.9276589  49.9779422  34.4394543  37.0546589
  51.1379422  34.0644543  37.0696589  52.3569422  34.8964543  36.6826589
  52.3169422  35.0944543  35.6026589  53.5699422  33.9864543  36.9946589
  54.3909422  34.6904543  38.1026589  54.1079422  34.1204543  39.4816589
  53.9809422  36.1704543  37.9916589  52.5179422  36.2024543  37.4986589
  52.1649422  37.4124543  36.6496589  54.1749422  33.8714543  36.0976589
  51.5829422  32.7934543  37.4176589  50.6579422  31.6454543  37.5276589
  49.8529422  31.5814543  38.8466589  50.6389422  31.8334543  40.1596589
  51.8939422  30.9664543  40.3926589  51.6189422  29.6084543  40.0136589
  52.6529422  28.6664543  40.3696589  53.1109422  27.9114543  39.0976589
  53.8069422  28.8064543  38.2256589  54.0389422  26.7184543  39.4706589
  54.3929422  25.8214543  38.2656589  55.2079422  26.5494543  37.3416589
  53.3709422  25.8874543  40.4416589  53.0449422  26.5404543  41.6796589
  52.4119422  25.6164543  42.5396589  52.0469422  27.6774543  41.3856589
  51.7279422  28.3624543  42.6016589  52.9639422  32.6274543  37.3486589
  53.5709422  31.5754543  37.4736589  55.4579422  34.6554543  37.8816589
  53.1999422  34.5174543  39.9346589  54.6349422  36.6354543  37.2416589
  54.1159422  36.7164543  38.9316589  51.8439422  36.1524543  38.3656589
  51.2739422  37.2804543  36.0316589  51.2319422  30.7154543  37.4266589
  49.9569422  31.6804543  36.6836589  49.0489422  32.3254543  38.7926589
  49.3559422  30.6044543  38.9036589  50.9329422  32.8894543  40.2046589
  49.9529422  31.6774543  41.0006589  52.1809422  31.0324543  41.4496589
  52.7209422  31.3674543  39.8006589  53.5169422  29.1604543  40.8366589
  52.2179422  27.5044543  38.5976589  53.2709422  29.6204543  38.1076589
  54.9729422  27.1014543  39.9036589  54.9259422  24.9294543  38.6236589
  53.4639422  25.4824543  37.7866589  54.9389422  27.4914543  37.4396589
  53.9519422  26.9374543  42.1566589  51.9399422  26.2014543  43.1636589
  51.1469422  27.2234543  40.9436589  51.1759422  29.1284543  42.3526589
  54.0569422  43.6554543  37.5376589  53.3519422  42.6964543  37.2836589
  53.1639422  42.0454543  35.9136589  52.8509422  42.7944543  35.1746589
  52.0539422  40.9784543  36.1286589  52.5669422  39.6364543  35.5396589
  52.8739422  38.5494543  36.5506589  53.8589422  39.9924543  34.7866589
  54.4109422  41.2674543  35.4406589  55.3579422  42.0104543  34.5166589
  51.1329422  41.2964543  35.6236589  52.5759422  41.9884543  38.1966589
  52.3889422  42.4404543  39.5946589  53.5709422  42.1764543  40.5636589
  54.4299422  40.9044543  40.3366589  53.6779422  39.5634543  40.2116589
  52.6799422  39.4624543  41.2406589  51.7439422  38.3764543  41.0506589
  50.3439422  38.8344543  41.5336589  49.8579422  39.9014543  40.7116589
  49.3319422  37.6454543  41.5286589  47.9949422  37.9874543  42.2226589
  47.2829422  38.9744543  41.4736589  49.8979422  36.5204543  42.2416589
  51.1439422  36.0354543  41.7246589  51.5789422  34.9274543  42.4876589
  52.1839422  37.1584543  41.8926589  53.4819422  36.6894543  41.5146589
  51.7919422  40.9794543  37.6346589  51.0079422  40.2594543  38.2346589
  51.8279422  39.2514543  34.8236589  53.7679422  38.7164543  37.1476589
  53.6169422  40.1624543  33.7306589  54.6059422  39.1924543  34.8386589
  54.9739422  40.9544543  36.3316589  56.3489422  42.1874543  34.9366589
  51.5029422  41.9424543  40.0036589  52.1679422  43.5164543  39.5866589
  54.2469422  43.0384543  40.5046589  53.1809422  42.1724543  41.5886589
  55.0349422  41.0434543  39.4326589  55.1409422  40.8234543  41.1656589
  54.4019422  38.7424543  40.2746589  53.2129422  39.5084543  39.2246589
  51.6719422  38.0894543  39.9916589  50.4379422  39.1884543  42.5706589
  50.3219422  39.8834543  39.8436589  49.1189422  37.3504543  40.4916589
  47.3909422  37.0734543  42.3066589  48.1949422  38.3454543  43.2416589
  47.9499422  39.6294543  41.1746589  51.0389422  35.7484543  40.6686589
  52.5509422  35.0324543  42.4596589  52.1769422  37.4524543  42.9536589
  54.0939422  37.4314543  41.6906589  53.9259422  40.7064543  29.0456589
  54.8479422  40.8454543  29.8316589  55.7179422  42.0884543  29.9886589
  56.3669422  42.1594543  29.1086589  56.5809422  41.8134543  31.2416589
  56.1589422  42.8724543  32.2926589  55.1039422  42.3314543  33.2376589
  55.6199422  44.0474543  31.4476589  54.9339422  43.4004543  30.2256589
  54.9079422  44.2474543  28.9636589  57.6439422  41.9314543  30.9916589
  55.3339422  39.8664543  30.6946589  55.3809422  38.4554543  30.2346589
  54.0629422  37.6574543  30.3546589  53.4309422  37.5994543  31.7606589
  54.3789422  37.2564543  32.9216589  55.0719422  36.0294543  32.6696589
  55.8409422  35.5614543  33.8016589  57.2839422  36.1454543  33.8036589
  57.2539422  37.5184543  34.2176589  58.2169422  35.3774543  34.7966589
  59.7129422  35.6784543  34.5616589  60.0389422  36.9614543  35.0966589
  58.0509422  33.9464543  34.6966589  56.7109422  33.4874543  34.8756589
  56.6739422  32.0744543  34.8536589  55.8979422  34.0304543  33.6906589
  54.5739422  33.4884543  33.6836589  56.3089422  40.3404543  31.5796589
  56.9059422  39.6634543  32.4036589  57.0409422  43.1934543  32.8666589
  54.1279422  42.1364543  32.7956589  56.4679422  44.6604543  31.1166589
  54.9379422  44.6914543  32.0176589  53.9089422  43.1294543  30.5046589
  54.8789422  43.6684543  28.0386589  56.1619422  37.9204543  30.7896589
  55.6879422  38.4534543  29.1816589  53.3249422  38.0814543  29.6626589
  54.2449422  36.6354543  30.0106589  52.9929422  38.5764543  31.9786589
  52.5999422  36.8844543  31.7496589  53.7839422  37.1824543  33.8406589
  55.0919422  38.0754543  33.0406589  55.3449422  35.8194543  34.7486589
  57.7039422  36.0444543  32.7906589  57.0829422  38.1014543  33.4426589
  57.9679422  35.6834543  35.8226589  60.3169422  34.9054543  35.0556589
  59.9359422  35.6304543  33.4866589  59.3339422  37.5774543  34.8126589
  56.3119422  33.8554543  35.8276589  55.7629422  31.8864543  34.5436589
  56.4399422  33.7794543  32.7656589  54.0779422  34.0074543  33.0166589
  51.3679422  49.1784543  27.9006589  51.9849422  48.1594543  27.6386589
  53.3469422  48.0784543  26.9556589  53.2739422  48.5214543  25.9526589
  53.6579422  46.5624543  26.8476589  55.0229422  46.3164543  27.5506589
  54.9419422  45.5884543  28.8836589  55.6509422  47.7174543  27.7016589
  54.4839422  48.7164543  27.7826589  54.8699422  50.1034543  27.3046589
  53.7209422  46.2744543  25.7906589  51.5679422  46.8614543  27.9016589
  50.1909422  46.5634543  28.3526589  49.9189422  46.8274543  29.8536589
  51.0249422  46.4024543  30.8576589  51.5609422  44.9624543  30.7256589
  50.4699422  44.0714543  30.4376589  50.8509422  42.7044543  30.1736589
  49.9429422  42.1364543  29.0536589  50.2089422  42.7974543  27.8106589
  50.1529422  40.5994543  28.8936589  49.1339422  39.9424543  27.9346589
  49.3669422  40.3734543  26.5936589  49.9959422  39.9554543  30.1796589
  50.9149422  40.4014543  31.1846589  50.6689422  39.7144543  32.3946589
  50.6289422  41.8864543  31.4636589  51.4479422  42.3564543  32.5416589
  52.4409422  45.8684543  27.4586589  52.2349422  44.6644543  27.4896589
  55.6589422  45.7194543  26.8806589  54.9599422  46.2074543  29.7806589
  56.2469422  47.9294543  26.8086589  56.3179422  47.7964543  28.5706589
  54.1629422  48.7714543  28.8326589  54.7369422  50.8924543  28.0456589
  49.9729422  45.5094543  28.1426589  49.4889422  47.1564543  27.7526589
  49.7479422  47.9034543  29.9856589  48.9769422  46.3374543  30.1266589
  51.8719422  47.0944543  30.7696589  50.6299422  46.5344543  31.8716589
  52.0809422  44.6864543  31.6496589  52.3009422  44.9294543  29.9216589
  51.8939422  42.6194543  29.8436589  48.8949422  42.3044543  29.3406589
  50.9829422  43.3974543  27.9116589  51.1649422  40.4064543  28.5096589
  49.2329422  38.8494543  27.9996589  48.1159422  40.2014543  28.2536589
  49.5789422  41.3294543  26.6446589  51.9519422  40.2554543  30.8546589
  50.8469422  40.4264543  33.0386589  49.5629422  41.9654543  31.7316589
  51.2449422  43.3114543  32.6076589  59.1069422  51.4004543  22.2816589
  58.5639422  51.3534543  23.3726589  57.3949422  52.2114543  23.8356589
  57.6149422  53.2634543  23.6526589  57.2719422  51.9524543  25.3566589
  55.7549422  51.7914543  25.6536589  55.3569422  50.3944543  26.0866589
  55.0469422  52.1884543  24.3406589  56.0359422  51.8354543  23.2116589
  55.8659422  52.4534543  21.8236589  57.6869422  52.8074543  25.9086589
  58.9249422  50.5334543  24.4336589  60.2439422  49.8604543  24.4696589
  60.3789422  48.6054543  23.5756589  59.1619422  47.6474543  23.5196589
  58.5529422  47.2354543  24.8746589  59.6089422  46.8884543  25.7876589
  59.1659422  46.5664543  27.1236589  60.1789422  47.1434543  28.1426589
  60.1329422  48.5764543  28.1336589  59.8799422  46.6284543  29.5826589
  60.9829422  46.9994543  30.5986589  60.9269422  48.3964543  30.8896589
  59.7659422  45.1864543  29.5776589  58.7389422  44.6664543  28.7236589
  58.7239422  43.2564543  28.8056589  59.0959422  45.0314543  27.2706589
  58.1239422  44.4624543  26.3846589  58.1849422  50.7424543  25.6006589
  58.3079422  50.1124543  26.6406589  55.4699422  52.5054543  26.4406589
  55.4959422  49.6124543  25.3406589  54.8799422  53.2724543  24.3676589
  54.0779422  51.6834543  24.2246589  56.0169422  50.7424543  23.0926589
  56.6609422  52.1354543  21.1476589  60.4589422  49.5644543  25.5036589
  61.0149422  50.5864543  24.1826589  60.5899422  48.9354543  22.5496589
  61.2659422  48.0454543  23.8976589  58.3719422  48.1124543  22.9156589
  59.4629422  46.7424543  22.9806589  57.8639422  46.3984543  24.7176589
  57.9659422  48.0694543  25.2686589  58.1839422  46.9984543  27.3376589
  61.1849422  46.8024543  27.8586589  59.4759422  48.8924543  27.4736589
  58.9339422  47.0634543  29.9326589  60.8319422  46.4204543  31.5206589
  61.9659422  46.7254543  30.1916589  60.8389422  48.8604543  30.0306589
  57.7569422  45.0754543  28.9996589  58.4449422  43.0214543  27.8976589
  60.0969422  44.6204543  27.0666589  58.4309422  44.6704543  25.4796589
  54.5699422  57.9774543  19.9556589  54.5769422  57.1404543  20.8406589
  53.3839422  56.3114543  21.3126589  52.6189422  56.9784543  21.7336589
  53.9499422  55.3814543  22.4206589  53.7129422  53.9204543  21.9436589
  54.9479422  53.2974543  21.3036589  52.5719422  54.0514543  20.9126589
  52.7979422  55.4054543  20.2076589  51.5799422  56.0224543  19.5406589
  53.4219422  55.5664543  23.3646589  55.6769422  56.7634543  21.5996589
  56.9729422  57.4724543  21.5066589  57.8229422  57.0984543  20.2686589
  58.0159422  55.5854543  19.9896589  58.6469422  54.7594543  21.1286589
  59.8259422  55.4304543  21.5956589  60.5659422  54.7194543  22.6096589
  60.3489422  55.3954543  23.9876589  59.0029422  55.1964543  24.4316589
  61.3389422  54.8144543  25.0406589  61.2879422  55.5424543  26.4016589
  60.0439422  55.2744543  27.0546589  62.6849422  54.9414543  24.5376589
  62.9439422  54.2174543  23.3246589  64.2919422  54.4094543  22.9456589
  62.0519422  54.7944543  22.2086589  62.2579422  54.0584543  20.9986589
  55.4129422  55.8084543  22.5786589  56.1939422  55.4324543  23.4386589
  53.3409422  53.3024543  22.7646589  55.0829422  53.5814543  20.2606589
  51.6169422  54.0694543  21.4546589  52.5439422  53.2114543  20.2046589
  53.5709422  55.2654543  19.4376589  51.7459422  57.0294543  19.1496589
  57.5589422  57.2654543  22.4096589  56.7779422  58.5524543  21.4896589
  57.3519422  57.5434543  19.3826589  58.8049422  57.5784543  20.3596589
  57.0489422  55.1394543  19.7296589  58.6469422  55.4794543  19.0986589
  58.8929422  53.7584543  20.7516589  57.9249422  54.6414543  21.9386589
  60.2739422  53.6604543  22.6636589  60.5619422  56.4694543  23.8826589
  58.3869422  55.5404543  23.7516589  61.1119422  53.7534543  25.2106589
  62.1219422  55.1944543  27.0266589  61.4199422  56.6204543  26.2446589
  59.3529422  55.3464543  26.3636589  62.7409422  53.1474543  23.4676589
  64.2739422  54.1924543  21.9936589  62.3289422  55.8514543  22.0756589
  61.5489422  54.3404543  20.3866589  50.3699422  55.4564543  19.3976589
  50.1389422  54.4524543  19.7486589  49.5609422  55.9884543  18.8986589
  39.6259422  23.6994543  41.3636589  40.7129422  23.7664543  41.3666589
  39.1599422  23.2254543  42.2286589  36.4799422  28.4664543  38.8196589
  36.7139422  27.5454543  39.5846589  36.1699422  26.1244543  39.4836589
  35.0719422  26.1544543  39.4836589  36.6659422  25.3974543  40.7596589
  37.3759422  24.1024543  40.2846589  38.8929422  24.1834543  40.3506589
  36.9159422  23.9164543  38.8216589  36.7159422  25.3424543  38.2646589
  35.8019422  25.5304543  37.0606589  35.8119422  25.1524543  41.4036589
  37.5249422  27.5964543  40.7116589  38.1479422  28.8554543  41.1706589
  39.3759422  29.3324543  40.3506589  40.3489422  28.2464543  39.8166589
  40.8629422  27.2064543  40.8346589  41.2109422  27.8624543  42.0636589
  41.3989422  26.9764543  43.1926589  40.8909422  27.7144543  44.4576589
  39.4669422  27.8534543  44.4026589  41.2999422  26.9684543  45.7636589
  41.0109422  27.7834543  47.0446589  39.6029422  27.9304543  47.2336589
  42.7209422  26.7214543  45.7386589  43.1669422  25.8964543  44.6546589
  44.5629422  25.6944543  44.7696589  42.9039422  26.6434543  43.3326589
  43.3539422  25.8344543  42.2386589  37.5379422  26.4304543  41.4796589
  38.0999422  26.2874543  42.5546589  37.0339422  23.2524543  40.8926589
  39.3859422  24.6514543  39.4986589  35.9679422  23.3624543  38.7956589
  37.6679422  23.3444543  38.2656589  37.7039422  25.7564543  38.0126589
  35.2419422  26.4634543  37.1036589  38.4689422  28.7244543  42.2086589
  37.3869422  29.6444543  41.1776589  39.0069422  29.8934543  39.4846589
  39.9359422  30.0534543  40.9576589  39.8639422  27.7054543  38.9956589
  41.2139422  28.7544543  39.3746589  41.7189422  26.6744543  40.4066589
  40.0779422  26.4684543  41.0106589  40.8299422  26.0414543  43.0746589
  41.3589422  28.7084543  44.4836589  39.1049422  27.1944543  43.7636589
  40.7609422  26.0144543  45.8296589  41.4529422  27.2634543  47.9056589
  41.4949422  28.7654543  46.9666589  39.2199422  28.0954543  46.3456589
  42.6429422  24.9304543  44.6666589  44.8079422  25.4204543  43.8646589
  43.4659422  27.5894543  43.3786589  43.2159422  26.3634543  41.4306589
  33.1369422  23.1994543  32.2216589  33.6449422  22.9534543  33.3016589
  35.1009422  22.5544543  33.5496589  35.2959422  21.5834543  33.0776589
  35.2059422  22.4054543  35.0916589  36.2509422  23.4434543  35.5666589
  35.6099422  24.7664543  35.9676589  37.1259422  23.6534543  34.3226589
  36.1469422  23.6234543  33.1236589  36.7669422  23.3314543  31.7606589
  35.5229422  21.3894543  35.3526589  32.9949422  22.9764543  34.5336589
  31.5249422  23.0954543  34.6536589  30.9409422  24.5124543  34.4256589
  31.7369422  25.7204543  34.9896589  32.1259422  25.6734543  36.4816589
  31.0039422  25.2364543  37.2666589  31.1569422  25.3624543  38.7016589
  31.9429422  24.1664543  39.3106589  33.3159422  24.2114543  38.9136589
  31.8609422  24.1964543  40.8656589  32.5139422  22.9704543  41.5446589
  33.9339422  23.0154543  41.3716589  30.4729422  24.2204543  41.2576589
  29.7509422  25.3814543  40.8206589  28.4149422  25.2974543  41.2746589
  29.7269422  25.3954543  39.2786589  29.0599422  26.5724543  38.8106589
  33.7949422  22.6354543  35.6206589  33.4339422  22.5284543  36.7826589
  36.8529422  23.0124543  36.3636589  34.9089422  25.1474543  35.2266589
  37.8369422  22.8224543  34.2446589  37.6989422  24.5814543  34.4106589
  35.6329422  24.5924543  33.0626589  36.2749422  22.5314543  31.2056589
  31.2309422  22.7674543  35.6586589  31.0599422  22.3994543  33.9436589
  30.8409422  24.6644543  33.3446589  29.9209422  24.5334543  34.8276589
  32.6499422  25.8494543  34.3966589  31.1419422  26.6244543  34.8186589
  32.4529422  26.6744543  36.7926589  32.9709422  24.9964543  36.6046589
  31.6599422  26.3034543  38.9636589  31.4759422  23.2314543  38.9646589
  33.3869422  23.6754543  38.0856589  32.3599422  25.0994543  41.2396589
  32.2639422  22.9774543  42.6136589  32.0989422  22.0494543  41.1136589
  34.0769422  23.2584543  40.4326589  30.2239422  26.2944543  41.2076589
  27.9489422  25.9054543  40.6676589  29.1979422  24.4884543  38.9486589
  29.2069422  26.5894543  37.8436589  42.7799422  24.2294543  29.8586589
  41.9019422  24.1434543  30.7016589  41.0859422  25.2934543  31.2836589
  41.7509422  25.9554543  31.8516589  40.0429422  24.6414543  32.2266589
  38.6329422  25.0984543  31.7406589  37.8079422  23.9534543  31.1736589
  38.8589422  26.2054543  30.6856589  40.3079422  26.0424543  30.1846589
  41.0159422  27.3104543  29.7486589  40.2159422  24.9694543  33.2606589
  41.4009422  22.9704543  31.2396589  42.0229422  21.6574543  30.9716589
  41.8389422  21.1324543  29.5246589  40.4499422  21.3544543  28.8696589
  39.2339422  20.7984543  29.6396589  39.5229422  19.4534543  30.0426589
  38.4339422  18.7284543  30.6566589  38.3739422  19.0044543  32.1866589
  37.8569422  20.3204543  32.4266589  37.4629422  17.9674543  32.9106589
  37.5469422  18.0514543  34.4526589  37.0539422  19.3154543  34.9006589
  37.8609422  16.6304543  32.5426589  37.7419422  16.3354543  31.1456589
  38.1229422  14.9944543  30.9166589  38.7269422  17.2404543  30.3826589
  38.6309422  16.9894543  28.9756589  40.3499422  23.1384543  32.1366589
  39.7979422  22.2394543  32.7536589  38.0929422  25.5664543  32.5706589
  38.1129422  23.6294543  30.1786589  38.7049422  27.1874543  31.1436589
  38.1419422  26.1354543  29.8566589  40.2499422  25.3754543  29.3116589
  41.4109422  27.2504543  28.7326589  41.5959422  20.9184543  31.6606589
  43.0949422  21.7254543  31.1966589  42.5859422  21.6234543  28.8886589
  42.0879422  20.0644543  29.5036589  40.2959422  22.4284543  28.7026589
  40.4659422  20.8954543  27.8736589  38.3519422  20.8294543  28.9876589
  39.0319422  21.4314543  30.5056589  37.4689422  18.9864543  30.1956589
  39.3909422  18.9054543  32.5966589  38.6079422  20.9594543  32.4126589
  36.4179422  18.1304543  32.6116589  36.9549422  17.2354543  34.8896589
  38.5899422  17.9104543  34.7666589  37.3299422  19.9604543  34.2156589
  36.7129422  16.5024543  30.7996589  38.3539422  15.0034543  29.9676589
  39.7379422  17.0094543  30.7526589  39.1759422  17.6784543  28.5456589
  43.9059422  31.8974543  31.1466589  43.4699422  30.9024543  31.6986589
  42.1459422  30.7944543  32.4606589  42.2199422  31.3634543  33.3966589
  42.0099422  29.2804543  32.7636589  40.8419422  28.7684543  31.8866589
  41.2639422  28.4254543  30.4586589  39.9209422  30.0004543  31.8436589
  40.8919422  31.1894543  31.6406589  40.3499422  32.5564543  32.0016589
  41.7939422  29.1274543  33.8296589  44.0949422  29.6574543  31.7586589
  45.5119422  29.4614543  31.3836589  45.7769422  29.2954543  29.8676589
  44.8669422  28.3104543  29.0856589  44.7389422  26.8684543  29.6306589
  46.0219422  26.4174543  30.0926589  46.0999422  25.0074543  30.4036589
  45.9129422  24.7594543  31.9256589  44.5579422  25.0064543  32.3146589
  46.2859422  23.2914543  32.2866589  46.2729422  23.0064543  33.8056589
  44.9319422  23.0504543  34.2996589  47.6179422  23.0074543  31.8116589
  47.7699422  23.0974543  30.3876589  49.1029422  22.7834543  30.0396589
  47.5049422  24.5534543  29.9606589  47.6139422  24.6714543  28.5386589
  43.3659422  28.6794543  32.4276589  43.7509422  27.5644543  32.7326589
  40.3639422  27.9144543  32.3776589  41.8319422  29.2054543  29.9576589
  39.4009422  30.1044543  32.8036589  39.1619422  29.9284543  31.0556589
  41.1869422  31.2344543  30.5836589  41.1039422  33.3434543  32.0276589
  45.8909422  28.5724543  31.9006589  46.0919422  30.3174543  31.7516589
  45.6819422  30.2814543  29.3956589  46.8239422  29.0004543  29.7326589
  43.8639422  28.7414543  28.9986589  45.2509422  28.2504543  28.0606589
  44.3689422  26.2244543  28.8216589  43.9979422  26.8324543  30.4326589
  45.3499422  24.4264543  29.8436589  46.5969422  25.4254543  32.4716589
  44.4029422  25.9794543  32.2946589  45.5739422  22.6094543  31.8026589
  46.7079422  22.0144543  33.9876589  46.9019422  23.7444543  34.3206589
  44.4969422  23.7884543  33.8226589  47.0759422  22.4124543  29.8816589
  49.1909422  23.2014543  29.1616589  48.2499422  25.1874543  30.4626589
  47.2499422  25.5524543  28.3186589  34.7099422  33.4734543  30.1676589
  35.8499422  33.8664543  30.3516589  36.3319422  34.7074543  31.5326589
  35.8219422  35.6794543  31.5086589  37.8499422  34.9014543  31.2836589
  38.5859422  34.2754543  32.4926589  39.0619422  32.8624543  32.2166589
  37.5329422  34.2814543  33.6116589  36.1799422  34.0254543  32.9136589
  34.9629422  34.5194543  33.6756589  38.0799422  35.9694543  31.1986589
  36.9289422  33.6724543  29.4926589  36.7309422  33.2864543  28.0766589
  36.5299422  31.7764543  27.8066589  37.4629422  30.7874543  28.5516589
  38.9769422  31.0834543  28.5066589  39.3599422  31.5334543  27.1976589
  40.7249422  32.0034543  27.1056589  40.7679422  33.2174543  26.1426589
  40.0569422  34.3264543  26.7046589  42.2369422  33.6344543  25.8266589
  42.3419422  34.6904543  24.7036589  41.7809422  35.9324543  25.1336589
  42.9819422  32.4774543  25.3836589  43.0439422  31.3954543  26.3246589
  43.8079422  30.3414543  25.7736589  41.6089422  30.8734543  26.5316589
  41.6209422  29.7324543  27.3946589  38.1229422  34.2444543  29.9326589
  39.1789422  34.2774543  29.3206589  39.4419422  34.9054543  32.7746589
  38.2809422  32.1044543  32.1626589  37.5359422  35.2734543  34.0836589
  37.7449422  33.5324543  34.3806589  36.0699422  32.9444543  32.7466589
  34.0449422  34.5324543  33.0866589  37.5959422  33.6244543  27.4966589
  35.8609422  33.8324543  27.6886589  35.4959422  31.5164543  28.0666589
  36.6199422  31.6074543  26.7266589  37.1549422  30.7344543  29.6026589
  37.2939422  29.7844543  28.1376589  39.5239422  30.1784543  28.7906589
  39.2049422  31.8474543  29.2556589  41.1139422  32.3174543  28.0856589
  40.2939422  32.9204543  25.1956589  39.8469422  34.1374543  27.6486589
  42.7049422  34.0444543  26.7326589  43.3979422  34.8274543  24.4386589
  41.8219422  34.3214543  23.8086589  40.9779422  35.7084543  25.6506589
  43.4839422  31.7304543  27.2736589  43.4479422  29.5644543  26.2436589
  41.2189422  30.6014543  25.5386589  40.6859422  29.4534543  27.4586589
  34.2949422  34.5444543  40.2616589  34.0659422  34.3574543  39.0786589
  33.3489422  35.3184543  38.1316589  32.3709422  35.6014543  38.5406589
  33.1849422  34.5234543  36.8056589  33.6889422  35.4354543  35.6506589
  34.9369422  34.9244543  34.9586589  33.9609422  36.8134543  36.2886589
  34.1999422  36.5584543  37.7876589  33.9489422  37.7724543  38.6646589
  32.1289422  34.2624543  36.6566589  34.4329422  33.2364543  38.3436589
  35.0699422  32.0544543  38.9676589  36.5569422  32.2384543  39.3556589
  37.4779422  32.9384543  38.3236589  37.5499422  32.2994543  36.9216589
  37.8099422  30.8964543  37.0566589  37.9029422  30.1364543  35.8296589
  36.4879422  29.7124543  35.3426589  35.8539422  30.8164543  34.6826589
  36.5389422  28.5284543  34.3276589  35.1539422  27.9004543  34.0666589
  34.3769422  28.7524543  33.2266589  37.3999422  27.4754543  34.8086589
  38.7519422  27.8854543  35.0266589  39.5319422  26.7684543  35.4036589
  38.7639422  28.9044543  36.1776589  40.1079422  29.3264543  36.4326589
  33.9699422  33.2244543  37.0306589  34.1219422  32.3134543  36.2306589
  32.8889422  35.5414543  34.9036589  35.8339422  34.9104543  35.5756589
  33.0899422  37.4604543  36.1406589  34.8279422  37.3094543  35.8356589
  35.2589422  36.2784543  37.8916589  34.7709422  38.0104543  39.3416589
  35.0019422  31.2054543  38.2756589  34.4989422  31.7824543  39.8646589
  36.5959422  32.8214543  40.2836589  36.9719422  31.2554543  39.5996589
  37.1659422  33.9844543  38.2136589  38.4929422  32.9694543  38.7386589
  38.3569422  32.7824543  36.3586589  36.6089422  32.4814543  36.3946589
  38.4079422  30.7124543  35.0416589  35.9079422  29.3894543  36.2226589
  35.3129422  31.3204543  35.3376589  36.9329422  28.8974543  33.3706589
  35.2919422  26.9284543  33.5756589  34.6449422  27.7234543  35.0226589
  34.5139422  29.6704543  33.5406589  39.1619422  28.3384543  34.1186589
  40.2389422  27.1834543  35.9366589  38.3259422  28.4164543  37.0606589
  40.0279422  30.0604543  37.0776589  30.8879422  42.1594543  36.0076589
  31.8069422  41.7984543  36.7246589  31.7999422  41.7754543  38.2466589
  31.7879422  42.8124543  38.6036589  33.1319422  41.1104543  38.6526589
  32.7599422  39.8434543  39.4646589  32.8729422  38.5784543  38.6286589
  31.3169422  40.1144543  39.9626589  30.6429422  40.9574543  38.8576589
  29.5349422  41.9104543  39.2796589  33.7119422  41.7984543  39.2806589
  33.0689422  41.4104543  36.2946589  33.6889422  42.1474543  35.1656589
  33.2919422  41.6974543  33.7396589  33.3849422  40.1824543  33.4436589
  34.6209422  39.4614543  34.0116589  35.8089422  40.2164543  33.7136589
  37.0119422  39.7134543  34.3336589  37.8719422  40.9084543  34.8226589
  37.2249422  41.5874543  35.9036589  39.2889422  40.4354543  35.2726589
  40.2579422  41.6054543  35.5526589  39.8519422  42.3134543  36.7256589
  39.8879422  39.6344543  34.2296589  39.1489422  38.4624543  33.8596589
  39.8459422  37.7734543  32.8446589  37.8039422  38.9254543  33.2696589
  37.0459422  37.8044543  32.8076589  33.8809422  40.9214543  37.3286589
  35.0289422  40.5214543  37.2046589  33.4339422  39.7604543  40.3306589
  32.0439422  38.3824543  37.9516589  31.3709422  40.6994543  40.8906589
  30.7669422  39.1894543  40.1756589  30.2719422  40.2714543  38.0876589
  29.3489422  42.7004543  38.5476589  34.7779422  42.0824543  35.2526589
  33.4359422  43.2094543  35.2716589  32.2639422  42.0244543  33.5356589
  33.9289422  42.2344543  33.0266589  32.4929422  39.6944543  33.8476589
  33.3489422  40.0334543  32.3576589  34.6669422  38.4474543  33.5966589
  34.4939422  39.3704543  35.0936589  36.7869422  39.0614543  35.1896589
  38.0029422  41.6024543  33.9796589  36.4889422  41.0324543  36.2546589
  39.2009422  39.8354543  36.1886589  41.2719422  41.2064543  35.6896589
  40.2819422  42.2764543  34.6846589  38.8769422  42.4074543  36.6706589
  38.9959422  37.8064543  34.7276589  39.1169422  37.4644543  32.2766589
  38.0279422  39.6094543  32.4356589  36.1759422  38.1774543  32.5596589
  23.8549422  40.8564543  41.3506589  24.7449422  41.4344543  40.7516589
  25.4479422  42.7144543  41.1936589  24.7089422  43.5244543  41.2446589
  26.4839422  43.0134543  40.0796589  27.8849422  43.0794543  40.7506589
  28.8329422  41.9304543  40.4246589  27.6039422  43.2074543  42.2626589
  26.2279422  42.5644543  42.5176589  25.5009422  43.1774543  43.7016589
  26.2479422  43.9764543  39.6106589  25.2829422  41.0554543  39.5276589
  24.6329422  40.0344543  38.6776589  24.8999422  38.5644543  39.0836589
  26.3319422  38.2074543  39.5606589  27.4969422  38.6774543  38.6656589
  27.1589422  38.4684543  37.2826589  28.0789422  39.0634543  36.3416589
  27.2949422  39.5734543  35.1046589  26.4249422  40.6464543  35.4786589
  28.2739422  40.0424543  33.9826589  27.5599422  40.3564543  32.6486589
  26.7169422  41.5014543  32.7896589  29.2339422  38.9934543  33.7066589
  30.0289422  38.6004543  34.8326589  30.9249422  37.5744543  34.4566589
  29.0859422  37.9884543  35.8796589  29.8429422  37.4534543  36.9716589
  26.2659422  41.9164543  39.0366589  26.7929422  41.8514543  37.9366589
  28.3759422  44.0054543  40.4196589  28.9779422  41.1744543  41.1956589
  27.5559422  44.2724543  42.5156589  28.3889422  42.7564543  42.8836589
  26.3889422  41.4924543  42.7076589  25.2459422  42.4724543  44.4936589
  24.9729422  40.1684543  37.6456589  23.5509422  40.2124543  38.6796589
  24.2079422  38.3044543  39.8946589  24.6289422  37.9184543  38.2386589
  26.4849422  38.6174543  40.5656589  26.3929422  37.1164543  39.6666589
  28.4059422  38.1334543  38.9496589  27.6889422  39.7354543  38.8586589
  28.6059422  39.9204543  36.7796589  26.6979422  38.7404543  34.7056589
  26.7149422  41.0144543  36.3456589  28.8049422  40.9454543  34.3136589
  28.3159422  40.5404543  31.8726589  26.9729422  39.4814543  32.3356589
  26.2939422  41.4254543  33.6716589  30.5739422  39.4614543  35.2426589
  30.9429422  37.0544543  35.2826589  28.5189422  37.1884543  35.3796589
  29.1739422  37.1434543  37.6146589  25.5829422  49.6614543  45.3226589
  25.6869422  48.4474543  45.3716589  24.5599422  47.4564543  45.6176589
  24.0119422  47.7404543  46.5166589  25.2499422  46.0874543  45.8306589
  24.4289422  45.0484543  45.0156589  25.1659422  44.4744543  43.8196589
  23.1579422  45.8094543  44.5766589  23.5869422  47.2834543  44.4356589
  22.5369422  48.3944543  44.4106589  25.2409422  45.8354543  46.9006589
  26.8639422  47.7184543  45.2556589  28.1809422  48.3714543  45.4346589
  28.6799422  49.2144543  44.2366589  28.4239422  48.6394543  42.8196589
  28.7949422  47.1584543  42.6106589  30.0789422  46.9004543  43.2046589
  30.4559422  45.5084543  43.2396589  31.2209422  45.2214543  44.5566589
  30.3509422  45.3694543  45.6846589  31.8309422  43.7864543  44.5436589
  32.7779422  43.5204543  45.7356589  32.0229422  43.4004543  46.9436589
  32.6019422  43.5914543  43.3356589  31.8629422  43.7504543  42.1156589
  32.7179422  43.5534543  41.0116589  31.3789422  45.2084543  42.0396589
  30.7169422  45.4284543  40.7886589  26.7059422  46.3384543  45.4176589
  27.5939422  45.5034543  45.3176589  24.1369422  44.2254543  45.6846589
  25.4139422  45.1864543  43.0336589  22.4179422  45.7114543  45.3806589
  22.7299422  45.4034543  43.6496589  24.1729422  47.3634543  43.5096589
  23.0029422  49.3774543  44.3196589  28.9299422  47.5984543  45.6416589
  28.1349422  49.0124543  46.3246589  28.2049422  50.2014543  44.2876589
  29.7559422  49.3914543  44.3646589  27.3619422  48.7664543  42.5726589
  28.9799422  49.2464543  42.0966589  28.7949422  46.9364543  41.5366589
  28.0259422  46.5314543  43.0716589  29.5789422  44.8534543  43.2046589
  32.0499422  45.9394543  44.6356589  29.4129422  45.3734543  45.3876589
  31.0209422  43.0454543  44.5796589  33.3339422  42.5914543  45.5516589
  33.5089422  44.3354543  45.8136589  31.3929422  44.1514543  46.9566589
  31.0179422  43.0514543  42.0746589  32.3289422  44.1884543  40.3786589
  32.2679422  45.8534543  42.1256589  30.4759422  46.3774543  40.7786589
  17.6639422  49.4804543  47.6866589  18.5139422  48.7014543  47.2906589
  18.3429422  47.6584543  46.1886589  17.5859422  46.9244543  46.4946589
  19.7319422  46.9724543  46.0606589  20.2189422  47.2144543  44.6046589
  21.1889422  48.3844543  44.4886589  18.9179422  47.5114543  43.8276589
  18.0089422  48.2764543  44.8126589  16.5189422  48.2414543  44.5126589
  19.6319422  45.8974543  46.2576589  19.8169422  48.6064543  47.7626589
  20.2779422  49.3634543  48.9486589  20.5899422  50.8554543  48.6776589
  21.4929422  51.1634543  47.4556589  22.8829422  50.4944543  47.4516589
  23.5179422  50.7274543  48.7176589  24.8689422  50.2304543  48.8136589
  24.8979422  48.9474543  49.6836589  24.2399422  47.8734543  49.0046589
  26.3669422  48.5444543  50.0046589  26.4819422  47.3554543  50.9846589
  26.0219422  46.1564543  50.3556589  27.0359422  49.6674543  50.6136589
  27.1319422  50.8344543  49.7816589  27.8129422  51.8534543  50.4856589
  25.7079422  51.3394543  49.4796589  25.7729422  52.4744543  48.6096589
  20.5809422  47.6044543  47.1686589  21.6979422  47.2564543  47.5166589
  20.6509422  46.3024543  44.1856589  20.6929422  49.3544543  44.4516589
  18.4509422  46.5564543  43.5556589  19.0969422  48.0764543  42.9026589
  18.3259422  49.3294543  44.8266589  15.8959422  48.6904543  45.2876589
  21.1779422  48.8834543  49.3496589  19.5039422  49.2974543  49.7236589
  19.6399422  51.3824543  48.5326589  21.0399422  51.2864543  49.5796589
  20.9669422  50.8804543  46.5356589  21.6349422  52.2494543  47.4006589
  23.4809422  50.9164543  46.6326589  22.7729422  49.4244543  47.2666589
  25.2999422  50.0194543  47.8246589  24.3929422  49.1644543  50.6356589
  23.3259422  48.1474543  48.7836589  26.8849422  48.2714543  49.0746589
  27.5309422  47.2414543  51.2886589  25.8969422  47.5694543  51.8886589
  25.2029422  46.3984543  49.8756589  27.6639422  50.5994543  48.8506589
  27.5329422  52.6594543  50.0076589  25.2389422  51.6094543  50.4386589
  24.8579422  52.6334543  48.3036589  15.9349422  47.7294543  43.4156589
  16.4959422  47.2824543  42.5966589  14.8519422  47.7584543  43.2966589
  79.8719410  65.6846800  61.8626180  79.0961510  65.2047240  62.1524750
  80.5232340  65.0052450  61.6882340  73.8885240  65.9966610  62.7401940
  73.0570120  65.7415320  63.1398450  74.4966220  66.0677380  63.4759860
  73.8686500  70.0306700  62.9359960  74.1714540  69.1404440  62.7570180
  74.6130090  70.5876920  62.7082210  72.2977190  60.9568500  56.5244330
  71.4093890  61.2984470  56.4224210  72.5818380  60.7568820  55.6325160
  70.2610200  63.5574150  62.4084030  70.8326310  62.7896350  62.4087670
  70.2611740  63.8562910  61.4990640  79.3128400  68.3603990  61.8696340
  79.2436680  67.4193930  61.7085470  80.0748260  68.4505400  62.4418910
  71.5035070  58.9658510  64.1952960  71.3237910  58.0684260  64.4755720
  71.1015150  59.5130380  64.8699910  80.3433570  61.1674370  62.0965270
  80.7198390  60.2946250  61.9838940  80.2453080  61.5033070  61.2055710
  74.4738580  59.5400000  57.5582710  74.5805330  60.4403730  57.8651470
  73.5630940  59.4917970  57.2677360  72.1221740  61.4619010  62.8035300
  72.8031850  61.7257380  63.4222700  71.8069790  60.6219880  63.1373310
  76.3146310  62.5086370  61.8907890  76.8224530  63.0067340  62.5312910
  76.8459550  61.7321570  61.7147250  80.9853500  67.2604240  57.6561210
  80.3670770  67.7253690  57.0923930  81.4976750  67.9531720  58.0730720
  75.8485260  66.7880110  64.3344810  75.5154640  67.4149030  64.9765880
  76.0251940  67.3141990  63.5546480  74.2797740  58.8594890  64.1641760
  74.6214550  59.7036940  63.8695630  73.3413550  59.0078630  64.2807100
  70.3536700  67.9460770  55.0300840  69.9764680  68.4347870  54.2985740
  70.6109770  68.6186050  55.6607370  77.9625630  56.3477160  60.4886350
  78.2700610  55.7924050  59.7721850  77.0326330  56.4821620  60.3059340
  80.3506390  64.4125990  57.2246470  79.4235670  64.3463370  57.4534940
  80.5031210  65.3506120  57.1101710  80.3375470  60.6842990  54.2213630
  79.3979140  60.8456950  54.3066090  80.6558730  61.4028670  53.6749620
  75.9563030  64.9390730  60.0066200  75.5520030  64.2267980  59.5112100
  76.0426150  64.5943970  60.8954240  76.4244730  68.6258290  62.1705410
  76.1273020  68.0203760  61.4913190  77.3744550  68.6635600  62.0594770
  74.6691650  61.7133940  63.7865240  75.2206240  61.8229280  63.0118490
  75.1835160  62.0871540  64.5020470  80.6663760  70.1529170  58.7035710
  81.1059670  70.8953500  58.2891100  80.6050650  70.3955740  59.6274670
  72.6567660  63.8335710  57.5072850  72.5365260  64.5597800  56.8954120
  72.3468550  63.0638620  57.0300760  70.2953030  67.0050850  63.3141490
  70.3733450  67.1399620  62.3697210  70.9094710  66.2966740  63.5069610
  71.5400660  68.7051040  59.7247670  71.1328740  68.8465630  58.8701270
  72.4313670  68.4211200  59.5218880  75.1231320  57.1770780  60.8896520
  74.6799470  57.9580320  60.5581040  75.6816310  57.5000670  61.5967460
  78.2390140  56.7981480  55.7702350  77.6144320  56.7941350  56.4955660
  78.1520260  55.9312440  55.3738320  77.1607220  57.7218110  62.7486120
  77.4579550  58.6280940  62.6678140  77.7092780  57.2336890  62.1345690
  74.9145540  62.3004350  58.6177770  74.6886460  62.0841520  59.5224390
  74.1338070  62.7332810  58.2723740  80.7508170  60.9431260  59.2471700
  81.1437740  61.2603460  58.4340390  81.1125020  60.0643140  59.3616220
  69.7872340  57.5332060  61.4701900  69.4985390  58.1034920  62.1826880
  70.5318100  57.0536510  61.8333130  69.9742570  61.4752180  52.6804620
  69.8917240  62.4182940  52.8219610  69.6225630  61.3327090  51.8016970
  81.3363310  63.5337010  63.3422480  80.6044430  64.0423820  63.6912580
  80.9387650  62.7166990  63.0411260  77.7740700  60.2091210  61.7474970
  77.7776760  59.7681160  60.8979510  78.6691820  60.5308540  61.8546790
  73.6243080  60.0917700  60.7069180  73.2843130  60.5692930  61.4636230
  72.8620400  59.6382820  60.3470280  77.8360850  61.2103290  54.7381730
  77.9573670  61.1689770  55.6867550  77.4509360  62.0727440  54.5828460
  76.8482350  63.5204430  54.1365030  76.2799250  63.0722680  53.5100940
  77.5571350  63.8797210  53.6030180  78.0748670  64.2692990  63.4940380
  78.4418800  63.7951560  64.2401720  77.8853730  65.1434560  63.8348720
  70.9389160  59.0136680  59.6233850  70.6536080  58.6492350  60.4612470
  70.8768020  58.2817140  59.0096990  74.3929830  67.5162620  56.4091440
  73.6192090  66.9760240  56.2490160  75.1224460  66.9969230  56.0709200
  80.6127750  57.9065940  56.3447220  79.7992360  57.4079110  56.2692530
  80.4189700  58.7464190  55.9283570  74.4367230  67.1843000  60.0470250
  74.9545900  66.3811260  59.9927140  73.9851250  67.1222140  60.8887080
  79.3236730  68.4509280  55.3197550  79.6652430  69.1951510  54.8240870
  78.4949440  68.7640400  55.6822380  78.2927420  68.5322810  58.0913470
  78.9798550  69.0792020  58.4721060  77.5059840  69.0763540  58.1263080
  70.4319820  64.1495630  53.5830550  71.3014670  64.4320430  53.8666470
  69.9410140  64.9631500  53.4679360  77.5954630  65.5368840  57.7038830
  78.0517410  66.3474090  57.9299020  77.2442840  65.2191980  58.5357320
  73.4966410  55.8806490  58.1761350  73.3681040  55.8724390  59.1246270
  72.6728430  56.2189580  57.8252360  76.8159690  70.7454210  54.9665850
  76.8069790  71.4783900  54.3510360  75.8958050  70.4985790  55.0592810
  72.4166330  65.9669100  55.7112610  71.8094280  66.7068000  55.7207910
  72.8915680  66.0568460  54.8850810  79.8019290  70.8082450  53.6291040
  79.9031270  70.6046440  52.6993020  78.9021030  70.5540730  53.8338820
  77.3245180  61.3662810  57.6114940  76.6161330  61.8349150  58.0528550
  77.6089660  60.7084820  58.2460130  75.5280200  59.6747890  54.9865650
  76.3770730  60.1118040  54.9205840  75.1611470  59.9868150  55.8137710
  74.4271620  65.9280250  53.4601180  75.1934890  65.8161610  54.0226610
  74.5046310  65.2318220  52.8077950  73.1218380  63.3605320  54.1434070
  73.2021970  62.4132830  54.2551470  74.0138130  63.6912200  54.2494730
  70.8078570  69.5774280  57.1210120  69.8818350  69.8195420  57.1115530
  71.2735000  70.4048540  56.9994870  77.5512800  67.9034430  52.9336530
  77.4463440  67.2886780  53.6597910  77.3837020  67.3800320  52.1499540
  80.7915530  66.9654460  53.5378520  80.2425630  67.4123760  54.1821260
  81.4134790  66.4603710  54.0616190  76.4590650  65.9245380  55.4343820
  76.8807070  65.7585250  56.2775210  76.5841490  65.1145610  54.9398960
  78.9718290  64.9482990  52.6820920  79.4923950  64.2332010  52.3162070
  79.6186690  65.5868860  52.9821430  75.3549550  61.9978610  52.3801980
  75.1538610  61.1345970  52.7415320  75.1841600  61.9111970  51.4423580
  74.1532350  59.0979230  52.3679860  74.4558250  59.1046660  51.4599010
  74.8926940  58.7477090  52.8647520  77.3717280  58.0413850  53.3536060
  77.0239280  57.3637840  52.7738510  77.5730050  57.5803360  54.1679450
  73.1762480  68.4021650  53.2009660  73.6137350  68.9451320  53.8567240
  73.6610210  67.5768600  53.2106000  70.3908280  71.1910680  60.6529920
  70.7211290  70.3231740  60.4208560  70.8199280  71.3969200  61.4834880
  74.9870200  69.5219690  58.3131890  74.6865740  69.3984660  59.2135800
  74.8807690  68.6628280  57.9047620  70.7122920  64.5701500  59.7500430
  70.0571760  64.3013140  59.1060130  71.5500870  64.4605980  59.3002410
  71.7498850  64.9554070  64.2903770  72.1171890  64.8681470  65.1699790
  71.1809670  64.1920620  64.1910630  69.9261000  61.7800430  55.6925760
  69.0225080  62.0430630  55.5177420  70.4101620  62.0511600  54.9125720
  72.4688210  60.8365970  53.6020140  73.1779910  60.4149190  53.1167420
  71.7528150  60.9041200  52.9703490  72.1162370  56.8905300  52.6422790
  72.8390500  57.4314240  52.9604010  72.3886890  56.6168720  51.7664330
  71.8054560  56.1411490  62.5445410  72.4530750  55.5908870  62.1040570
  72.2256400  56.3954640  63.3661220  76.8656960  71.0246350  65.0533640
  76.6248320  71.2920910  64.1664160  77.8059600  71.1952080  65.1084500
  80.1968800  56.6251080  63.7144640  79.4140590  57.0996580  63.9941400
  79.9031730  55.7205910  63.6057820  71.5409210  56.9298560  56.2358360
  72.2988570  57.0427440  55.6622390  71.0786380  57.7667760  56.1901790
  78.0823020  59.0437830  59.2260670  77.2697530  58.6694720  58.8856550
  78.5864660  58.2882910  59.5281860  73.9134360  57.4562610  54.7760330
  74.4427120  56.6692410  54.6468280  74.5462680  58.1353800  55.0095860
  76.1072200  57.1937750  57.8305720  75.4774940  56.4925060  57.9975850
  75.5677340  57.9541880  57.6138880  74.2851650  69.8562120  55.0572220
  73.6560530  70.3247220  55.6058050  74.3999480  69.0111340  55.4918410
  79.8719410  65.6846800  43.0882690  79.0961510  65.2047240  43.3781260
  80.5232340  65.0052450  42.9138850  73.8885240  65.9966610  43.9658450
  73.0570120  65.7415320  44.3654960  74.4966220  66.0677380  44.7016370
  73.8686500  70.0306700  44.1616470  74.1714540  69.1404440  43.9826690
  74.6130090  70.5876920  43.9338720  72.2977190  60.9568500  37.7500840
  71.4093890  61.2984470  37.6480720  72.5818380  60.7568820  36.8581670
  70.2610200  63.5574150  43.6340540  70.8326310  62.7896350  43.6344180
  70.2611740  63.8562910  42.7247150  79.3128400  68.3603990  43.0952850
  79.2436680  67.4193930  42.9341980  80.0748260  68.4505400  43.6675420
  71.5035070  58.9658510  45.4209470  71.3237910  58.0684260  45.7012230
  71.1015150  59.5130380  46.0956420  80.3433570  61.1674370  43.3221780
  80.7198390  60.2946250  43.2095450  80.2453080  61.5033070  42.4312220
  74.4738580  59.5400000  38.7839220  74.5805330  60.4403730  39.0907980
  73.5630940  59.4917970  38.4933870  72.1221740  61.4619010  44.0291810
  72.8031850  61.7257380  44.6479210  71.8069790  60.6219880  44.3629820
  76.3146310  62.5086370  43.1164400  76.8224530  63.0067340  43.7569420
  76.8459550  61.7321570  42.9403760  74.5982410  57.1484930  47.3827820
  74.6000850  57.6657320  46.5773720  73.7686720  56.6715110  47.3597750
  80.9853500  67.2604240  38.8817720  80.3670770  67.7253690  38.3180440
  81.4976750  67.9531720  39.2987230  75.8485260  66.7880110  45.5601320
  75.5154640  67.4149030  46.2022390  76.0251940  67.3141990  44.7802990
  74.2797740  58.8594890  45.3898270  74.6214550  59.7036940  45.0952140
  73.3413550  59.0078630  45.5063610  75.0604360  68.7560910  47.3750500
  75.6778360  69.4311990  47.0934950  74.1997480  69.1648890  47.2838000
  70.3536700  67.9460770  36.2557350  69.9764680  68.4347870  35.5242250
  70.6109770  68.6186050  36.8863880  77.9625630  56.3477160  41.7142860
  78.2700610  55.7924050  40.9978360  77.0326330  56.4821620  41.5315850
  80.3506390  64.4125990  38.4502980  79.4235670  64.3463370  38.6791450
  80.5031210  65.3506120  38.3358220  80.3375470  60.6842990  35.4470140
  79.3979140  60.8456950  35.5322600  80.6558730  61.4028670  34.9006130
  75.9563030  64.9390730  41.2322710  75.5520030  64.2267980  40.7368610
  76.0426150  64.5943970  42.1210750  76.4244730  68.6258290  43.3961920
  76.1273020  68.0203760  42.7169700  77.3744550  68.6635600  43.2851280
  74.6691650  61.7133940  45.0121750  75.2206240  61.8229280  44.2375000
  75.1835160  62.0871540  45.7276980  75.5163160  68.3639980  50.0469720
  74.6191690  68.5879950  50.2943120  75.5416030  68.4874920  49.0981120
  74.3434380  65.2353300  48.6227090  74.2042150  66.1076100  48.9914490
  73.4615740  64.8926110  48.4775030  80.6663760  70.1529170  39.9292220
  81.1059670  70.8953500  39.5147610  80.6050650  70.3955740  40.8531180
  76.1414730  71.1775000  50.8312240  76.1130160  71.5817950  49.9640670
  75.9779700  70.2485360  50.6683840  72.6567660  63.8335710  38.7329360
  72.5365260  64.5597800  38.1210630  72.3468550  63.0638620  38.2557270
  70.2953030  67.0050850  44.5398000  70.3733450  67.1399620  43.5953720
  70.9094710  66.2966740  44.7326120  71.5400660  68.7051040  40.9504180
  71.1328740  68.8465630  40.0957780  72.4313670  68.4211200  40.7475390
  70.3512550  68.0465020  47.0792460  70.5143590  67.5770380  46.2611830
  70.8165000  67.5388580  47.7441300  75.1231320  57.1770780  42.1153030
  74.6799470  57.9580320  41.7837550  75.6816310  57.5000670  42.8223970
  79.4101130  60.0439300  47.7188350  78.9480500  60.2522320  48.5308290
  79.0079240  59.2298650  47.4159020  78.2390140  56.7981480  36.9958860
  77.6144320  56.7941350  37.7212170  78.1520260  55.9312440  36.5994830
  77.1607220  57.7218110  43.9742630  77.4579550  58.6280940  43.8934650
  77.7092780  57.2336890  43.3602200  74.9145540  62.3004350  39.8434280
  74.6886460  62.0841520  40.7480900  74.1338070  62.7332810  39.4980250
  77.3544750  63.1989930  50.5094550  77.2588350  62.2584660  50.3594950
  78.1976730  63.4205000  50.1142620  80.7508170  60.9431260  40.4728210
  81.1437740  61.2603460  39.6596900  81.1125020  60.0643140  40.5872730
  72.4855290  59.6103600  48.6628330  72.0918680  60.4578810  48.8701110
  71.7973690  58.9729970  48.8536970  79.0600340  59.6938570  51.7325070
  78.3698660  59.5010770  52.3671160  79.8032640  59.9773210  52.2649370
  69.7872340  57.5332060  42.6958410  69.4985390  58.1034920  43.4083390
  70.5318100  57.0536510  43.0589640  69.9742570  61.4752180  33.9061130
  69.8917240  62.4182940  34.0476120  69.6225630  61.3327090  33.0273480
  81.3363310  63.5337010  44.5678990  80.6044430  64.0423820  44.9169090
  80.9387650  62.7166990  44.2667770  77.7740700  60.2091210  42.9731480
  77.7776760  59.7681160  42.1236020  78.6691820  60.5308540  43.0803300
  73.6243080  60.0917700  41.9325690  73.2843130  60.5692930  42.6892740
  72.8620400  59.6382820  41.5726790  77.8360850  61.2103290  35.9638240
  77.9573670  61.1689770  36.9124060  77.4509360  62.0727440  35.8084970
  76.8482350  63.5204430  35.3621540  76.2799250  63.0722680  34.7357450
  77.5571350  63.8797210  34.8286690  71.9251530  67.4216450  49.2388270
  71.5406320  66.7810120  49.8371230  72.2363720  68.1252570  49.8083000
  78.0748670  64.2692990  44.7196890  78.4418800  63.7951560  45.4658230
  77.8853730  65.1434560  45.0605230  70.9389160  59.0136680  40.8490360
  70.6536080  58.6492350  41.6868980  70.8768020  58.2817140  40.2353500
  75.8648040  63.3101630  47.0381100  75.5605110  64.1893610  47.2631460
  76.8194500  63.3701420  47.0738540  74.3929830  67.5162620  37.6347950
  73.6192090  66.9760240  37.4746670  75.1224460  66.9969230  37.2965710
  80.6127750  57.9065940  37.5703730  79.7992360  57.4079110  37.4949040
  80.4189700  58.7464190  37.1540080  80.5336610  66.5837040  49.3143340
  80.4673920  65.6632710  49.0600930  79.9041750  66.6812480  50.0287980
  74.4367230  67.1843000  41.2726760  74.9545900  66.3811260  41.2183650
  73.9851250  67.1222140  42.1143590  79.3236730  68.4509280  36.5454060
  79.6652430  69.1951510  36.0497380  78.4949440  68.7640400  36.9078890
  71.9211770  64.1504370  48.1852460  71.5626710  64.8158220  48.7725800
  71.6266330  63.3187920  48.5565080  75.1224890  64.6088610  51.0692010
  74.8225030  64.7545790  50.1719830  75.8936130  64.0493900  50.9765400
  80.4653340  69.4057610  49.0647140  80.4797880  68.4738570  48.8466050
  79.7578440  69.4917370  49.7036910  78.2927420  68.5322810  39.3169980
  78.9798550  69.0792020  39.6977570  77.5059840  69.0763540  39.3519590
  70.4319820  64.1495630  34.8087060  71.3014670  64.4320430  35.0922980
  69.9410140  64.9631500  34.6935870  77.5954630  65.5368840  38.9295340
  78.0517410  66.3474090  39.1555530  77.2442840  65.2191980  39.7613830
  79.8987240  71.0475180  46.1587640  80.5429460  71.2534560  46.8361060
  80.2616680  70.2863580  45.7058490  73.4966410  55.8806490  39.4017860
  73.3681040  55.8724390  40.3502780  72.6728430  56.2189580  39.0508870
  70.4960340  57.6397610  48.8624560  69.7818860  57.8394530  49.4677170
  70.9155380  56.8637180  49.2339360  70.7832930  71.6277870  49.8491090
  70.8924050  70.6872610  49.7086480  70.1313490  71.8932620  49.2004820
  78.7745520  69.8993760  51.2489210  78.4542390  69.1803000  51.7934900
  78.1003880  70.5748830  51.3225270  76.8159690  70.7454210  36.1922360
  76.8069790  71.4783900  35.5766870  75.8958050  70.4985790  36.2849320
  72.4166330  65.9669100  36.9369120  71.8094280  66.7068000  36.9464420
  72.8915680  66.0568460  36.1107320  79.8019290  70.8082450  34.8547550
  79.9031270  70.6046440  33.9249530  78.9021030  70.5540730  35.0595330
  77.3245180  61.3662810  38.8371450  76.6161330  61.8349150  39.2785060
  77.6089660  60.7084820  39.4716640  78.9501110  62.7859510  46.8363980
  79.4486360  63.2605330  47.5015830  79.0924060  61.8623030  47.0434010
  75.5280200  59.6747890  36.2122160  76.3770730  60.1118040  36.1462350
  75.1611470  59.9868150  37.0394220  74.4271620  65.9280250  34.6857690
  75.1934890  65.8161610  35.2483120  74.5046310  65.2318220  34.0334460
  73.1218380  63.3605320  35.3690580  73.2021970  62.4132830  35.4807980
  74.0138130  63.6912200  35.4751240  70.8078570  69.5774280  38.3466630
  69.8818350  69.8195420  38.3372040  71.2735000  70.4048540  38.2251380
  70.6489180  65.1820240  50.6046750  71.1528200  64.6027520  51.1762980
  69.9096600  65.4660470  51.1423120  77.5512800  67.9034430  34.1593040
  77.4463440  67.2886780  34.8854420  77.3837020  67.3800320  33.3756050
  77.7027120  66.5891230  50.1382270  76.9372790  67.1576230  50.0536940
  77.8843080  66.2967440  49.2450500  80.7915530  66.9654460  34.7635030
  80.2425630  67.4123760  35.4077770  81.4134790  66.4603710  35.2872700
  72.6812260  63.3249830  51.4996820  72.7217600  63.0263700  52.4082050
  73.5357760  63.7257440  51.3404340  76.4590650  65.9245380  36.6600330
  76.8807070  65.7585250  37.5031720  76.5841490  65.1145610  36.1655470
  74.6218070  61.9041930  49.4671310  74.0914530  61.4132880  48.8394650
  75.2906140  62.3326130  48.9329240  78.9718290  64.9482990  33.9077430
  79.4923950  64.2332010  33.5418580  79.6186690  65.5868860  34.2077940
  75.1090370  58.8704300  49.5468600  75.0147240  58.2525050  48.8219470
  74.5287760  59.5970590  49.3198510  77.8751810  57.4277540  46.5795990
  77.4269110  57.4501800  45.7341540  77.2417010  57.0296560  47.1766290
  78.2811360  66.3231870  47.2008430  78.6999470  67.1664600  47.0284670
  77.3619990  66.4603910  46.9715210  80.6175260  64.0548050  48.5846270
  80.7371470  63.4589190  49.3241110  81.4769260  64.0917740  48.1647570
  75.3549550  61.9978610  33.6058490  75.1538610  61.1345970  33.9671830
  75.1841600  61.9111970  32.6680090  77.3844030  60.5969400  49.8422090
  77.9743720  60.2885250  50.5299910  76.5664270  60.1249150  49.9981990
  74.1532350  59.0979230  33.5936370  74.4558250  59.1046660  32.6855520
  74.8926940  58.7477090  34.0904030  77.3717280  58.0413850  34.5792570
  77.0239280  57.3637840  33.9995020  77.5730050  57.5803360  35.3935960
  73.1762480  68.4021650  34.4266170  73.6137350  68.9451320  35.0823750
  73.6610210  67.5768600  34.4362510  70.3908280  71.1910680  41.8786430
  70.7211290  70.3231740  41.6465070  70.8199280  71.3969200  42.7091390
  74.9870200  69.5219690  39.5388400  74.6865740  69.3984660  40.4392310
  74.8807690  68.6628280  39.1304130  70.7122920  64.5701500  40.9756940
  70.0571760  64.3013140  40.3316640  71.5500870  64.4605980  40.5258920
  71.7498850  64.9554070  45.5160280  72.1171890  64.8681470  46.3956300
  71.1809670  64.1920620  45.4167140  71.3014850  61.8663160  49.4218700
  70.4070900  61.8329920  49.7612410  71.8412400  62.0649950  50.1869950
  69.9261000  61.7800430  36.9182270  69.0225080  62.0430630  36.7433930
  70.4101620  62.0511600  36.1382230  72.4688210  60.8365970  34.8276650
  73.1779910  60.4149190  34.3423930  71.7528150  60.9041200  34.1960000
  72.1162370  56.8905300  33.8679300  72.8390500  57.4314240  34.1860520
  72.3886890  56.6168720  32.9920840  71.8054560  56.1411490  43.7701920
  72.4530750  55.5908870  43.3297080  72.2256400  56.3954640  44.5917730
  71.5586560  56.2967160  46.5127240  71.2101380  56.7530980  47.2785420
  71.2274260  55.4024290  46.5949670  73.1650930  69.4686760  50.6780430
  73.1220560  69.0979670  51.5594890  73.2961940  70.4064330  50.8182250
  76.8656960  71.0246350  46.2790150  76.6248320  71.2920910  45.3920670
  77.8059600  71.1952080  46.3341010  79.0711380  57.4879040  50.0346660
  79.0100270  58.0800870  50.7842070  80.0111760  57.3805000  49.8896920
  72.2307200  55.8243360  49.7878010  72.7790190  55.6431410  49.0244120
  72.2962510  55.0337470  50.3234320  72.6351190  69.7807390  46.7486250
  71.9085250  69.1612680  46.6812200  72.6960340  70.1748000  45.8784330
  80.1968800  56.6251080  44.9401150  79.4140590  57.0996580  45.2197910
  79.9031730  55.7205910  44.8314330  71.5409210  56.9298560  37.4614870
  72.2988570  57.0427440  36.8878900  71.0786380  57.7667760  37.4158300
  78.0823020  59.0437830  40.4517180  77.2697530  58.6694720  40.1113060
  78.5864660  58.2882910  40.7538370  73.9134360  57.4562610  36.0016840
  74.4427120  56.6692410  35.8724790  74.5462680  58.1353800  36.2352370
  76.1072200  57.1937750  39.0562230  75.4774940  56.4925060  39.2232360
  75.5677340  57.9541880  38.8395390  76.2327760  56.4721730  51.4914720
  75.9512030  56.9755330  50.7275540  76.6147460  55.6743480  51.1256850
  74.2851650  69.8562120  36.2828730  73.6560530  70.3247220  36.8314560
  74.3999480  69.0111340  36.7174920  79.8719410  65.6846800  24.3139200
  79.0961510  65.2047240  24.6037770  80.5232340  65.0052450  24.1395360
  73.8885240  65.9966610  25.1914960  73.0570120  65.7415320  25.5911470
  74.4966220  66.0677380  25.9272880  73.8686500  70.0306700  25.3872980
  74.1714540  69.1404440  25.2083200  74.6130090  70.5876920  25.1595230
  72.2977190  60.9568500  18.9757350  71.4093890  61.2984470  18.8737230
  72.5818380  60.7568820  18.0838180  70.2610200  63.5574150  24.8597050
  70.8326310  62.7896350  24.8600690  70.2611740  63.8562910  23.9503660
  79.3128400  68.3603990  24.3209360  79.2436680  67.4193930  24.1598490
  80.0748260  68.4505400  24.8931930  71.5035070  58.9658510  26.6465980
  71.3237910  58.0684260  26.9268740  71.1015150  59.5130380  27.3212930
  80.3433570  61.1674370  24.5478290  80.7198390  60.2946250  24.4351960
  80.2453080  61.5033070  23.6568730  74.4738580  59.5400000  20.0095730
  74.5805330  60.4403730  20.3164490  73.5630940  59.4917970  19.7190380
  72.1221740  61.4619010  25.2548320  72.8031850  61.7257380  25.8735720
  71.8069790  60.6219880  25.5886330  76.3146310  62.5086370  24.3420910
  76.8224530  63.0067340  24.9825930  76.8459550  61.7321570  24.1660270
  74.5982410  57.1484930  28.6084330  74.6000850  57.6657320  27.8030230
  73.7686720  56.6715110  28.5854260  80.9853500  67.2604240  20.1074230
  80.3670770  67.7253690  19.5436950  81.4976750  67.9531720  20.5243740
  75.8485260  66.7880110  26.7857830  75.5154640  67.4149030  27.4278900
  76.0251940  67.3141990  26.0059500  74.2797740  58.8594890  26.6154780
  74.6214550  59.7036940  26.3208650  73.3413550  59.0078630  26.7320120
  75.0604360  68.7560910  28.6007010  75.6778360  69.4311990  28.3191460
  74.1997480  69.1648890  28.5094510  70.3536700  67.9460770  17.4813860
  69.9764680  68.4347870  16.7498760  70.6109770  68.6186050  18.1120390
  77.9625630  56.3477160  22.9399370  78.2700610  55.7924050  22.2234870
  77.0326330  56.4821620  22.7572360  80.3506390  64.4125990  19.6759490
  79.4235670  64.3463370  19.9047960  80.5031210  65.3506120  19.5614730
  80.3375470  60.6842990  16.6726650  79.3979140  60.8456950  16.7579110
  80.6558730  61.4028670  16.1262640  75.9563030  64.9390730  22.4579220
  75.5520030  64.2267980  21.9625120  76.0426150  64.5943970  23.3467260
  76.4244730  68.6258290  24.6218430  76.1273020  68.0203760  23.9426210
  77.3744550  68.6635600  24.5107790  74.6691650  61.7133940  26.2378260
  75.2206240  61.8229280  25.4631510  75.1835160  62.0871540  26.9533490
  75.5163160  68.3639980  31.2726230  74.6191690  68.5879950  31.5199630
  75.5416030  68.4874920  30.3237630  74.3434380  65.2353300  29.8483600
  74.2042150  66.1076100  30.2171000  73.4615740  64.8926110  29.7031540
  80.6663760  70.1529170  21.1548730  81.1059670  70.8953500  20.7404120
  80.6050650  70.3955740  22.0787690  76.1414730  71.1775000  32.0568750
  76.1130160  71.5817950  31.1897180  75.9779700  70.2485360  31.8940350
  72.6567660  63.8335710  19.9585870  72.5365260  64.5597800  19.3467140
  72.3468550  63.0638620  19.4813780  70.2953030  67.0050850  25.7654510
  70.3733450  67.1399620  24.8210230  70.9094710  66.2966740  25.9582630
  71.5400660  68.7051040  22.1760690  71.1328740  68.8465630  21.3214290
  72.4313670  68.4211200  21.9731900  70.3512550  68.0465020  28.3048970
  70.5143590  67.5770380  27.4868340  70.8165000  67.5388580  28.9697810
  75.1231320  57.1770780  23.3409540  74.6799470  57.9580320  23.0094060
  75.6816310  57.5000670  24.0480480  79.4101130  60.0439300  28.9444860
  78.9480500  60.2522320  29.7564800  79.0079240  59.2298650  28.6415530
  78.2390140  56.7981480  18.2215370  77.6144320  56.7941350  18.9468680
  78.1520260  55.9312440  17.8251340  77.1607220  57.7218110  25.1999140
  77.4579550  58.6280940  25.1191160  77.7092780  57.2336890  24.5858710
  74.9145540  62.3004350  21.0690790  74.6886460  62.0841520  21.9737410
  74.1338070  62.7332810  20.7236760  77.3544750  63.1989930  31.7351060
  77.2588350  62.2584660  31.5851460  78.1976730  63.4205000  31.3399130
  80.7508170  60.9431260  21.6984720  81.1437740  61.2603460  20.8853410
  81.1125020  60.0643140  21.8129240  72.4855290  59.6103600  29.8884840
  72.0918680  60.4578810  30.0957620  71.7973690  58.9729970  30.0793480
  79.0600340  59.6938570  32.9581580  78.3698660  59.5010770  33.5927670
  79.8032640  59.9773210  33.4905880  69.7872340  57.5332060  23.9214920
  69.4985390  58.1034920  24.6339900  70.5318100  57.0536510  24.2846150
  69.9742570  61.4752180  15.1317640  69.8917240  62.4182940  15.2732630
  69.6225630  61.3327090  14.2529990  81.3363310  63.5337010  25.7935500
  80.6044430  64.0423820  26.1425600  80.9387650  62.7166990  25.4924280
  77.7740700  60.2091210  24.1987990  77.7776760  59.7681160  23.3492530
  78.6691820  60.5308540  24.3059810  73.6243080  60.0917700  23.1582200
  73.2843130  60.5692930  23.9149250  72.8620400  59.6382820  22.7983300
  77.8360850  61.2103290  17.1894750  77.9573670  61.1689770  18.1380570
  77.4509360  62.0727440  17.0341480  76.8482350  63.5204430  16.5878050
  76.2799250  63.0722680  15.9613960  77.5571350  63.8797210  16.0543200
  71.9251530  67.4216450  30.4644780  71.5406320  66.7810120  31.0627740
  72.2363720  68.1252570  31.0339510  78.0748670  64.2692990  25.9453400
  78.4418800  63.7951560  26.6914740  77.8853730  65.1434560  26.2861740
  70.9389160  59.0136680  22.0746870  70.6536080  58.6492350  22.9125490
  70.8768020  58.2817140  21.4610010  75.8648040  63.3101630  28.2637610
  75.5605110  64.1893610  28.4887970  76.8194500  63.3701420  28.2995050
  74.3929830  67.5162620  18.8604460  73.6192090  66.9760240  18.7003180
  75.1224460  66.9969230  18.5222220  80.6127750  57.9065940  18.7960240
  79.7992360  57.4079110  18.7205550  80.4189700  58.7464190  18.3796590
  80.5336610  66.5837040  30.5399850  80.4673920  65.6632710  30.2857440
  79.9041750  66.6812480  31.2544490  74.4367230  67.1843000  22.4983270
  74.9545900  66.3811260  22.4440160  73.9851250  67.1222140  23.3400100
  79.3236730  68.4509280  17.7710570  79.6652430  69.1951510  17.2753890
  78.4949440  68.7640400  18.1335400  71.9211770  64.1504370  29.4108970
  71.5626710  64.8158220  29.9982310  71.6266330  63.3187920  29.7821590
  75.1224890  64.6088610  32.2948520  74.8225030  64.7545790  31.3976340
  75.8936130  64.0493900  32.2021910  80.4653340  69.4057610  30.2903650
  80.4797880  68.4738570  30.0722560  79.7578440  69.4917370  30.9293420
  78.2927420  68.5322810  20.5426490  78.9798550  69.0792020  20.9234080
  77.5059840  69.0763540  20.5776100  70.4319820  64.1495630  16.0343570
  71.3014670  64.4320430  16.3179490  69.9410140  64.9631500  15.9192380
  77.5954630  65.5368840  20.1551850  78.0517410  66.3474090  20.3812040
  77.2442840  65.2191980  20.9870340  79.8987240  71.0475180  27.3844150
  80.5429460  71.2534560  28.0617570  80.2616680  70.2863580  26.9315000
  73.4966410  55.8806490  20.6274370  73.3681040  55.8724390  21.5759290
  72.6728430  56.2189580  20.2765380  70.4960340  57.6397610  30.0881070
  69.7818860  57.8394530  30.6933680  70.9155380  56.8637180  30.4595870
  70.7832930  71.6277870  31.0747600  70.8924050  70.6872610  30.9342990
  70.1313490  71.8932620  30.4261330  78.7745520  69.8993760  32.4745720
  78.4542390  69.1803000  33.0191410  78.1003880  70.5748830  32.5481780
  76.8159690  70.7454210  17.4178870  76.8069790  71.4783900  16.8023380
  75.8958050  70.4985790  17.5105830  72.4166330  65.9669100  18.1625630
  71.8094280  66.7068000  18.1720930  72.8915680  66.0568460  17.3363830
  79.8019290  70.8082450  16.0804060  79.9031270  70.6046440  15.1506040
  78.9021030  70.5540730  16.2851840  77.3245180  61.3662810  20.0627960
  76.6161330  61.8349150  20.5041570  77.6089660  60.7084820  20.6973150
  78.9501110  62.7859510  28.0620490  79.4486360  63.2605330  28.7272340
  79.0924060  61.8623030  28.2690520  75.5280200  59.6747890  17.4378670
  76.3770730  60.1118040  17.3718860  75.1611470  59.9868150  18.2650730
  74.4271620  65.9280250  15.9114200  75.1934890  65.8161610  16.4739630
  74.5046310  65.2318220  15.2590970  73.1218380  63.3605320  16.5947090
  73.2021970  62.4132830  16.7064490  74.0138130  63.6912200  16.7007750
  70.8078570  69.5774280  19.5723140  69.8818350  69.8195420  19.5628550
  71.2735000  70.4048540  19.4507890  70.6489180  65.1820240  31.8303260
  71.1528200  64.6027520  32.4019490  69.9096600  65.4660470  32.3679630
  77.5512800  67.9034430  15.3849550  77.4463440  67.2886780  16.1110930
  77.3837020  67.3800320  14.6012560  77.7027120  66.5891230  31.3638780
  76.9372790  67.1576230  31.2793450  77.8843080  66.2967440  30.4707010
  80.7915530  66.9654460  15.9891540  80.2425630  67.4123760  16.6334280
  81.4134790  66.4603710  16.5129210  72.6812260  63.3249830  32.7253330
  72.7217600  63.0263700  33.6338560  73.5357760  63.7257440  32.5660850
  76.4590650  65.9245380  17.8856840  76.8807070  65.7585250  18.7288230
  76.5841490  65.1145610  17.3911980  74.6218070  61.9041930  30.6927820
  74.0914530  61.4132880  30.0651160  75.2906140  62.3326130  30.1585750
  78.9718290  64.9482990  15.1333940  79.4923950  64.2332010  14.7675090
  79.6186690  65.5868860  15.4334450  75.1090370  58.8704300  30.7725110
  75.0147240  58.2525050  30.0475980  74.5287760  59.5970590  30.5455020
  77.8751810  57.4277540  27.8052500  77.4269110  57.4501800  26.9598050
  77.2417010  57.0296560  28.4022800  78.2811360  66.3231870  28.4264940
  78.6999470  67.1664600  28.2541180  77.3619990  66.4603910  28.1971720
  80.6175260  64.0548050  29.8102780  80.7371470  63.4589190  30.5497620
  81.4769260  64.0917740  29.3904080  75.3549550  61.9978610  14.8315000
  75.1538610  61.1345970  15.1928340  75.1841600  61.9111970  13.8936600
  77.3844030  60.5969400  31.0678600  77.9743720  60.2885250  31.7556420
  76.5664270  60.1249150  31.2238500  74.1532350  59.0979230  14.8192880
  74.4558250  59.1046660  13.9112030  74.8926940  58.7477090  15.3160540
  77.3717280  58.0413850  15.8049080  77.0239280  57.3637840  15.2251530
  77.5730050  57.5803360  16.6192470  73.1762480  68.4021650  15.6522680
  73.6137350  68.9451320  16.3080260  73.6610210  67.5768600  15.6619020
  70.3908280  71.1910680  23.1042940  70.7211290  70.3231740  22.8721580
  70.8199280  71.3969200  23.9347900  74.9870200  69.5219690  20.7644910
  74.6865740  69.3984660  21.6648820  74.8807690  68.6628280  20.3560640
  70.7122920  64.5701500  22.2013450  70.0571760  64.3013140  21.5573150
  71.5500870  64.4605980  21.7515430  71.7498850  64.9554070  26.7416790
  72.1171890  64.8681470  27.6212810  71.1809670  64.1920620  26.6423650
  71.3014850  61.8663160  30.6475210  70.4070900  61.8329920  30.9868920
  71.8412400  62.0649950  31.4126460  69.9261000  61.7800430  18.1438780
  69.0225080  62.0430630  17.9690440  70.4101620  62.0511600  17.3638740
  72.4688210  60.8365970  16.0533160  73.1779910  60.4149190  15.5680440
  71.7528150  60.9041200  15.4216510  72.1162370  56.8905300  15.0935810
  72.8390500  57.4314240  15.4117030  72.3886890  56.6168720  14.2177350
  71.8054560  56.1411490  24.9958430  72.4530750  55.5908870  24.5553590
  72.2256400  56.3954640  25.8174240  71.5586560  56.2967160  27.7383750
  71.2101380  56.7530980  28.5041930  71.2274260  55.4024290  27.8206180
  73.1650930  69.4686760  31.9036940  73.1220560  69.0979670  32.7851400
  73.2961940  70.4064330  32.0438760  76.8656960  71.0246350  27.5046660
  76.6248320  71.2920910  26.6177180  77.8059600  71.1952080  27.5597520
  79.0711380  57.4879040  31.2603170  79.0100270  58.0800870  32.0098580
  80.0111760  57.3805000  31.1153430  72.2307200  55.8243360  31.0134520
  72.7790190  55.6431410  30.2500630  72.2962510  55.0337470  31.5490830
  72.6351190  69.7807390  27.9742760  71.9085250  69.1612680  27.9068710
  72.6960340  70.1748000  27.1040840  80.1968800  56.6251080  26.1657660
  79.4140590  57.0996580  26.4454420  79.9031730  55.7205910  26.0570840
  71.5409210  56.9298560  18.6871380  72.2988570  57.0427440  18.1135410
  71.0786380  57.7667760  18.6414810  78.0823020  59.0437830  21.6773690
  77.2697530  58.6694720  21.3369570  78.5864660  58.2882910  21.9794880
  73.9134360  57.4562610  17.2273350  74.4427120  56.6692410  17.0981300
  74.5462680  58.1353800  17.4608880  76.1072200  57.1937750  20.2818740
  75.4774940  56.4925060  20.4488870  75.5677340  57.9541880  20.0651900
  76.2327760  56.4721730  32.7171230  75.9512030  56.9755330  31.9532050
  76.6147460  55.6743480  32.3513360  74.2851650  69.8562120  17.5085240
  73.6560530  70.3247220  18.0571070  74.3999480  69.0111340  17.9431430
  79.8719410  65.6846800   5.5395710  79.0961510  65.2047240   5.8294280
  80.5232340  65.0052450   5.3651870  73.8885240  65.9966610   6.4171470
  73.0570120  65.7415320   6.8167980  74.4966220  66.0677380   7.1529390
  73.8686500  70.0306700   6.6129490  74.1714540  69.1404440   6.4339710
  74.6130090  70.5876920   6.3851740  70.2610200  63.5574150   6.0853560
  70.8326310  62.7896350   6.0857200  70.2611740  63.8562910   5.1760170
  79.3128400  68.3603990   5.5465870  79.2436680  67.4193930   5.3855000
  80.0748260  68.4505400   6.1188440  71.5035070  58.9658510   7.8722490
  71.3237910  58.0684260   8.1525250  71.1015150  59.5130380   8.5469440
  80.3433570  61.1674370   5.7734800  80.7198390  60.2946250   5.6608470
  80.2453080  61.5033070   4.8825240  72.1221740  61.4619010   6.4804830
  72.8031850  61.7257380   7.0992230  71.8069790  60.6219880   6.8142840
  76.3146310  62.5086370   5.5677420  76.8224530  63.0067340   6.2082440
  76.8459550  61.7321570   5.3916780  74.5982410  57.1484930   9.8340840
  74.6000850  57.6657320   9.0286740  73.7686720  56.6715110   9.8110770
  75.8485260  66.7880110   8.0114340  75.5154640  67.4149030   8.6535410
  76.0251940  67.3141990   7.2316010  74.2797740  58.8594890   7.8411290
  74.6214550  59.7036940   7.5465160  73.3413550  59.0078630   7.9576630
  75.0604360  68.7560910   9.8263520  75.6778360  69.4311990   9.5447970
  74.1997480  69.1648890   9.7351020  77.9625630  56.3477160   4.1655880
  78.2700610  55.7924050   3.4491380  77.0326330  56.4821620   3.9828870
  75.9563030  64.9390730   3.6835730  75.5520030  64.2267980   3.1881630
  76.0426150  64.5943970   4.5723770  76.4244730  68.6258290   5.8474940
  76.1273020  68.0203760   5.1682720  77.3744550  68.6635600   5.7364300
  74.6691650  61.7133940   7.4634770  75.2206240  61.8229280   6.6888020
  75.1835160  62.0871540   8.1790000  75.5163160  68.3639980  12.4982740
  74.6191690  68.5879950  12.7456140  75.5416030  68.4874920  11.5494140
  74.3434380  65.2353300  11.0740110  74.2042150  66.1076100  11.4427510
  73.4615740  64.8926110  10.9288050  80.6663760  70.1529170   2.3805240
  81.1059670  70.8953500   1.9660630  80.6050650  70.3955740   3.3044200
  76.1414730  71.1775000  13.2825260  76.1130160  71.5817950  12.4153690
  75.9779700  70.2485360  13.1196860  70.2953030  67.0050850   6.9911020
  70.3733450  67.1399620   6.0466740  70.9094710  66.2966740   7.1839140
  71.5400660  68.7051040   3.4017200  71.1328740  68.8465630   2.5470800
  72.4313670  68.4211200   3.1988410  70.3512550  68.0465020   9.5305480
  70.5143590  67.5770380   8.7124850  70.8165000  67.5388580  10.1954320
  75.1231320  57.1770780   4.5666050  74.6799470  57.9580320   4.2350570
  75.6816310  57.5000670   5.2736990  79.4101130  60.0439300  10.1701370
  78.9480500  60.2522320  10.9821310  79.0079240  59.2298650   9.8672040
  77.1607220  57.7218110   6.4255650  77.4579550  58.6280940   6.3447670
  77.7092780  57.2336890   5.8115220  74.9145540  62.3004350   2.2947300
  74.6886460  62.0841520   3.1993920  74.1338070  62.7332810   1.9493270
  77.3544750  63.1989930  12.9607570  77.2588350  62.2584660  12.8107970
  78.1976730  63.4205000  12.5655640  80.7508170  60.9431260   2.9241230
  81.1437740  61.2603460   2.1109920  81.1125020  60.0643140   3.0385750
  72.4855290  59.6103600  11.1141350  72.0918680  60.4578810  11.3214130
  71.7973690  58.9729970  11.3049990  79.0600340  59.6938570  14.1838090
  78.3698660  59.5010770  14.8184180  79.8032640  59.9773210  14.7162390
  69.7872340  57.5332060   5.1471430  69.4985390  58.1034920   5.8596410
  70.5318100  57.0536510   5.5102660  81.3363310  63.5337010   7.0192010
  80.6044430  64.0423820   7.3682110  80.9387650  62.7166990   6.7180790
  77.7740700  60.2091210   5.4244500  77.7776760  59.7681160   4.5749040
  78.6691820  60.5308540   5.5316320  73.6243080  60.0917700   4.3838710
  73.2843130  60.5692930   5.1405760  72.8620400  59.6382820   4.0239810
  71.9251530  67.4216450  11.6901290  71.5406320  66.7810120  12.2884250
  72.2363720  68.1252570  12.2596020  78.0748670  64.2692990   7.1709910
  78.4418800  63.7951560   7.9171250  77.8853730  65.1434560   7.5118250
  70.9389160  59.0136680   3.3003380  70.6536080  58.6492350   4.1382000
  70.8768020  58.2817140   2.6866520  75.8648040  63.3101630   9.4894120
  75.5605110  64.1893610   9.7144480  76.8194500  63.3701420   9.5251560
  80.5336610  66.5837040  11.7656360  80.4673920  65.6632710  11.5113950
  79.9041750  66.6812480  12.4801000  74.4367230  67.1843000   3.7239780
  74.9545900  66.3811260   3.6696670  73.9851250  67.1222140   4.5656610
  71.9211770  64.1504370  10.6365480  71.5626710  64.8158220  11.2238820
  71.6266330  63.3187920  11.0078100  75.1224890  64.6088610  13.5205030
  74.8225030  64.7545790  12.6232850  75.8936130  64.0493900  13.4278420
  80.4653340  69.4057610  11.5160160  80.4797880  68.4738570  11.2979070
  79.7578440  69.4917370  12.1549930  78.2927420  68.5322810   1.7683000
  78.9798550  69.0792020   2.1490590  77.5059840  69.0763540   1.8032610
  79.8987240  71.0475180   8.6100660  80.5429460  71.2534560   9.2874080
  80.2616680  70.2863580   8.1571510  70.4960340  57.6397610  11.3137580
  69.7818860  57.8394530  11.9190190  70.9155380  56.8637180  11.6852380
  70.7832930  71.6277870  12.3004110  70.8924050  70.6872610  12.1599500
  70.1313490  71.8932620  11.6517840  78.7745520  69.8993760  13.7002230
  78.4542390  69.1803000  14.2447920  78.1003880  70.5748830  13.7738290
  78.9501110  62.7859510   9.2877000  79.4486360  63.2605330   9.9528850
  79.0924060  61.8623030   9.4947030  70.6489180  65.1820240  13.0559770
  71.1528200  64.6027520  13.6276000  69.9096600  65.4660470  13.5936140
  77.7027120  66.5891230  12.5895290  76.9372790  67.1576230  12.5049960
  77.8843080  66.2967440  11.6963520  72.6812260  63.3249830  13.9509840
  72.7217600  63.0263700  14.8595070  73.5357760  63.7257440  13.7917360
  74.6218070  61.9041930  11.9184330  74.0914530  61.4132880  11.2907670
  75.2906140  62.3326130  11.3842260  75.1090370  58.8704300  11.9981620
  75.0147240  58.2525050  11.2732490  74.5287760  59.5970590  11.7711530
  77.8751810  57.4277540   9.0309010  77.4269110  57.4501800   8.1854560
  77.2417010  57.0296560   9.6279310  78.2811360  66.3231870   9.6521450
  78.6999470  67.1664600   9.4797690  77.3619990  66.4603910   9.4228230
  80.6175260  64.0548050  11.0359290  80.7371470  63.4589190  11.7754130
  81.4769260  64.0917740  10.6160590  77.3844030  60.5969400  12.2935110
  77.9743720  60.2885250  12.9812930  76.5664270  60.1249150  12.4495010
  70.3908280  71.1910680   4.3299450  70.7211290  70.3231740   4.0978090
  70.8199280  71.3969200   5.1604410  70.7122920  64.5701500   3.4269960
  70.0571760  64.3013140   2.7829660  71.5500870  64.4605980   2.9771940
  71.7498850  64.9554070   7.9673300  72.1171890  64.8681470   8.8469320
  71.1809670  64.1920620   7.8680160  71.3014850  61.8663160  11.8731720
  70.4070900  61.8329920  12.2125430  71.8412400  62.0649950  12.6382970
  71.8054560  56.1411490   6.2214940  72.4530750  55.5908870   5.7810100
  72.2256400  56.3954640   7.0430750  71.5586560  56.2967160   8.9640260
  71.2101380  56.7530980   9.7298440  71.2274260  55.4024290   9.0462690
  73.1650930  69.4686760  13.1293450  73.1220560  69.0979670  14.0107910
  73.2961940  70.4064330  13.2695270  76.8656960  71.0246350   8.7303170
  76.6248320  71.2920910   7.8433690  77.8059600  71.1952080   8.7854030
  79.0711380  57.4879040  12.4859680  79.0100270  58.0800870  13.2355090
  80.0111760  57.3805000  12.3409940  72.2307200  55.8243360  12.2391030
  72.7790190  55.6431410  11.4757140  72.2962510  55.0337470  12.7747340
  72.6351190  69.7807390   9.1999270  71.9085250  69.1612680   9.1325220
  72.6960340  70.1748000   8.3297350  80.1968800  56.6251080   7.3914170
  79.4140590  57.0996580   7.6710930  79.9031730  55.7205910   7.2827350
  78.0823020  59.0437830   2.9030200  77.2697530  58.6694720   2.5626080
  78.5864660  58.2882910   3.2051390  76.2327760  56.4721730  13.9427740
  75.9512030  56.9755330  13.1788560  76.6147460  55.6743480  13.5769870
  79.8719410  46.9103310  61.8626180  79.0961510  46.4303750  62.1524750
  80.5232340  46.2308960  61.6882340  73.8885240  47.2223120  62.7401940
  73.0570120  46.9671830  63.1398450  74.4966220  47.2933890  63.4759860
  73.8686500  51.2563210  62.9359960  74.1714540  50.3660950  62.7570180
  74.6130090  51.8133430  62.7082210  72.2977190  42.1825010  56.5244330
  71.4093890  42.5240980  56.4224210  72.5818380  41.9825330  55.6325160
  70.2610200  44.7830660  62.4084030  70.8326310  44.0152860  62.4087670
  70.2611740  45.0819420  61.4990640  80.1190150  53.6021510  60.2629300
  79.5001590  54.0579010  59.6923740  80.9741930  53.7572970  59.8619000
  79.3128400  49.5860500  61.8696340  79.2436680  48.6450440  61.7085470
  80.0748260  49.6761910  62.4418910  71.5035070  40.1915020  64.1952960
  71.3237910  39.2940770  64.4755720  71.1015150  40.7386890  64.8699910
  80.3433570  42.3930880  62.0965270  80.7198390  41.5202760  61.9838940
  80.2453080  42.7289580  61.2055710  74.4738580  40.7656510  57.5582710
  74.5805330  41.6660240  57.8651470  73.5630940  40.7174480  57.2677360
  72.1221740  42.6875520  62.8035300  72.8031850  42.9513890  63.4222700
  71.8069790  41.8476390  63.1373310  76.3146310  43.7342880  61.8907890
  76.8224530  44.2323850  62.5312910  76.8459550  42.9578080  61.7147250
  80.9853500  48.4860750  57.6561210  80.3670770  48.9510200  57.0923930
  81.4976750  49.1788230  58.0730720  75.8485260  48.0136620  64.3344810
  75.5154640  48.6405540  64.9765880  76.0251940  48.5398500  63.5546480
  74.2797740  40.0851400  64.1641760  74.6214550  40.9293450  63.8695630
  73.3413550  40.2335140  64.2807100  70.3536700  49.1717280  55.0300840
  69.9764680  49.6604380  54.2985740  70.6109770  49.8442560  55.6607370
  77.9625630  37.5733670  60.4886350  78.2700610  37.0180560  59.7721850
  77.0326330  37.7078130  60.3059340  80.3506390  45.6382500  57.2246470
  79.4235670  45.5719880  57.4534940  80.5031210  46.5762630  57.1101710
  80.3375470  41.9099500  54.2213630  79.3979140  42.0713460  54.3066090
  80.6558730  42.6285180  53.6749620  75.9563030  46.1647240  60.0066200
  75.5520030  45.4524490  59.5112100  76.0426150  45.8200480  60.8954240
  76.4244730  49.8514800  62.1705410  76.1273020  49.2460270  61.4913190
  77.3744550  49.8892110  62.0594770  74.6691650  42.9390450  63.7865240
  75.2206240  43.0485790  63.0118490  75.1835160  43.3128050  64.5020470
  80.6663760  51.3785680  58.7035710  81.1059670  52.1210010  58.2891100
  80.6050650  51.6212250  59.6274670  72.6567660  45.0592220  57.5072850
  72.5365260  45.7854310  56.8954120  72.3468550  44.2895130  57.0300760
  70.2953030  48.2307360  63.3141490  70.3733450  48.3656130  62.3697210
  70.9094710  47.5223250  63.5069610  71.5400660  49.9307550  59.7247670
  71.1328740  50.0722140  58.8701270  72.4313670  49.6467710  59.5218880
  75.8122320  54.1453330  57.8370340  75.6364800  53.2288870  57.6238140
  74.9578060  54.5040620  58.0768140  75.1231320  38.4027290  60.8896520
  74.6799470  39.1836830  60.5581040  75.6816310  38.7257180  61.5967460
  78.2390140  38.0237990  55.7702350  77.6144320  38.0197860  56.4955660
  78.1520260  37.1568950  55.3738320  77.1607220  38.9474620  62.7486120
  77.4579550  39.8537450  62.6678140  77.7092780  38.4593400  62.1345690
  74.9145540  43.5260860  58.6177770  74.6886460  43.3098030  59.5224390
  74.1338070  43.9589320  58.2723740  80.7508170  42.1687770  59.2471700
  81.1437740  42.4859970  58.4340390  81.1125020  41.2899650  59.3616220
  69.7872340  38.7588570  61.4701900  69.4985390  39.3291430  62.1826880
  70.5318100  38.2793020  61.8333130  69.9742570  42.7008690  52.6804620
  69.8917240  43.6439450  52.8219610  69.6225630  42.5583600  51.8016970
  81.3363310  44.7593520  63.3422480  80.6044430  45.2680330  63.6912580
  80.9387650  43.9423500  63.0411260  77.7740700  41.4347720  61.7474970
  77.7776760  40.9937670  60.8979510  78.6691820  41.7565050  61.8546790
  73.6243080  41.3174210  60.7069180  73.2843130  41.7949440  61.4636230
  72.8620400  40.8639330  60.3470280  77.8360850  42.4359800  54.7381730
  77.9573670  42.3946280  55.6867550  77.4509360  43.2983950  54.5828460
  76.8482350  44.7460940  54.1365030  76.2799250  44.2979190  53.5100940
  77.5571350  45.1053720  53.6030180  78.0748670  45.4949500  63.4940380
  78.4418800  45.0208070  64.2401720  77.8853730  46.3691070  63.8348720
  70.9389160  40.2393190  59.6233850  70.6536080  39.8748860  60.4612470
  70.8768020  39.5073650  59.0096990  74.3929830  48.7419130  56.4091440
  73.6192090  48.2016750  56.2490160  75.1224460  48.2225740  56.0709200
  80.6127750  39.1322450  56.3447220  79.7992360  38.6335620  56.2692530
  80.4189700  39.9720700  55.9283570  74.4367230  48.4099510  60.0470250
  74.9545900  47.6067770  59.9927140  73.9851250  48.3478650  60.8887080
  79.3236730  49.6765790  55.3197550  79.6652430  50.4208020  54.8240870
  78.4949440  49.9896910  55.6822380  78.2927420  49.7579320  58.0913470
  78.9798550  50.3048530  58.4721060  77.5059840  50.3020050  58.1263080
  70.4319820  45.3752140  53.5830550  71.3014670  45.6576940  53.8666470
  69.9410140  46.1888010  53.4679360  77.5954630  46.7625350  57.7038830
  78.0517410  47.5730600  57.9299020  77.2442840  46.4448490  58.5357320
  73.4966410  37.1063000  58.1761350  73.3681040  37.0980900  59.1246270
  72.6728430  37.4446090  57.8252360  70.7991070  54.5879520  54.1492180
  71.1588710  55.1868860  53.4949450  70.6583410  55.1339410  54.9227210
  76.8159690  51.9710720  54.9665850  76.8069790  52.7040410  54.3510360
  75.8958050  51.7242300  55.0592810  72.4166330  47.1925610  55.7112610
  71.8094280  47.9324510  55.7207910  72.8915680  47.2824970  54.8850810
  79.8019290  52.0338960  53.6291040  79.9031270  51.8302950  52.6993020
  78.9021030  51.7797240  53.8338820  77.3245180  42.5919320  57.6114940
  76.6161330  43.0605660  58.0528550  77.6089660  41.9341330  58.2460130
  78.4437400  54.5525280  58.3238710  78.6978900  54.5146670  57.4018080
  77.4949880  54.4258610  58.3166960  75.5280200  40.9004400  54.9865650
  76.3770730  41.3374550  54.9205840  75.1611470  41.2124660  55.8137710
  74.4271620  47.1536760  53.4601180  75.1934890  47.0418120  54.0226610
  74.5046310  46.4574730  52.8077950  73.1218380  44.5861830  54.1434070
  73.2021970  43.6389340  54.2551470  74.0138130  44.9168710  54.2494730
  73.9233090  54.7357220  61.2468610  74.6595570  54.1872680  61.5177180
  74.3074010  55.6013230  61.1074600  70.8078570  50.8030790  57.1210120
  69.8818350  51.0451930  57.1115530  71.2735000  51.6305050  56.9994870
  77.0335400  53.9087530  53.0694180  77.8264010  54.1976360  52.6175970
  76.5139750  53.4779700  52.3906660  77.5512800  49.1290940  52.9336530
  77.4463440  48.5143290  53.6597910  77.3837020  48.6056830  52.1499540
  80.7915530  48.1910970  53.5378520  80.2425630  48.6380270  54.1821260
  81.4134790  47.6860220  54.0616190  76.4590650  47.1501890  55.4343820
  76.8807070  46.9841760  56.2775210  76.5841490  46.3402120  54.9398960
  78.9718290  46.1739500  52.6820920  79.4923950  45.4588520  52.3162070
  79.6186690  46.8125370  52.9821430  75.3549550  43.2235120  52.3801980
  75.1538610  42.3602480  52.7415320  75.1841600  43.1368480  51.4423580
  74.1532350  40.3235740  52.3679860  74.4558250  40.3303170  51.4599010
  74.8926940  39.9733600  52.8647520  77.3717280  39.2670360  53.3536060
  77.0239280  38.5894350  52.7738510  77.5730050  38.8059870  54.1679450
  79.5366320  54.2551110  54.9722660  80.4317110  54.5936080  54.9941420
  79.5683950  53.5330520  54.3446940  73.1762480  49.6278160  53.2009660
  73.6137350  50.1707830  53.8567240  73.6610210  48.8025110  53.2106000
  70.3908280  52.4167190  60.6529920  70.7211290  51.5488250  60.4208560
  70.8199280  52.6225710  61.4834880  74.9870200  50.7476200  58.3131890
  74.6865740  50.6241170  59.2135800  74.8807690  49.8884790  57.9047620
  70.8798490  53.2837780  63.3911550  70.4429480  53.4638580  64.2235700
  71.4476170  54.0412400  63.2493270  70.7122920  45.7958010  59.7500430
  70.0571760  45.5269650  59.1060130  71.5500870  45.6862490  59.3002410
  71.7498850  46.1810580  64.2903770  72.1171890  46.0937980  65.1699790
  71.1809670  45.4177130  64.1910630  69.9261000  43.0056940  55.6925760
  69.0225080  43.2687140  55.5177420  70.4101620  43.2768110  54.9125720
  72.4688210  42.0622480  53.6020140  73.1779910  41.6405700  53.1167420
  71.7528150  42.1297710  52.9703490  72.1162370  38.1161810  52.6422790
  72.8390500  38.6570750  52.9604010  72.3886890  37.8425230  51.7664330
  71.8054560  37.3668000  62.5445410  72.4530750  36.8165380  62.1040570
  72.2256400  37.6211150  63.3661220  76.8656960  52.2502860  65.0533640
  76.6248320  52.5177420  64.1664160  77.8059600  52.4208590  65.1084500
  76.2396290  53.2208900  62.3079150  76.7561310  52.6096260  61.7827410
  76.8893670  53.7237680  62.7990160  78.9791790  54.1117390  63.1348130
  79.2669600  53.8571690  62.2581140  79.4915010  53.5594750  63.7253700
  80.1968800  37.8507590  63.7144640  79.4140590  38.3253090  63.9941400
  79.9031730  36.9462420  63.6057820  70.9181190  54.3238290  58.7326500
  70.7503230  53.6908970  59.4308390  70.0515700  54.5297690  58.3820690
  71.5409210  38.1555070  56.2358360  72.2988570  38.2683950  55.6622390
  71.0786380  38.9924270  56.1901790  78.0823020  40.2694340  59.2260670
  77.2697530  39.8951230  58.8856550  78.5864660  39.5139420  59.5281860
  72.5243890  53.0171520  56.1776640  71.9991510  53.3979550  55.4738600
  72.4488470  53.6422290  56.8986350  73.9134360  38.6819120  54.7760330
  74.4427120  37.8948920  54.6468280  74.5462680  39.3610310  55.0095860
  76.1072200  38.4194260  57.8305720  75.4774940  37.7181570  57.9975850
  75.5677340  39.1798390  57.6138880  75.1236860  54.9653900  55.0525890
  75.8555680  54.6813180  54.5049780  75.3830530  54.7267180  55.9425270
  74.2851650  51.0818630  55.0572220  73.6560530  51.5503730  55.6058050
  74.3999480  50.2367850  55.4918410  79.8719410  46.9103310  43.0882690
  79.0961510  46.4303750  43.3781260  80.5232340  46.2308960  42.9138850
  73.8885240  47.2223120  43.9658450  73.0570120  46.9671830  44.3654960
  74.4966220  47.2933890  44.7016370  73.8686500  51.2563210  44.1616470
  74.1714540  50.3660950  43.9826690  74.6130090  51.8133430  43.9338720
  72.2977190  42.1825010  37.7500840  71.4093890  42.5240980  37.6480720
  72.5818380  41.9825330  36.8581670  70.2610200  44.7830660  43.6340540
  70.8326310  44.0152860  43.6344180  70.2611740  45.0819420  42.7247150
  80.1190150  53.6021510  41.4885810  79.5001590  54.0579010  40.9180250
  80.9741930  53.7572970  41.0875510  79.3128400  49.5860500  43.0952850
  79.2436680  48.6450440  42.9341980  80.0748260  49.6761910  43.6675420
  71.5035070  40.1915020  45.4209470  71.3237910  39.2940770  45.7012230
  71.1015150  40.7386890  46.0956420  80.3433570  42.3930880  43.3221780
  80.7198390  41.5202760  43.2095450  80.2453080  42.7289580  42.4312220
  74.4738580  40.7656510  38.7839220  74.5805330  41.6660240  39.0907980
  73.5630940  40.7174480  38.4933870  72.1221740  42.6875520  44.0291810
  72.8031850  42.9513890  44.6479210  71.8069790  41.8476390  44.3629820
  76.3146310  43.7342880  43.1164400  76.8224530  44.2323850  43.7569420
  76.8459550  42.9578080  42.9403760  74.5982410  38.3741440  47.3827820
  74.6000850  38.8913830  46.5773720  73.7686720  37.8971620  47.3597750
  80.9853500  48.4860750  38.8817720  80.3670770  48.9510200  38.3180440
  81.4976750  49.1788230  39.2987230  75.8485260  48.0136620  45.5601320
  75.5154640  48.6405540  46.2022390  76.0251940  48.5398500  44.7802990
  74.2797740  40.0851400  45.3898270  74.6214550  40.9293450  45.0952140
  73.3413550  40.2335140  45.5063610  75.0604360  49.9817420  47.3750500
  75.6778360  50.6568500  47.0934950  74.1997480  50.3905400  47.2838000
  70.3536700  49.1717280  36.2557350  69.9764680  49.6604380  35.5242250
  70.6109770  49.8442560  36.8863880  77.9625630  37.5733670  41.7142860
  78.2700610  37.0180560  40.9978360  77.0326330  37.7078130  41.5315850
  80.3506390  45.6382500  38.4502980  79.4235670  45.5719880  38.6791450
  80.5031210  46.5762630  38.3358220  80.3375470  41.9099500  35.4470140
  79.3979140  42.0713460  35.5322600  80.6558730  42.6285180  34.9006130
  75.9563030  46.1647240  41.2322710  75.5520030  45.4524490  40.7368610
  76.0426150  45.8200480  42.1210750  76.4244730  49.8514800  43.3961920
  76.1273020  49.2460270  42.7169700  77.3744550  49.8892110  43.2851280
  74.6691650  42.9390450  45.0121750  75.2206240  43.0485790  44.2375000
  75.1835160  43.3128050  45.7276980  75.5163160  49.5896490  50.0469720
  74.6191690  49.8136460  50.2943120  75.5416030  49.7131430  49.0981120
  74.3434380  46.4609810  48.6227090  74.2042150  47.3332610  48.9914490
  73.4615740  46.1182620  48.4775030  80.6663760  51.3785680  39.9292220
  81.1059670  52.1210010  39.5147610  80.6050650  51.6212250  40.8531180
  76.1414730  52.4031510  50.8312240  76.1130160  52.8074460  49.9640670
  75.9779700  51.4741870  50.6683840  72.6567660  45.0592220  38.7329360
  72.5365260  45.7854310  38.1210630  72.3468550  44.2895130  38.2557270
  70.2953030  48.2307360  44.5398000  70.3733450  48.3656130  43.5953720
  70.9094710  47.5223250  44.7326120  71.5400660  49.9307550  40.9504180
  71.1328740  50.0722140  40.0957780  72.4313670  49.6467710  40.7475390
  75.8122320  54.1453330  39.0626850  75.6364800  53.2288870  38.8494650
  74.9578060  54.5040620  39.3024650  70.3512550  49.2721530  47.0792460
  70.5143590  48.8026890  46.2611830  70.8165000  48.7645090  47.7441300
  75.1231320  38.4027290  42.1153030  74.6799470  39.1836830  41.7837550
  75.6816310  38.7257180  42.8223970  79.4101130  41.2695810  47.7188350
  78.9480500  41.4778830  48.5308290  79.0079240  40.4555160  47.4159020
  78.2390140  38.0237990  36.9958860  77.6144320  38.0197860  37.7212170
  78.1520260  37.1568950  36.5994830  77.1607220  38.9474620  43.9742630
  77.4579550  39.8537450  43.8934650  77.7092780  38.4593400  43.3602200
  74.9145540  43.5260860  39.8434280  74.6886460  43.3098030  40.7480900
  74.1338070  43.9589320  39.4980250  77.3544750  44.4246440  50.5094550
  77.2588350  43.4841170  50.3594950  78.1976730  44.6461510  50.1142620
  80.7508170  42.1687770  40.4728210  81.1437740  42.4859970  39.6596900
  81.1125020  41.2899650  40.5872730  72.4855290  40.8360110  48.6628330
  72.0918680  41.6835320  48.8701110  71.7973690  40.1986480  48.8536970
  79.0600340  40.9195080  51.7325070  78.3698660  40.7267280  52.3671160
  79.8032640  41.2029720  52.2649370  69.7872340  38.7588570  42.6958410
  69.4985390  39.3291430  43.4083390  70.5318100  38.2793020  43.0589640
  69.9742570  42.7008690  33.9061130  69.8917240  43.6439450  34.0476120
  69.6225630  42.5583600  33.0273480  81.3363310  44.7593520  44.5678990
  80.6044430  45.2680330  44.9169090  80.9387650  43.9423500  44.2667770
  77.7740700  41.4347720  42.9731480  77.7776760  40.9937670  42.1236020
  78.6691820  41.7565050  43.0803300  73.6243080  41.3174210  41.9325690
  73.2843130  41.7949440  42.6892740  72.8620400  40.8639330  41.5726790
  77.8360850  42.4359800  35.9638240  77.9573670  42.3946280  36.9124060
  77.4509360  43.2983950  35.8084970  76.8482350  44.7460940  35.3621540
  76.2799250  44.2979190  34.7357450  77.5571350  45.1053720  34.8286690
  71.9251530  48.6472960  49.2388270  71.5406320  48.0066630  49.8371230
  72.2363720  49.3509080  49.8083000  78.0748670  45.4949500  44.7196890
  78.4418800  45.0208070  45.4658230  77.8853730  46.3691070  45.0605230
  70.9389160  40.2393190  40.8490360  70.6536080  39.8748860  41.6868980
  70.8768020  39.5073650  40.2353500  75.8648040  44.5358140  47.0381100
  75.5605110  45.4150120  47.2631460  76.8194500  44.5957930  47.0738540
  74.3929830  48.7419130  37.6347950  73.6192090  48.2016750  37.4746670
  75.1224460  48.2225740  37.2965710  80.6127750  39.1322450  37.5703730
  79.7992360  38.6335620  37.4949040  80.4189700  39.9720700  37.1540080
  80.5336610  47.8093550  49.3143340  80.4673920  46.8889220  49.0600930
  79.9041750  47.9068990  50.0287980  74.4367230  48.4099510  41.2726760
  74.9545900  47.6067770  41.2183650  73.9851250  48.3478650  42.1143590
  79.3236730  49.6765790  36.5454060  79.6652430  50.4208020  36.0497380
  78.4949440  49.9896910  36.9078890  71.9211770  45.3760880  48.1852460
  71.5626710  46.0414730  48.7725800  71.6266330  44.5444430  48.5565080
  75.1224890  45.8345120  51.0692010  74.8225030  45.9802300  50.1719830
  75.8936130  45.2750410  50.9765400  80.4653340  50.6314120  49.0647140
  80.4797880  49.6995080  48.8466050  79.7578440  50.7173880  49.7036910
  78.2927420  49.7579320  39.3169980  78.9798550  50.3048530  39.6977570
  77.5059840  50.3020050  39.3519590  70.4319820  45.3752140  34.8087060
  71.3014670  45.6576940  35.0922980  69.9410140  46.1888010  34.6935870
  77.5954630  46.7625350  38.9295340  78.0517410  47.5730600  39.1555530
  77.2442840  46.4448490  39.7613830  79.8987240  52.2731690  46.1587640
  80.5429460  52.4791070  46.8361060  80.2616680  51.5120090  45.7058490
  73.4966410  37.1063000  39.4017860  73.3681040  37.0980900  40.3502780
  72.6728430  37.4446090  39.0508870  70.7991070  54.5879520  35.3748690
  71.1588710  55.1868860  34.7205960  70.6583410  55.1339410  36.1483720
  70.4960340  38.8654120  48.8624560  69.7818860  39.0651040  49.4677170
  70.9155380  38.0893690  49.2339360  70.7832930  52.8534380  49.8491090
  70.8924050  51.9129120  49.7086480  70.1313490  53.1189130  49.2004820
  78.7745520  51.1250270  51.2489210  78.4542390  50.4059510  51.7934900
  78.1003880  51.8005340  51.3225270  76.8159690  51.9710720  36.1922360
  76.8069790  52.7040410  35.5766870  75.8958050  51.7242300  36.2849320
  72.4166330  47.1925610  36.9369120  71.8094280  47.9324510  36.9464420
  72.8915680  47.2824970  36.1107320  79.8019290  52.0338960  34.8547550
  79.9031270  51.8302950  33.9249530  78.9021030  51.7797240  35.0595330
  77.3245180  42.5919320  38.8371450  76.6161330  43.0605660  39.2785060
  77.6089660  41.9341330  39.4716640  78.9501110  44.0116020  46.8363980
  79.4486360  44.4861840  47.5015830  79.0924060  43.0879540  47.0434010
  78.4437400  54.5525280  39.5495220  78.6978900  54.5146670  38.6274590
  77.4949880  54.4258610  39.5423470  75.5280200  40.9004400  36.2122160
  76.3770730  41.3374550  36.1462350  75.1611470  41.2124660  37.0394220
  74.4271620  47.1536760  34.6857690  75.1934890  47.0418120  35.2483120
  74.5046310  46.4574730  34.0334460  73.1218380  44.5861830  35.3690580
  73.2021970  43.6389340  35.4807980  74.0138130  44.9168710  35.4751240
  73.9233090  54.7357220  42.4725120  74.6595570  54.1872680  42.7433690
  74.3074010  55.6013230  42.3331110  70.8078570  50.8030790  38.3466630
  69.8818350  51.0451930  38.3372040  71.2735000  51.6305050  38.2251380
  72.9291370  53.9203290  51.6610700  73.7304100  54.2415340  52.0746100
  72.4143190  53.5598870  52.3830610  77.0335400  53.9087530  34.2950690
  77.8264010  54.1976360  33.8432480  76.5139750  53.4779700  33.6163170
  70.6489180  46.4076750  50.6046750  71.1528200  45.8284030  51.1762980
  69.9096600  46.6916980  51.1423120  77.5512800  49.1290940  34.1593040
  77.4463440  48.5143290  34.8854420  77.3837020  48.6056830  33.3756050
  77.7027120  47.8147740  50.1382270  76.9372790  48.3832740  50.0536940
  77.8843080  47.5223950  49.2450500  80.7915530  48.1910970  34.7635030
  80.2425630  48.6380270  35.4077770  81.4134790  47.6860220  35.2872700
  72.6812260  44.5506340  51.4996820  72.7217600  44.2520210  52.4082050
  73.5357760  44.9513950  51.3404340  76.4590650  47.1501890  36.6600330
  76.8807070  46.9841760  37.5031720  76.5841490  46.3402120  36.1655470
  74.6218070  43.1298440  49.4671310  74.0914530  42.6389390  48.8394650
  75.2906140  43.5582640  48.9329240  78.9718290  46.1739500  33.9077430
  79.4923950  45.4588520  33.5418580  79.6186690  46.8125370  34.2077940
  75.1090370  40.0960810  49.5468600  75.0147240  39.4781560  48.8219470
  74.5287760  40.8227100  49.3198510  77.8751810  38.6534050  46.5795990
  77.4269110  38.6758310  45.7341540  77.2417010  38.2553070  47.1766290
  78.2811360  47.5488380  47.2008430  78.6999470  48.3921110  47.0284670
  77.3619990  47.6860420  46.9715210  80.6175260  45.2804560  48.5846270
  80.7371470  44.6845700  49.3241110  81.4769260  45.3174250  48.1647570
  75.3549550  43.2235120  33.6058490  75.1538610  42.3602480  33.9671830
  75.1841600  43.1368480  32.6680090  76.1318780  53.8541390  48.3166160
  75.5939870  54.5787450  47.9974860  76.3852740  53.3771730  47.5263500
  77.3844030  41.8225910  49.8422090  77.9743720  41.5141760  50.5299910
  76.5664270  41.3505660  49.9981990  74.1532350  40.3235740  33.5936370
  74.4558250  40.3303170  32.6855520  74.8926940  39.9733600  34.0904030
  78.9880990  55.0892600  48.5752810  78.9139690  55.9927740  48.8825180
  78.0859830  54.7704500  48.5474880  77.3717280  39.2670360  34.5792570
  77.0239280  38.5894350  33.9995020  77.5730050  38.8059870  35.3935960
  79.5366320  54.2551110  36.1979170  80.4317110  54.5936080  36.2197930
  79.5683950  53.5330520  35.5703450  73.1762480  49.6278160  34.4266170
  73.6137350  50.1707830  35.0823750  73.6610210  48.8025110  34.4362510
  70.3908280  52.4167190  41.8786430  70.7211290  51.5488250  41.6465070
  70.8199280  52.6225710  42.7091390  74.9870200  50.7476200  39.5388400
  74.6865740  50.6241170  40.4392310  74.8807690  49.8884790  39.1304130
  70.8798490  53.2837780  44.6168060  70.4429480  53.4638580  45.4492210
  71.4476170  54.0412400  44.4749780  70.7122920  45.7958010  40.9756940
  70.0571760  45.5269650  40.3316640  71.5500870  45.6862490  40.5258920
  71.7498850  46.1810580  45.5160280  72.1171890  46.0937980  46.3956300
  71.1809670  45.4177130  45.4167140  71.3014850  43.0919670  49.4218700
  70.4070900  43.0586430  49.7612410  71.8412400  43.2906460  50.1869950
  69.9261000  43.0056940  36.9182270  69.0225080  43.2687140  36.7433930
  70.4101620  43.2768110  36.1382230  72.4688210  42.0622480  34.8276650
  73.1779910  41.6405700  34.3423930  71.7528150  42.1297710  34.1960000
  72.1162370  38.1161810  33.8679300  72.8390500  38.6570750  34.1860520
  72.3886890  37.8425230  32.9920840  71.8054560  37.3668000  43.7701920
  72.4530750  36.8165380  43.3297080  72.2256400  37.6211150  44.5917730
  71.5586560  37.5223670  46.5127240  71.2101380  37.9787490  47.2785420
  71.2274260  36.6280800  46.5949670  73.1650930  50.6943270  50.6780430
  73.1220560  50.3236180  51.5594890  73.2961940  51.6320840  50.8182250
  76.8656960  52.2502860  46.2790150  76.6248320  52.5177420  45.3920670
  77.8059600  52.4208590  46.3341010  79.0711380  38.7135550  50.0346660
  79.0100270  39.3057380  50.7842070  80.0111760  38.6061510  49.8896920
  72.2307200  37.0499870  49.7878010  72.7790190  36.8687920  49.0244120
  72.2962510  36.2593980  50.3234320  73.0038960  53.6405520  47.7978210
  72.4099280  53.5090220  48.5368250  72.9962800  52.8043660  47.3320310
  72.6351190  51.0063900  46.7486250  71.9085250  50.3869190  46.6812200
  72.6960340  51.4004510  45.8784330  76.2396290  53.2208900  43.5335660
  76.7561310  52.6096260  43.0083920  76.8893670  53.7237680  44.0246670
  78.9791790  54.1117390  44.3604640  79.2669600  53.8571690  43.4837650
  79.4915010  53.5594750  44.9510210  80.1968800  37.8507590  44.9401150
  79.4140590  38.3253090  45.2197910  79.9031730  36.9462420  44.8314330
  70.9181190  54.3238290  39.9583010  70.7503230  53.6908970  40.6564900
  70.0515700  54.5297690  39.6077200  71.5409210  38.1555070  37.4614870
  72.2988570  38.2683950  36.8878900  71.0786380  38.9924270  37.4158300
  78.0823020  40.2694340  40.4517180  77.2697530  39.8951230  40.1113060
  78.5864660  39.5139420  40.7538370  72.5243890  53.0171520  37.4033150
  71.9991510  53.3979550  36.6995110  72.4488470  53.6422290  38.1242860
  73.9134360  38.6819120  36.0016840  74.4427120  37.8948920  35.8724790
  74.5462680  39.3610310  36.2352370  76.1072200  38.4194260  39.0562230
  75.4774940  37.7181570  39.2232360  75.5677340  39.1798390  38.8395390
  79.0464150  55.0333490  51.7272840  79.9731460  54.7977760  51.7708800
  79.0314580  55.8605490  51.2458870  76.2327760  37.6978240  51.4914720
  75.9512030  38.2011840  50.7275540  76.6147460  36.8999990  51.1256850
  75.1236860  54.9653900  36.2782400  75.8555680  54.6813180  35.7306290
  75.3830530  54.7267180  37.1681780  74.2851650  51.0818630  36.2828730
  73.6560530  51.5503730  36.8314560  74.3999480  50.2367850  36.7174920
  79.8719410  46.9103310  24.3139200  79.0961510  46.4303750  24.6037770
  80.5232340  46.2308960  24.1395360  73.8885240  47.2223120  25.1914960
  73.0570120  46.9671830  25.5911470  74.4966220  47.2933890  25.9272880
  73.8686500  51.2563210  25.3872980  74.1714540  50.3660950  25.2083200
  74.6130090  51.8133430  25.1595230  72.2977190  42.1825010  18.9757350
  71.4093890  42.5240980  18.8737230  72.5818380  41.9825330  18.0838180
  70.2610200  44.7830660  24.8597050  70.8326310  44.0152860  24.8600690
  70.2611740  45.0819420  23.9503660  80.1190150  53.6021510  22.7142320
  79.5001590  54.0579010  22.1436760  80.9741930  53.7572970  22.3132020
  79.3128400  49.5860500  24.3209360  79.2436680  48.6450440  24.1598490
  80.0748260  49.6761910  24.8931930  71.5035070  40.1915020  26.6465980
  71.3237910  39.2940770  26.9268740  71.1015150  40.7386890  27.3212930
  80.3433570  42.3930880  24.5478290  80.7198390  41.5202760  24.4351960
  80.2453080  42.7289580  23.6568730  74.4738580  40.7656510  20.0095730
  74.5805330  41.6660240  20.3164490  73.5630940  40.7174480  19.7190380
  72.1221740  42.6875520  25.2548320  72.8031850  42.9513890  25.8735720
  71.8069790  41.8476390  25.5886330  76.3146310  43.7342880  24.3420910
  76.8224530  44.2323850  24.9825930  76.8459550  42.9578080  24.1660270
  74.5982410  38.3741440  28.6084330  74.6000850  38.8913830  27.8030230
  73.7686720  37.8971620  28.5854260  80.9853500  48.4860750  20.1074230
  80.3670770  48.9510200  19.5436950  81.4976750  49.1788230  20.5243740
  75.8485260  48.0136620  26.7857830  75.5154640  48.6405540  27.4278900
  76.0251940  48.5398500  26.0059500  74.2797740  40.0851400  26.6154780
  74.6214550  40.9293450  26.3208650  73.3413550  40.2335140  26.7320120
  75.0604360  49.9817420  28.6007010  75.6778360  50.6568500  28.3191460
  74.1997480  50.3905400  28.5094510  70.3536700  49.1717280  17.4813860
  69.9764680  49.6604380  16.7498760  70.6109770  49.8442560  18.1120390
  77.9625630  37.5733670  22.9399370  78.2700610  37.0180560  22.2234870
  77.0326330  37.7078130  22.7572360  80.3506390  45.6382500  19.6759490
  79.4235670  45.5719880  19.9047960  80.5031210  46.5762630  19.5614730
  80.3375470  41.9099500  16.6726650  79.3979140  42.0713460  16.7579110
  80.6558730  42.6285180  16.1262640  75.9563030  46.1647240  22.4579220
  75.5520030  45.4524490  21.9625120  76.0426150  45.8200480  23.3467260
  76.4244730  49.8514800  24.6218430  76.1273020  49.2460270  23.9426210
  77.3744550  49.8892110  24.5107790  74.6691650  42.9390450  26.2378260
  75.2206240  43.0485790  25.4631510  75.1835160  43.3128050  26.9533490
  75.5163160  49.5896490  31.2726230  74.6191690  49.8136460  31.5199630
  75.5416030  49.7131430  30.3237630  74.3434380  46.4609810  29.8483600
  74.2042150  47.3332610  30.2171000  73.4615740  46.1182620  29.7031540
  80.6663760  51.3785680  21.1548730  81.1059670  52.1210010  20.7404120
  80.6050650  51.6212250  22.0787690  76.1414730  52.4031510  32.0568750
  76.1130160  52.8074460  31.1897180  75.9779700  51.4741870  31.8940350
  72.6567660  45.0592220  19.9585870  72.5365260  45.7854310  19.3467140
  72.3468550  44.2895130  19.4813780  70.2953030  48.2307360  25.7654510
  70.3733450  48.3656130  24.8210230  70.9094710  47.5223250  25.9582630
  71.5400660  49.9307550  22.1760690  71.1328740  50.0722140  21.3214290
  72.4313670  49.6467710  21.9731900  75.8122320  54.1453330  20.2883360
  75.6364800  53.2288870  20.0751160  74.9578060  54.5040620  20.5281160
  70.3512550  49.2721530  28.3048970  70.5143590  48.8026890  27.4868340
  70.8165000  48.7645090  28.9697810  75.1231320  38.4027290  23.3409540
  74.6799470  39.1836830  23.0094060  75.6816310  38.7257180  24.0480480
  79.4101130  41.2695810  28.9444860  78.9480500  41.4778830  29.7564800
  79.0079240  40.4555160  28.6415530  78.2390140  38.0237990  18.2215370
  77.6144320  38.0197860  18.9468680  78.1520260  37.1568950  17.8251340
  77.1607220  38.9474620  25.1999140  77.4579550  39.8537450  25.1191160
  77.7092780  38.4593400  24.5858710  74.9145540  43.5260860  21.0690790
  74.6886460  43.3098030  21.9737410  74.1338070  43.9589320  20.7236760
  77.3544750  44.4246440  31.7351060  77.2588350  43.4841170  31.5851460
  78.1976730  44.6461510  31.3399130  80.7508170  42.1687770  21.6984720
  81.1437740  42.4859970  20.8853410  81.1125020  41.2899650  21.8129240
  72.4855290  40.8360110  29.8884840  72.0918680  41.6835320  30.0957620
  71.7973690  40.1986480  30.0793480  79.0600340  40.9195080  32.9581580
  78.3698660  40.7267280  33.5927670  79.8032640  41.2029720  33.4905880
  69.7872340  38.7588570  23.9214920  69.4985390  39.3291430  24.6339900
  70.5318100  38.2793020  24.2846150  69.9742570  42.7008690  15.1317640
  69.8917240  43.6439450  15.2732630  69.6225630  42.5583600  14.2529990
  81.3363310  44.7593520  25.7935500  80.6044430  45.2680330  26.1425600
  80.9387650  43.9423500  25.4924280  77.7740700  41.4347720  24.1987990
  77.7776760  40.9937670  23.3492530  78.6691820  41.7565050  24.3059810
  73.6243080  41.3174210  23.1582200  73.2843130  41.7949440  23.9149250
  72.8620400  40.8639330  22.7983300  77.8360850  42.4359800  17.1894750
  77.9573670  42.3946280  18.1380570  77.4509360  43.2983950  17.0341480
  76.8482350  44.7460940  16.5878050  76.2799250  44.2979190  15.9613960
  77.5571350  45.1053720  16.0543200  71.9251530  48.6472960  30.4644780
  71.5406320  48.0066630  31.0627740  72.2363720  49.3509080  31.0339510
  78.0748670  45.4949500  25.9453400  78.4418800  45.0208070  26.6914740
  77.8853730  46.3691070  26.2861740  70.9389160  40.2393190  22.0746870
  70.6536080  39.8748860  22.9125490  70.8768020  39.5073650  21.4610010
  75.8648040  44.5358140  28.2637610  75.5605110  45.4150120  28.4887970
  76.8194500  44.5957930  28.2995050  74.3929830  48.7419130  18.8604460
  73.6192090  48.2016750  18.7003180  75.1224460  48.2225740  18.5222220
  80.6127750  39.1322450  18.7960240  79.7992360  38.6335620  18.7205550
  80.4189700  39.9720700  18.3796590  80.5336610  47.8093550  30.5399850
  80.4673920  46.8889220  30.2857440  79.9041750  47.9068990  31.2544490
  74.4367230  48.4099510  22.4983270  74.9545900  47.6067770  22.4440160
  73.9851250  48.3478650  23.3400100  79.3236730  49.6765790  17.7710570
  79.6652430  50.4208020  17.2753890  78.4949440  49.9896910  18.1335400
  71.9211770  45.3760880  29.4108970  71.5626710  46.0414730  29.9982310
  71.6266330  44.5444430  29.7821590  75.1224890  45.8345120  32.2948520
  74.8225030  45.9802300  31.3976340  75.8936130  45.2750410  32.2021910
  80.4653340  50.6314120  30.2903650  80.4797880  49.6995080  30.0722560
  79.7578440  50.7173880  30.9293420  78.2927420  49.7579320  20.5426490
  78.9798550  50.3048530  20.9234080  77.5059840  50.3020050  20.5776100
  70.4319820  45.3752140  16.0343570  71.3014670  45.6576940  16.3179490
  69.9410140  46.1888010  15.9192380  77.5954630  46.7625350  20.1551850
  78.0517410  47.5730600  20.3812040  77.2442840  46.4448490  20.9870340
  79.8987240  52.2731690  27.3844150  80.5429460  52.4791070  28.0617570
  80.2616680  51.5120090  26.9315000  73.4966410  37.1063000  20.6274370
  73.3681040  37.0980900  21.5759290  72.6728430  37.4446090  20.2765380
  70.7991070  54.5879520  16.6005200  71.1588710  55.1868860  15.9462470
  70.6583410  55.1339410  17.3740230  70.4960340  38.8654120  30.0881070
  69.7818860  39.0651040  30.6933680  70.9155380  38.0893690  30.4595870
  70.7832930  52.8534380  31.0747600  70.8924050  51.9129120  30.9342990
  70.1313490  53.1189130  30.4261330  78.7745520  51.1250270  32.4745720
  78.4542390  50.4059510  33.0191410  78.1003880  51.8005340  32.5481780
  76.8159690  51.9710720  17.4178870  76.8069790  52.7040410  16.8023380
  75.8958050  51.7242300  17.5105830  72.4166330  47.1925610  18.1625630
  71.8094280  47.9324510  18.1720930  72.8915680  47.2824970  17.3363830
  79.8019290  52.0338960  16.0804060  79.9031270  51.8302950  15.1506040
  78.9021030  51.7797240  16.2851840  77.3245180  42.5919320  20.0627960
  76.6161330  43.0605660  20.5041570  77.6089660  41.9341330  20.6973150
  78.9501110  44.0116020  28.0620490  79.4486360  44.4861840  28.7272340
  79.0924060  43.0879540  28.2690520  78.4437400  54.5525280  20.7751730
  78.6978900  54.5146670  19.8531100  77.4949880  54.4258610  20.7679980
  75.5280200  40.9004400  17.4378670  76.3770730  41.3374550  17.3718860
  75.1611470  41.2124660  18.2650730  74.4271620  47.1536760  15.9114200
  75.1934890  47.0418120  16.4739630  74.5046310  46.4574730  15.2590970
  73.1218380  44.5861830  16.5947090  73.2021970  43.6389340  16.7064490
  74.0138130  44.9168710  16.7007750  73.9233090  54.7357220  23.6981630
  74.6595570  54.1872680  23.9690200  74.3074010  55.6013230  23.5587620
  70.8078570  50.8030790  19.5723140  69.8818350  51.0451930  19.5628550
  71.2735000  51.6305050  19.4507890  72.9291370  53.9203290  32.8867210
  73.7304100  54.2415340  33.3002610  72.4143190  53.5598870  33.6087120
  77.0335400  53.9087530  15.5207200  77.8264010  54.1976360  15.0688990
  76.5139750  53.4779700  14.8419680  70.6489180  46.4076750  31.8303260
  71.1528200  45.8284030  32.4019490  69.9096600  46.6916980  32.3679630
  77.5512800  49.1290940  15.3849550  77.4463440  48.5143290  16.1110930
  77.3837020  48.6056830  14.6012560  77.7027120  47.8147740  31.3638780
  76.9372790  48.3832740  31.2793450  77.8843080  47.5223950  30.4707010
  80.7915530  48.1910970  15.9891540  80.2425630  48.6380270  16.6334280
  81.4134790  47.6860220  16.5129210  72.6812260  44.5506340  32.7253330
  72.7217600  44.2520210  33.6338560  73.5357760  44.9513950  32.5660850
  76.4590650  47.1501890  17.8856840  76.8807070  46.9841760  18.7288230
  76.5841490  46.3402120  17.3911980  74.6218070  43.1298440  30.6927820
  74.0914530  42.6389390  30.0651160  75.2906140  43.5582640  30.1585750
  78.9718290  46.1739500  15.1333940  79.4923950  45.4588520  14.7675090
  79.6186690  46.8125370  15.4334450  75.1090370  40.0960810  30.7725110
  75.0147240  39.4781560  30.0475980  74.5287760  40.8227100  30.5455020
  77.8751810  38.6534050  27.8052500  77.4269110  38.6758310  26.9598050
  77.2417010  38.2553070  28.4022800  78.2811360  47.5488380  28.4264940
  78.6999470  48.3921110  28.2541180  77.3619990  47.6860420  28.1971720
  80.6175260  45.2804560  29.8102780  80.7371470  44.6845700  30.5497620
  81.4769260  45.3174250  29.3904080  75.3549550  43.2235120  14.8315000
  75.1538610  42.3602480  15.1928340  75.1841600  43.1368480  13.8936600
  76.1318780  53.8541390  29.5422670  75.5939870  54.5787450  29.2231370
  76.3852740  53.3771730  28.7520010  77.3844030  41.8225910  31.0678600
  77.9743720  41.5141760  31.7556420  76.5664270  41.3505660  31.2238500
  74.1532350  40.3235740  14.8192880  74.4558250  40.3303170  13.9112030
  74.8926940  39.9733600  15.3160540  78.9880990  55.0892600  29.8009320
  78.9139690  55.9927740  30.1081690  78.0859830  54.7704500  29.7731390
  77.3717280  39.2670360  15.8049080  77.0239280  38.5894350  15.2251530
  77.5730050  38.8059870  16.6192470  79.5366320  54.2551110  17.4235680
  80.4317110  54.5936080  17.4454440  79.5683950  53.5330520  16.7959960
  73.1762480  49.6278160  15.6522680  73.6137350  50.1707830  16.3080260
  73.6610210  48.8025110  15.6619020  70.3908280  52.4167190  23.1042940
  70.7211290  51.5488250  22.8721580  70.8199280  52.6225710  23.9347900
  74.9870200  50.7476200  20.7644910  74.6865740  50.6241170  21.6648820
  74.8807690  49.8884790  20.3560640  70.8798490  53.2837780  25.8424570
  70.4429480  53.4638580  26.6748720  71.4476170  54.0412400  25.7006290
  70.7122920  45.7958010  22.2013450  70.0571760  45.5269650  21.5573150
  71.5500870  45.6862490  21.7515430  71.7498850  46.1810580  26.7416790
  72.1171890  46.0937980  27.6212810  71.1809670  45.4177130  26.6423650
  71.3014850  43.0919670  30.6475210  70.4070900  43.0586430  30.9868920
  71.8412400  43.2906460  31.4126460  69.9261000  43.0056940  18.1438780
  69.0225080  43.2687140  17.9690440  70.4101620  43.2768110  17.3638740
  72.4688210  42.0622480  16.0533160  73.1779910  41.6405700  15.5680440
  71.7528150  42.1297710  15.4216510  72.1162370  38.1161810  15.0935810
  72.8390500  38.6570750  15.4117030  72.3886890  37.8425230  14.2177350
  71.8054560  37.3668000  24.9958430  72.4530750  36.8165380  24.5553590
  72.2256400  37.6211150  25.8174240  71.5586560  37.5223670  27.7383750
  71.2101380  37.9787490  28.5041930  71.2274260  36.6280800  27.8206180
  73.1650930  50.6943270  31.9036940  73.1220560  50.3236180  32.7851400
  73.2961940  51.6320840  32.0438760  76.8656960  52.2502860  27.5046660
  76.6248320  52.5177420  26.6177180  77.8059600  52.4208590  27.5597520
  79.0711380  38.7135550  31.2603170  79.0100270  39.3057380  32.0098580
  80.0111760  38.6061510  31.1153430  72.2307200  37.0499870  31.0134520
  72.7790190  36.8687920  30.2500630  72.2962510  36.2593980  31.5490830
  73.0038960  53.6405520  29.0234720  72.4099280  53.5090220  29.7624760
  72.9962800  52.8043660  28.5576820  72.6351190  51.0063900  27.9742760
  71.9085250  50.3869190  27.9068710  72.6960340  51.4004510  27.1040840
  76.2396290  53.2208900  24.7592170  76.7561310  52.6096260  24.2340430
  76.8893670  53.7237680  25.2503180  78.9791790  54.1117390  25.5861150
  79.2669600  53.8571690  24.7094160  79.4915010  53.5594750  26.1766720
  80.1968800  37.8507590  26.1657660  79.4140590  38.3253090  26.4454420
  79.9031730  36.9462420  26.0570840  70.9181190  54.3238290  21.1839520
  70.7503230  53.6908970  21.8821410  70.0515700  54.5297690  20.8333710
  71.5409210  38.1555070  18.6871380  72.2988570  38.2683950  18.1135410
  71.0786380  38.9924270  18.6414810  78.0823020  40.2694340  21.6773690
  77.2697530  39.8951230  21.3369570  78.5864660  39.5139420  21.9794880
  72.5243890  53.0171520  18.6289660  71.9991510  53.3979550  17.9251620
  72.4488470  53.6422290  19.3499370  73.9134360  38.6819120  17.2273350
  74.4427120  37.8948920  17.0981300  74.5462680  39.3610310  17.4608880
  76.1072200  38.4194260  20.2818740  75.4774940  37.7181570  20.4488870
  75.5677340  39.1798390  20.0651900  79.0464150  55.0333490  32.9529350
  79.9731460  54.7977760  32.9965310  79.0314580  55.8605490  32.4715380
  76.2327760  37.6978240  32.7171230  75.9512030  38.2011840  31.9532050
  76.6147460  36.8999990  32.3513360  75.1236860  54.9653900  17.5038910
  75.8555680  54.6813180  16.9562800  75.3830530  54.7267180  18.3938290
  74.2851650  51.0818630  17.5085240  73.6560530  51.5503730  18.0571070
  74.3999480  50.2367850  17.9431430  79.8719410  46.9103310   5.5395710
  79.0961510  46.4303750   5.8294280  80.5232340  46.2308960   5.3651870
  73.8885240  47.2223120   6.4171470  73.0570120  46.9671830   6.8167980
  74.4966220  47.2933890   7.1529390  73.8686500  51.2563210   6.6129490
  74.1714540  50.3660950   6.4339710  74.6130090  51.8133430   6.3851740
  70.2610200  44.7830660   6.0853560  70.8326310  44.0152860   6.0857200
  70.2611740  45.0819420   5.1760170  80.1190150  53.6021510   3.9398830
  79.5001590  54.0579010   3.3693270  80.9741930  53.7572970   3.5388530
  79.3128400  49.5860500   5.5465870  79.2436680  48.6450440   5.3855000
  80.0748260  49.6761910   6.1188440  71.5035070  40.1915020   7.8722490
  71.3237910  39.2940770   8.1525250  71.1015150  40.7386890   8.5469440
  80.3433570  42.3930880   5.7734800  80.7198390  41.5202760   5.6608470
  80.2453080  42.7289580   4.8825240  72.1221740  42.6875520   6.4804830
  72.8031850  42.9513890   7.0992230  71.8069790  41.8476390   6.8142840
  76.3146310  43.7342880   5.5677420  76.8224530  44.2323850   6.2082440
  76.8459550  42.9578080   5.3916780  74.5982410  38.3741440   9.8340840
  74.6000850  38.8913830   9.0286740  73.7686720  37.8971620   9.8110770
  75.8485260  48.0136620   8.0114340  75.5154640  48.6405540   8.6535410
  76.0251940  48.5398500   7.2316010  74.2797740  40.0851400   7.8411290
  74.6214550  40.9293450   7.5465160  73.3413550  40.2335140   7.9576630
  75.0604360  49.9817420   9.8263520  75.6778360  50.6568500   9.5447970
  74.1997480  50.3905400   9.7351020  77.9625630  37.5733670   4.1655880
  78.2700610  37.0180560   3.4491380  77.0326330  37.7078130   3.9828870
  75.9563030  46.1647240   3.6835730  75.5520030  45.4524490   3.1881630
  76.0426150  45.8200480   4.5723770  76.4244730  49.8514800   5.8474940
  76.1273020  49.2460270   5.1682720  77.3744550  49.8892110   5.7364300
  74.6691650  42.9390450   7.4634770  75.2206240  43.0485790   6.6888020
  75.1835160  43.3128050   8.1790000  75.5163160  49.5896490  12.4982740
  74.6191690  49.8136460  12.7456140  75.5416030  49.7131430  11.5494140
  74.3434380  46.4609810  11.0740110  74.2042150  47.3332610  11.4427510
  73.4615740  46.1182620  10.9288050  80.6663760  51.3785680   2.3805240
  81.1059670  52.1210010   1.9660630  80.6050650  51.6212250   3.3044200
  76.1414730  52.4031510  13.2825260  76.1130160  52.8074460  12.4153690
  75.9779700  51.4741870  13.1196860  70.2953030  48.2307360   6.9911020
  70.3733450  48.3656130   6.0466740  70.9094710  47.5223250   7.1839140
  71.5400660  49.9307550   3.4017200  71.1328740  50.0722140   2.5470800
  72.4313670  49.6467710   3.1988410  70.3512550  49.2721530   9.5305480
  70.5143590  48.8026890   8.7124850  70.8165000  48.7645090  10.1954320
  75.1231320  38.4027290   4.5666050  74.6799470  39.1836830   4.2350570
  75.6816310  38.7257180   5.2736990  79.4101130  41.2695810  10.1701370
  78.9480500  41.4778830  10.9821310  79.0079240  40.4555160   9.8672040
  77.1607220  38.9474620   6.4255650  77.4579550  39.8537450   6.3447670
  77.7092780  38.4593400   5.8115220  74.9145540  43.5260860   2.2947300
  74.6886460  43.3098030   3.1993920  74.1338070  43.9589320   1.9493270
  77.3544750  44.4246440  12.9607570  77.2588350  43.4841170  12.8107970
  78.1976730  44.6461510  12.5655640  80.7508170  42.1687770   2.9241230
  81.1437740  42.4859970   2.1109920  81.1125020  41.2899650   3.0385750
  72.4855290  40.8360110  11.1141350  72.0918680  41.6835320  11.3214130
  71.7973690  40.1986480  11.3049990  79.0600340  40.9195080  14.1838090
  78.3698660  40.7267280  14.8184180  79.8032640  41.2029720  14.7162390
  69.7872340  38.7588570   5.1471430  69.4985390  39.3291430   5.8596410
  70.5318100  38.2793020   5.5102660  81.3363310  44.7593520   7.0192010
  80.6044430  45.2680330   7.3682110  80.9387650  43.9423500   6.7180790
  77.7740700  41.4347720   5.4244500  77.7776760  40.9937670   4.5749040
  78.6691820  41.7565050   5.5316320  73.6243080  41.3174210   4.3838710
  73.2843130  41.7949440   5.1405760  72.8620400  40.8639330   4.0239810
  71.9251530  48.6472960  11.6901290  71.5406320  48.0066630  12.2884250
  72.2363720  49.3509080  12.2596020  78.0748670  45.4949500   7.1709910
  78.4418800  45.0208070   7.9171250  77.8853730  46.3691070   7.5118250
  70.9389160  40.2393190   3.3003380  70.6536080  39.8748860   4.1382000
  70.8768020  39.5073650   2.6866520  75.8648040  44.5358140   9.4894120
  75.5605110  45.4150120   9.7144480  76.8194500  44.5957930   9.5251560
  80.5336610  47.8093550  11.7656360  80.4673920  46.8889220  11.5113950
  79.9041750  47.9068990  12.4801000  74.4367230  48.4099510   3.7239780
  74.9545900  47.6067770   3.6696670  73.9851250  48.3478650   4.5656610
  71.9211770  45.3760880  10.6365480  71.5626710  46.0414730  11.2238820
  71.6266330  44.5444430  11.0078100  75.1224890  45.8345120  13.5205030
  74.8225030  45.9802300  12.6232850  75.8936130  45.2750410  13.4278420
  80.4653340  50.6314120  11.5160160  80.4797880  49.6995080  11.2979070
  79.7578440  50.7173880  12.1549930  78.2927420  49.7579320   1.7683000
  78.9798550  50.3048530   2.1490590  77.5059840  50.3020050   1.8032610
  79.8987240  52.2731690   8.6100660  80.5429460  52.4791070   9.2874080
  80.2616680  51.5120090   8.1571510  70.4960340  38.8654120  11.3137580
  69.7818860  39.0651040  11.9190190  70.9155380  38.0893690  11.6852380
  70.7832930  52.8534380  12.3004110  70.8924050  51.9129120  12.1599500
  70.1313490  53.1189130  11.6517840  78.7745520  51.1250270  13.7002230
  78.4542390  50.4059510  14.2447920  78.1003880  51.8005340  13.7738290
  78.9501110  44.0116020   9.2877000  79.4486360  44.4861840   9.9528850
  79.0924060  43.0879540   9.4947030  73.9233090  54.7357220   4.9238140
  74.6595570  54.1872680   5.1946710  74.3074010  55.6013230   4.7844130
  72.9291370  53.9203290  14.1123720  73.7304100  54.2415340  14.5259120
  72.4143190  53.5598870  14.8343630  70.6489180  46.4076750  13.0559770
  71.1528200  45.8284030  13.6276000  69.9096600  46.6916980  13.5936140
  77.7027120  47.8147740  12.5895290  76.9372790  48.3832740  12.5049960
  77.8843080  47.5223950  11.6963520  72.6812260  44.5506340  13.9509840
  72.7217600  44.2520210  14.8595070  73.5357760  44.9513950  13.7917360
  74.6218070  43.1298440  11.9184330  74.0914530  42.6389390  11.2907670
  75.2906140  43.5582640  11.3842260  75.1090370  40.0960810  11.9981620
  75.0147240  39.4781560  11.2732490  74.5287760  40.8227100  11.7711530
  77.8751810  38.6534050   9.0309010  77.4269110  38.6758310   8.1854560
  77.2417010  38.2553070   9.6279310  78.2811360  47.5488380   9.6521450
  78.6999470  48.3921110   9.4797690  77.3619990  47.6860420   9.4228230
  80.6175260  45.2804560  11.0359290  80.7371470  44.6845700  11.7754130
  81.4769260  45.3174250  10.6160590  76.1318780  53.8541390  10.7679180
  75.5939870  54.5787450  10.4487880  76.3852740  53.3771730   9.9776520
  77.3844030  41.8225910  12.2935110  77.9743720  41.5141760  12.9812930
  76.5664270  41.3505660  12.4495010  78.9880990  55.0892600  11.0265830
  78.9139690  55.9927740  11.3338200  78.0859830  54.7704500  10.9987900
  70.3908280  52.4167190   4.3299450  70.7211290  51.5488250   4.0978090
  70.8199280  52.6225710   5.1604410  70.8798490  53.2837780   7.0681080
  70.4429480  53.4638580   7.9005230  71.4476170  54.0412400   6.9262800
  70.7122920  45.7958010   3.4269960  70.0571760  45.5269650   2.7829660
  71.5500870  45.6862490   2.9771940  71.7498850  46.1810580   7.9673300
  72.1171890  46.0937980   8.8469320  71.1809670  45.4177130   7.8680160
  71.3014850  43.0919670  11.8731720  70.4070900  43.0586430  12.2125430
  71.8412400  43.2906460  12.6382970  71.8054560  37.3668000   6.2214940
  72.4530750  36.8165380   5.7810100  72.2256400  37.6211150   7.0430750
  71.5586560  37.5223670   8.9640260  71.2101380  37.9787490   9.7298440
  71.2274260  36.6280800   9.0462690  73.1650930  50.6943270  13.1293450
  73.1220560  50.3236180  14.0107910  73.2961940  51.6320840  13.2695270
  76.8656960  52.2502860   8.7303170  76.6248320  52.5177420   7.8433690
  77.8059600  52.4208590   8.7854030  79.0711380  38.7135550  12.4859680
  79.0100270  39.3057380  13.2355090  80.0111760  38.6061510  12.3409940
  72.2307200  37.0499870  12.2391030  72.7790190  36.8687920  11.4757140
  72.2962510  36.2593980  12.7747340  73.0038960  53.6405520  10.2491230
  72.4099280  53.5090220  10.9881270  72.9962800  52.8043660   9.7833330
  72.6351190  51.0063900   9.1999270  71.9085250  50.3869190   9.1325220
  72.6960340  51.4004510   8.3297350  76.2396290  53.2208900   5.9848680
  76.7561310  52.6096260   5.4596940  76.8893670  53.7237680   6.4759690
  78.9791790  54.1117390   6.8117660  79.2669600  53.8571690   5.9350670
  79.4915010  53.5594750   7.4023230  80.1968800  37.8507590   7.3914170
  79.4140590  38.3253090   7.6710930  79.9031730  36.9462420   7.2827350
  70.9181190  54.3238290   2.4096030  70.7503230  53.6908970   3.1077920
  70.0515700  54.5297690   2.0590220  78.0823020  40.2694340   2.9030200
  77.2697530  39.8951230   2.5626080  78.5864660  39.5139420   3.2051390
  79.0464150  55.0333490  14.1785860  79.9731460  54.7977760  14.2221820
  79.0314580  55.8605490  13.6971890  76.2327760  37.6978240  13.9427740
  75.9512030  38.2011840  13.1788560  76.6147460  36.8999990  13.5769870
  79.8719410  28.1359820  61.8626180  79.0961510  27.6560260  62.1524750
  80.5232340  27.4565470  61.6882340  73.8885240  28.4479630  62.7401940
  73.0570120  28.1928340  63.1398450  74.4966220  28.5190400  63.4759860
  73.8686500  32.4819720  62.9359960  74.1714540  31.5917460  62.7570180
  74.6130090  33.0389940  62.7082210  72.2977190  23.4081520  56.5244330
  71.4093890  23.7497490  56.4224210  72.5818380  23.2081840  55.6325160
  70.2610200  26.0087170  62.4084030  70.8326310  25.2409370  62.4087670
  70.2611740  26.3075930  61.4990640  80.1190150  34.8278020  60.2629300
  79.5001590  35.2835520  59.6923740  80.9741930  34.9829480  59.8619000
  79.3128400  30.8117010  61.8696340  79.2436680  29.8706950  61.7085470
  80.0748260  30.9018420  62.4418910  71.5035070  21.4171530  64.1952960
  71.3237910  20.5197280  64.4755720  71.1015150  21.9643400  64.8699910
  80.3433570  23.6187390  62.0965270  80.7198390  22.7459270  61.9838940
  80.2453080  23.9546090  61.2055710  74.4738580  21.9913020  57.5582710
  74.5805330  22.8916750  57.8651470  73.5630940  21.9430990  57.2677360
  72.1221740  23.9132030  62.8035300  72.8031850  24.1770400  63.4222700
  71.8069790  23.0732900  63.1373310  76.3146310  24.9599390  61.8907890
  76.8224530  25.4580360  62.5312910  76.8459550  24.1834590  61.7147250
  80.9853500  29.7117260  57.6561210  80.3670770  30.1766710  57.0923930
  81.4976750  30.4044740  58.0730720  75.8485260  29.2393130  64.3344810
  75.5154640  29.8662050  64.9765880  76.0251940  29.7655010  63.5546480
  74.2797740  21.3107910  64.1641760  74.6214550  22.1549960  63.8695630
  73.3413550  21.4591650  64.2807100  70.3536700  30.3973790  55.0300840
  69.9764680  30.8860890  54.2985740  70.6109770  31.0699070  55.6607370
  77.9625630  18.7990180  60.4886350  78.2700610  18.2437070  59.7721850
  77.0326330  18.9334640  60.3059340  80.3506390  26.8639010  57.2246470
  79.4235670  26.7976390  57.4534940  80.5031210  27.8019140  57.1101710
  80.3375470  23.1356010  54.2213630  79.3979140  23.2969970  54.3066090
  80.6558730  23.8541690  53.6749620  75.9563030  27.3903750  60.0066200
  75.5520030  26.6781000  59.5112100  76.0426150  27.0456990  60.8954240
  76.4244730  31.0771310  62.1705410  76.1273020  30.4716780  61.4913190
  77.3744550  31.1148620  62.0594770  74.6691650  24.1646960  63.7865240
  75.2206240  24.2742300  63.0118490  75.1835160  24.5384560  64.5020470
  80.6663760  32.6042190  58.7035710  81.1059670  33.3466520  58.2891100
  80.6050650  32.8468760  59.6274670  72.6567660  26.2848730  57.5072850
  72.5365260  27.0110820  56.8954120  72.3468550  25.5151640  57.0300760
  70.2953030  29.4563870  63.3141490  70.3733450  29.5912640  62.3697210
  70.9094710  28.7479760  63.5069610  71.5400660  31.1564060  59.7247670
  71.1328740  31.2978650  58.8701270  72.4313670  30.8724220  59.5218880
  75.8122320  35.3709840  57.8370340  75.6364800  34.4545380  57.6238140
  74.9578060  35.7297130  58.0768140  75.1231320  19.6283800  60.8896520
  74.6799470  20.4093340  60.5581040  75.6816310  19.9513690  61.5967460
  78.2390140  19.2494500  55.7702350  77.6144320  19.2454370  56.4955660
  78.1520260  18.3825460  55.3738320  77.1607220  20.1731130  62.7486120
  77.4579550  21.0793960  62.6678140  77.7092780  19.6849910  62.1345690
  74.9145540  24.7517370  58.6177770  74.6886460  24.5354540  59.5224390
  74.1338070  25.1845830  58.2723740  80.7508170  23.3944280  59.2471700
  81.1437740  23.7116480  58.4340390  81.1125020  22.5156160  59.3616220
  69.7872340  19.9845080  61.4701900  69.4985390  20.5547940  62.1826880
  70.5318100  19.5049530  61.8333130  69.9742570  23.9265200  52.6804620
  69.8917240  24.8695960  52.8219610  69.6225630  23.7840110  51.8016970
  81.3363310  25.9850030  63.3422480  80.6044430  26.4936840  63.6912580
  80.9387650  25.1680010  63.0411260  77.7740700  22.6604230  61.7474970
  77.7776760  22.2194180  60.8979510  78.6691820  22.9821560  61.8546790
  73.6243080  22.5430720  60.7069180  73.2843130  23.0205950  61.4636230
  72.8620400  22.0895840  60.3470280  77.8360850  23.6616310  54.7381730
  77.9573670  23.6202790  55.6867550  77.4509360  24.5240460  54.5828460
  76.8482350  25.9717450  54.1365030  76.2799250  25.5235700  53.5100940
  77.5571350  26.3310230  53.6030180  78.0748670  26.7206010  63.4940380
  78.4418800  26.2464580  64.2401720  77.8853730  27.5947580  63.8348720
  70.9389160  21.4649700  59.6233850  70.6536080  21.1005370  60.4612470
  70.8768020  20.7330160  59.0096990  74.3929830  29.9675640  56.4091440
  73.6192090  29.4273260  56.2490160  75.1224460  29.4482250  56.0709200
  80.6127750  20.3578960  56.3447220  79.7992360  19.8592130  56.2692530
  80.4189700  21.1977210  55.9283570  74.4367230  29.6356020  60.0470250
  74.9545900  28.8324280  59.9927140  73.9851250  29.5735160  60.8887080
  79.3236730  30.9022300  55.3197550  79.6652430  31.6464530  54.8240870
  78.4949440  31.2153420  55.6822380  78.2927420  30.9835830  58.0913470
  78.9798550  31.5305040  58.4721060  77.5059840  31.5276560  58.1263080
  70.4319820  26.6008650  53.5830550  71.3014670  26.8833450  53.8666470
  69.9410140  27.4144520  53.4679360  77.5954630  27.9881860  57.7038830
  78.0517410  28.7987110  57.9299020  77.2442840  27.6705000  58.5357320
  73.4966410  18.3319510  58.1761350  73.3681040  18.3237410  59.1246270
  72.6728430  18.6702600  57.8252360  70.7991070  35.8136030  54.1492180
  71.1588710  36.4125370  53.4949450  70.6583410  36.3595920  54.9227210
  76.8159690  33.1967230  54.9665850  76.8069790  33.9296920  54.3510360
  75.8958050  32.9498810  55.0592810  72.4166330  28.4182120  55.7112610
  71.8094280  29.1581020  55.7207910  72.8915680  28.5081480  54.8850810
  79.8019290  33.2595470  53.6291040  79.9031270  33.0559460  52.6993020
  78.9021030  33.0053750  53.8338820  77.3245180  23.8175830  57.6114940
  76.6161330  24.2862170  58.0528550  77.6089660  23.1597840  58.2460130
  78.4437400  35.7781790  58.3238710  78.6978900  35.7403180  57.4018080
  77.4949880  35.6515120  58.3166960  75.5280200  22.1260910  54.9865650
  76.3770730  22.5631060  54.9205840  75.1611470  22.4381170  55.8137710
  74.4271620  28.3793270  53.4601180  75.1934890  28.2674630  54.0226610
  74.5046310  27.6831240  52.8077950  73.1218380  25.8118340  54.1434070
  73.2021970  24.8645850  54.2551470  74.0138130  26.1425220  54.2494730
  73.9233090  35.9613730  61.2468610  74.6595570  35.4129190  61.5177180
  74.3074010  36.8269740  61.1074600  70.8078570  32.0287300  57.1210120
  69.8818350  32.2708440  57.1115530  71.2735000  32.8561560  56.9994870
  77.0335400  35.1344040  53.0694180  77.8264010  35.4232870  52.6175970
  76.5139750  34.7036210  52.3906660  77.5512800  30.3547450  52.9336530
  77.4463440  29.7399800  53.6597910  77.3837020  29.8313340  52.1499540
  80.7915530  29.4167480  53.5378520  80.2425630  29.8636780  54.1821260
  81.4134790  28.9116730  54.0616190  76.4590650  28.3758400  55.4343820
  76.8807070  28.2098270  56.2775210  76.5841490  27.5658630  54.9398960
  78.9718290  27.3996010  52.6820920  79.4923950  26.6845030  52.3162070
  79.6186690  28.0381880  52.9821430  75.3549550  24.4491630  52.3801980
  75.1538610  23.5858990  52.7415320  75.1841600  24.3624990  51.4423580
  74.1532350  21.5492250  52.3679860  74.4558250  21.5559680  51.4599010
  74.8926940  21.1990110  52.8647520  77.3717280  20.4926870  53.3536060
  77.0239280  19.8150860  52.7738510  77.5730050  20.0316380  54.1679450
  79.5366320  35.4807620  54.9722660  80.4317110  35.8192590  54.9941420
  79.5683950  34.7587030  54.3446940  73.1762480  30.8534670  53.2009660
  73.6137350  31.3964340  53.8567240  73.6610210  30.0281620  53.2106000
  70.3908280  33.6423700  60.6529920  70.7211290  32.7744760  60.4208560
  70.8199280  33.8482220  61.4834880  74.9870200  31.9732710  58.3131890
  74.6865740  31.8497680  59.2135800  74.8807690  31.1141300  57.9047620
  70.8798490  34.5094290  63.3911550  70.4429480  34.6895090  64.2235700
  71.4476170  35.2668910  63.2493270  70.7122920  27.0214520  59.7500430
  70.0571760  26.7526160  59.1060130  71.5500870  26.9119000  59.3002410
  71.7498850  27.4067090  64.2903770  72.1171890  27.3194490  65.1699790
  71.1809670  26.6433640  64.1910630  69.9261000  24.2313450  55.6925760
  69.0225080  24.4943650  55.5177420  70.4101620  24.5024620  54.9125720
  72.4688210  23.2878990  53.6020140  73.1779910  22.8662210  53.1167420
  71.7528150  23.3554220  52.9703490  72.1162370  19.3418320  52.6422790
  72.8390500  19.8827260  52.9604010  72.3886890  19.0681740  51.7664330
  71.8054560  18.5924510  62.5445410  72.4530750  18.0421890  62.1040570
  72.2256400  18.8467660  63.3661220  76.8656960  33.4759370  65.0533640
  76.6248320  33.7433930  64.1664160  77.8059600  33.6465100  65.1084500
  76.2396290  34.4465410  62.3079150  76.7561310  33.8352770  61.7827410
  76.8893670  34.9494190  62.7990160  78.9791790  35.3373900  63.1348130
  79.2669600  35.0828200  62.2581140  79.4915010  34.7851260  63.7253700
  80.1968800  19.0764100  63.7144640  79.4140590  19.5509600  63.9941400
  79.9031730  18.1718930  63.6057820  70.9181190  35.5494800  58.7326500
  70.7503230  34.9165480  59.4308390  70.0515700  35.7554200  58.3820690
  71.5409210  19.3811580  56.2358360  72.2988570  19.4940460  55.6622390
  71.0786380  20.2180780  56.1901790  78.0823020  21.4950850  59.2260670
  77.2697530  21.1207740  58.8856550  78.5864660  20.7395930  59.5281860
  72.5243890  34.2428030  56.1776640  71.9991510  34.6236060  55.4738600
  72.4488470  34.8678800  56.8986350  73.9134360  19.9075630  54.7760330
  74.4427120  19.1205430  54.6468280  74.5462680  20.5866820  55.0095860
  76.1072200  19.6450770  57.8305720  75.4774940  18.9438080  57.9975850
  75.5677340  20.4054900  57.6138880  75.1236860  36.1910410  55.0525890
  75.8555680  35.9069690  54.5049780  75.3830530  35.9523690  55.9425270
  74.2851650  32.3075140  55.0572220  73.6560530  32.7760240  55.6058050
  74.3999480  31.4624360  55.4918410  79.8719410  28.1359820  43.0882690
  79.0961510  27.6560260  43.3781260  80.5232340  27.4565470  42.9138850
  73.8885240  28.4479630  43.9658450  73.0570120  28.1928340  44.3654960
  74.4966220  28.5190400  44.7016370  73.8686500  32.4819720  44.1616470
  74.1714540  31.5917460  43.9826690  74.6130090  33.0389940  43.9338720
  72.2977190  23.4081520  37.7500840  71.4093890  23.7497490  37.6480720
  72.5818380  23.2081840  36.8581670  70.2610200  26.0087170  43.6340540
  70.8326310  25.2409370  43.6344180  70.2611740  26.3075930  42.7247150
  80.1190150  34.8278020  41.4885810  79.5001590  35.2835520  40.9180250
  80.9741930  34.9829480  41.0875510  79.3128400  30.8117010  43.0952850
  79.2436680  29.8706950  42.9341980  80.0748260  30.9018420  43.6675420
  71.5035070  21.4171530  45.4209470  71.3237910  20.5197280  45.7012230
  71.1015150  21.9643400  46.0956420  80.3433570  23.6187390  43.3221780
  80.7198390  22.7459270  43.2095450  80.2453080  23.9546090  42.4312220
  74.4738580  21.9913020  38.7839220  74.5805330  22.8916750  39.0907980
  73.5630940  21.9430990  38.4933870  72.1221740  23.9132030  44.0291810
  72.8031850  24.1770400  44.6479210  71.8069790  23.0732900  44.3629820
  76.3146310  24.9599390  43.1164400  76.8224530  25.4580360  43.7569420
  76.8459550  24.1834590  42.9403760  74.5982410  19.5997950  47.3827820
  74.6000850  20.1170340  46.5773720  73.7686720  19.1228130  47.3597750
  80.9853500  29.7117260  38.8817720  80.3670770  30.1766710  38.3180440
  81.4976750  30.4044740  39.2987230  75.8485260  29.2393130  45.5601320
  75.5154640  29.8662050  46.2022390  76.0251940  29.7655010  44.7802990
  74.2797740  21.3107910  45.3898270  74.6214550  22.1549960  45.0952140
  73.3413550  21.4591650  45.5063610  75.0604360  31.2073930  47.3750500
  75.6778360  31.8825010  47.0934950  74.1997480  31.6161910  47.2838000
  70.3536700  30.3973790  36.2557350  69.9764680  30.8860890  35.5242250
  70.6109770  31.0699070  36.8863880  77.9625630  18.7990180  41.7142860
  78.2700610  18.2437070  40.9978360  77.0326330  18.9334640  41.5315850
  80.3506390  26.8639010  38.4502980  79.4235670  26.7976390  38.6791450
  80.5031210  27.8019140  38.3358220  80.3375470  23.1356010  35.4470140
  79.3979140  23.2969970  35.5322600  80.6558730  23.8541690  34.9006130
  75.9563030  27.3903750  41.2322710  75.5520030  26.6781000  40.7368610
  76.0426150  27.0456990  42.1210750  76.4244730  31.0771310  43.3961920
  76.1273020  30.4716780  42.7169700  77.3744550  31.1148620  43.2851280
  74.6691650  24.1646960  45.0121750  75.2206240  24.2742300  44.2375000
  75.1835160  24.5384560  45.7276980  75.5163160  30.8153000  50.0469720
  74.6191690  31.0392970  50.2943120  75.5416030  30.9387940  49.0981120
  74.3434380  27.6866320  48.6227090  74.2042150  28.5589120  48.9914490
  73.4615740  27.3439130  48.4775030  80.6663760  32.6042190  39.9292220
  81.1059670  33.3466520  39.5147610  80.6050650  32.8468760  40.8531180
  76.1414730  33.6288020  50.8312240  76.1130160  34.0330970  49.9640670
  75.9779700  32.6998380  50.6683840  72.6567660  26.2848730  38.7329360
  72.5365260  27.0110820  38.1210630  72.3468550  25.5151640  38.2557270
  70.2953030  29.4563870  44.5398000  70.3733450  29.5912640  43.5953720
  70.9094710  28.7479760  44.7326120  71.5400660  31.1564060  40.9504180
  71.1328740  31.2978650  40.0957780  72.4313670  30.8724220  40.7475390
  75.8122320  35.3709840  39.0626850  75.6364800  34.4545380  38.8494650
  74.9578060  35.7297130  39.3024650  70.3512550  30.4978040  47.0792460
  70.5143590  30.0283400  46.2611830  70.8165000  29.9901600  47.7441300
  75.1231320  19.6283800  42.1153030  74.6799470  20.4093340  41.7837550
  75.6816310  19.9513690  42.8223970  79.4101130  22.4952320  47.7188350
  78.9480500  22.7035340  48.5308290  79.0079240  21.6811670  47.4159020
  78.2390140  19.2494500  36.9958860  77.6144320  19.2454370  37.7212170
  78.1520260  18.3825460  36.5994830  77.1607220  20.1731130  43.9742630
  77.4579550  21.0793960  43.8934650  77.7092780  19.6849910  43.3602200
  74.9145540  24.7517370  39.8434280  74.6886460  24.5354540  40.7480900
  74.1338070  25.1845830  39.4980250  77.3544750  25.6502950  50.5094550
  77.2588350  24.7097680  50.3594950  78.1976730  25.8718020  50.1142620
  80.7508170  23.3944280  40.4728210  81.1437740  23.7116480  39.6596900
  81.1125020  22.5156160  40.5872730  72.4855290  22.0616620  48.6628330
  72.0918680  22.9091830  48.8701110  71.7973690  21.4242990  48.8536970
  79.0600340  22.1451590  51.7325070  78.3698660  21.9523790  52.3671160
  79.8032640  22.4286230  52.2649370  69.7872340  19.9845080  42.6958410
  69.4985390  20.5547940  43.4083390  70.5318100  19.5049530  43.0589640
  69.9742570  23.9265200  33.9061130  69.8917240  24.8695960  34.0476120
  69.6225630  23.7840110  33.0273480  81.3363310  25.9850030  44.5678990
  80.6044430  26.4936840  44.9169090  80.9387650  25.1680010  44.2667770
  77.7740700  22.6604230  42.9731480  77.7776760  22.2194180  42.1236020
  78.6691820  22.9821560  43.0803300  73.6243080  22.5430720  41.9325690
  73.2843130  23.0205950  42.6892740  72.8620400  22.0895840  41.5726790
  77.8360850  23.6616310  35.9638240  77.9573670  23.6202790  36.9124060
  77.4509360  24.5240460  35.8084970  76.8482350  25.9717450  35.3621540
  76.2799250  25.5235700  34.7357450  77.5571350  26.3310230  34.8286690
  71.9251530  29.8729470  49.2388270  71.5406320  29.2323140  49.8371230
  72.2363720  30.5765590  49.8083000  78.0748670  26.7206010  44.7196890
  78.4418800  26.2464580  45.4658230  77.8853730  27.5947580  45.0605230
  70.9389160  21.4649700  40.8490360  70.6536080  21.1005370  41.6868980
  70.8768020  20.7330160  40.2353500  75.8648040  25.7614650  47.0381100
  75.5605110  26.6406630  47.2631460  76.8194500  25.8214440  47.0738540
  74.3929830  29.9675640  37.6347950  73.6192090  29.4273260  37.4746670
  75.1224460  29.4482250  37.2965710  80.6127750  20.3578960  37.5703730
  79.7992360  19.8592130  37.4949040  80.4189700  21.1977210  37.1540080
  80.5336610  29.0350060  49.3143340  80.4673920  28.1145730  49.0600930
  79.9041750  29.1325500  50.0287980  74.4367230  29.6356020  41.2726760
  74.9545900  28.8324280  41.2183650  73.9851250  29.5735160  42.1143590
  79.3236730  30.9022300  36.5454060  79.6652430  31.6464530  36.0497380
  78.4949440  31.2153420  36.9078890  71.9211770  26.6017390  48.1852460
  71.5626710  27.2671240  48.7725800  71.6266330  25.7700940  48.5565080
  75.1224890  27.0601630  51.0692010  74.8225030  27.2058810  50.1719830
  75.8936130  26.5006920  50.9765400  80.4653340  31.8570630  49.0647140
  80.4797880  30.9251590  48.8466050  79.7578440  31.9430390  49.7036910
  78.2927420  30.9835830  39.3169980  78.9798550  31.5305040  39.6977570
  77.5059840  31.5276560  39.3519590  70.4319820  26.6008650  34.8087060
  71.3014670  26.8833450  35.0922980  69.9410140  27.4144520  34.6935870
  77.5954630  27.9881860  38.9295340  78.0517410  28.7987110  39.1555530
  77.2442840  27.6705000  39.7613830  79.8987240  33.4988200  46.1587640
  80.5429460  33.7047580  46.8361060  80.2616680  32.7376600  45.7058490
  73.4966410  18.3319510  39.4017860  73.3681040  18.3237410  40.3502780
  72.6728430  18.6702600  39.0508870  70.7991070  35.8136030  35.3748690
  71.1588710  36.4125370  34.7205960  70.6583410  36.3595920  36.1483720
  70.4960340  20.0910630  48.8624560  69.7818860  20.2907550  49.4677170
  70.9155380  19.3150200  49.2339360  70.7832930  34.0790890  49.8491090
  70.8924050  33.1385630  49.7086480  70.1313490  34.3445640  49.2004820
  78.7745520  32.3506780  51.2489210  78.4542390  31.6316020  51.7934900
  78.1003880  33.0261850  51.3225270  76.8159690  33.1967230  36.1922360
  76.8069790  33.9296920  35.5766870  75.8958050  32.9498810  36.2849320
  72.4166330  28.4182120  36.9369120  71.8094280  29.1581020  36.9464420
  72.8915680  28.5081480  36.1107320  79.8019290  33.2595470  34.8547550
  79.9031270  33.0559460  33.9249530  78.9021030  33.0053750  35.0595330
  77.3245180  23.8175830  38.8371450  76.6161330  24.2862170  39.2785060
  77.6089660  23.1597840  39.4716640  78.9501110  25.2372530  46.8363980
  79.4486360  25.7118350  47.5015830  79.0924060  24.3136050  47.0434010
  78.4437400  35.7781790  39.5495220  78.6978900  35.7403180  38.6274590
  77.4949880  35.6515120  39.5423470  75.5280200  22.1260910  36.2122160
  76.3770730  22.5631060  36.1462350  75.1611470  22.4381170  37.0394220
  74.4271620  28.3793270  34.6857690  75.1934890  28.2674630  35.2483120
  74.5046310  27.6831240  34.0334460  73.1218380  25.8118340  35.3690580
  73.2021970  24.8645850  35.4807980  74.0138130  26.1425220  35.4751240
  73.9233090  35.9613730  42.4725120  74.6595570  35.4129190  42.7433690
  74.3074010  36.8269740  42.3331110  70.8078570  32.0287300  38.3466630
  69.8818350  32.2708440  38.3372040  71.2735000  32.8561560  38.2251380
  72.9291370  35.1459800  51.6610700  73.7304100  35.4671850  52.0746100
  72.4143190  34.7855380  52.3830610  77.0335400  35.1344040  34.2950690
  77.8264010  35.4232870  33.8432480  76.5139750  34.7036210  33.6163170
  70.6489180  27.6333260  50.6046750  71.1528200  27.0540540  51.1762980
  69.9096600  27.9173490  51.1423120  77.5512800  30.3547450  34.1593040
  77.4463440  29.7399800  34.8854420  77.3837020  29.8313340  33.3756050
  77.7027120  29.0404250  50.1382270  76.9372790  29.6089250  50.0536940
  77.8843080  28.7480460  49.2450500  80.7915530  29.4167480  34.7635030
  80.2425630  29.8636780  35.4077770  81.4134790  28.9116730  35.2872700
  72.6812260  25.7762850  51.4996820  72.7217600  25.4776720  52.4082050
  73.5357760  26.1770460  51.3404340  76.4590650  28.3758400  36.6600330
  76.8807070  28.2098270  37.5031720  76.5841490  27.5658630  36.1655470
  74.6218070  24.3554950  49.4671310  74.0914530  23.8645900  48.8394650
  75.2906140  24.7839150  48.9329240  78.9718290  27.3996010  33.9077430
  79.4923950  26.6845030  33.5418580  79.6186690  28.0381880  34.2077940
  75.1090370  21.3217320  49.5468600  75.0147240  20.7038070  48.8219470
  74.5287760  22.0483610  49.3198510  77.8751810  19.8790560  46.5795990
  77.4269110  19.9014820  45.7341540  77.2417010  19.4809580  47.1766290
  78.2811360  28.7744890  47.2008430  78.6999470  29.6177620  47.0284670
  77.3619990  28.9116930  46.9715210  80.6175260  26.5061070  48.5846270
  80.7371470  25.9102210  49.3241110  81.4769260  26.5430760  48.1647570
  75.3549550  24.4491630  33.6058490  75.1538610  23.5858990  33.9671830
  75.1841600  24.3624990  32.6680090  76.1318780  35.0797900  48.3166160
  75.5939870  35.8043960  47.9974860  76.3852740  34.6028240  47.5263500
  77.3844030  23.0482420  49.8422090  77.9743720  22.7398270  50.5299910
  76.5664270  22.5762170  49.9981990  74.1532350  21.5492250  33.5936370
  74.4558250  21.5559680  32.6855520  74.8926940  21.1990110  34.0904030
  78.9880990  36.3149110  48.5752810  78.9139690  37.2184250  48.8825180
  78.0859830  35.9961010  48.5474880  77.3717280  20.4926870  34.5792570
  77.0239280  19.8150860  33.9995020  77.5730050  20.0316380  35.3935960
  79.5366320  35.4807620  36.1979170  80.4317110  35.8192590  36.2197930
  79.5683950  34.7587030  35.5703450  73.1762480  30.8534670  34.4266170
  73.6137350  31.3964340  35.0823750  73.6610210  30.0281620  34.4362510
  70.3908280  33.6423700  41.8786430  70.7211290  32.7744760  41.6465070
  70.8199280  33.8482220  42.7091390  74.9870200  31.9732710  39.5388400
  74.6865740  31.8497680  40.4392310  74.8807690  31.1141300  39.1304130
  70.8798490  34.5094290  44.6168060  70.4429480  34.6895090  45.4492210
  71.4476170  35.2668910  44.4749780  70.7122920  27.0214520  40.9756940
  70.0571760  26.7526160  40.3316640  71.5500870  26.9119000  40.5258920
  71.7498850  27.4067090  45.5160280  72.1171890  27.3194490  46.3956300
  71.1809670  26.6433640  45.4167140  71.3014850  24.3176180  49.4218700
  70.4070900  24.2842940  49.7612410  71.8412400  24.5162970  50.1869950
  69.9261000  24.2313450  36.9182270  69.0225080  24.4943650  36.7433930
  70.4101620  24.5024620  36.1382230  72.4688210  23.2878990  34.8276650
  73.1779910  22.8662210  34.3423930  71.7528150  23.3554220  34.1960000
  72.1162370  19.3418320  33.8679300  72.8390500  19.8827260  34.1860520
  72.3886890  19.0681740  32.9920840  71.8054560  18.5924510  43.7701920
  72.4530750  18.0421890  43.3297080  72.2256400  18.8467660  44.5917730
  71.5586560  18.7480180  46.5127240  71.2101380  19.2044000  47.2785420
  71.2274260  17.8537310  46.5949670  73.1650930  31.9199780  50.6780430
  73.1220560  31.5492690  51.5594890  73.2961940  32.8577350  50.8182250
  76.8656960  33.4759370  46.2790150  76.6248320  33.7433930  45.3920670
  77.8059600  33.6465100  46.3341010  79.0711380  19.9392060  50.0346660
  79.0100270  20.5313890  50.7842070  80.0111760  19.8318020  49.8896920
  72.2307200  18.2756380  49.7878010  72.7790190  18.0944430  49.0244120
  72.2962510  17.4850490  50.3234320  73.0038960  34.8662030  47.7978210
  72.4099280  34.7346730  48.5368250  72.9962800  34.0300170  47.3320310
  72.6351190  32.2320410  46.7486250  71.9085250  31.6125700  46.6812200
  72.6960340  32.6261020  45.8784330  76.2396290  34.4465410  43.5335660
  76.7561310  33.8352770  43.0083920  76.8893670  34.9494190  44.0246670
  78.9791790  35.3373900  44.3604640  79.2669600  35.0828200  43.4837650
  79.4915010  34.7851260  44.9510210  80.1968800  19.0764100  44.9401150
  79.4140590  19.5509600  45.2197910  79.9031730  18.1718930  44.8314330
  70.9181190  35.5494800  39.9583010  70.7503230  34.9165480  40.6564900
  70.0515700  35.7554200  39.6077200  71.5409210  19.3811580  37.4614870
  72.2988570  19.4940460  36.8878900  71.0786380  20.2180780  37.4158300
  78.0823020  21.4950850  40.4517180  77.2697530  21.1207740  40.1113060
  78.5864660  20.7395930  40.7538370  72.5243890  34.2428030  37.4033150
  71.9991510  34.6236060  36.6995110  72.4488470  34.8678800  38.1242860
  73.9134360  19.9075630  36.0016840  74.4427120  19.1205430  35.8724790
  74.5462680  20.5866820  36.2352370  76.1072200  19.6450770  39.0562230
  75.4774940  18.9438080  39.2232360  75.5677340  20.4054900  38.8395390
  79.0464150  36.2590000  51.7272840  79.9731460  36.0234270  51.7708800
  79.0314580  37.0862000  51.2458870  76.2327760  18.9234750  51.4914720
  75.9512030  19.4268350  50.7275540  76.6147460  18.1256500  51.1256850
  75.1236860  36.1910410  36.2782400  75.8555680  35.9069690  35.7306290
  75.3830530  35.9523690  37.1681780  74.2851650  32.3075140  36.2828730
  73.6560530  32.7760240  36.8314560  74.3999480  31.4624360  36.7174920
  79.8719410  28.1359820  24.3139200  79.0961510  27.6560260  24.6037770
  80.5232340  27.4565470  24.1395360  73.8885240  28.4479630  25.1914960
  73.0570120  28.1928340  25.5911470  74.4966220  28.5190400  25.9272880
  73.8686500  32.4819720  25.3872980  74.1714540  31.5917460  25.2083200
  74.6130090  33.0389940  25.1595230  72.2977190  23.4081520  18.9757350
  71.4093890  23.7497490  18.8737230  72.5818380  23.2081840  18.0838180
  70.2610200  26.0087170  24.8597050  70.8326310  25.2409370  24.8600690
  70.2611740  26.3075930  23.9503660  80.1190150  34.8278020  22.7142320
  79.5001590  35.2835520  22.1436760  80.9741930  34.9829480  22.3132020
  79.3128400  30.8117010  24.3209360  79.2436680  29.8706950  24.1598490
  80.0748260  30.9018420  24.8931930  71.5035070  21.4171530  26.6465980
  71.3237910  20.5197280  26.9268740  71.1015150  21.9643400  27.3212930
  80.3433570  23.6187390  24.5478290  80.7198390  22.7459270  24.4351960
  80.2453080  23.9546090  23.6568730  74.4738580  21.9913020  20.0095730
  74.5805330  22.8916750  20.3164490  73.5630940  21.9430990  19.7190380
  72.1221740  23.9132030  25.2548320  72.8031850  24.1770400  25.8735720
  71.8069790  23.0732900  25.5886330  76.3146310  24.9599390  24.3420910
  76.8224530  25.4580360  24.9825930  76.8459550  24.1834590  24.1660270
  74.5982410  19.5997950  28.6084330  74.6000850  20.1170340  27.8030230
  73.7686720  19.1228130  28.5854260  80.9853500  29.7117260  20.1074230
  80.3670770  30.1766710  19.5436950  81.4976750  30.4044740  20.5243740
  75.8485260  29.2393130  26.7857830  75.5154640  29.8662050  27.4278900
  76.0251940  29.7655010  26.0059500  74.2797740  21.3107910  26.6154780
  74.6214550  22.1549960  26.3208650  73.3413550  21.4591650  26.7320120
  75.0604360  31.2073930  28.6007010  75.6778360  31.8825010  28.3191460
  74.1997480  31.6161910  28.5094510  70.3536700  30.3973790  17.4813860
  69.9764680  30.8860890  16.7498760  70.6109770  31.0699070  18.1120390
  77.9625630  18.7990180  22.9399370  78.2700610  18.2437070  22.2234870
  77.0326330  18.9334640  22.7572360  80.3506390  26.8639010  19.6759490
  79.4235670  26.7976390  19.9047960  80.5031210  27.8019140  19.5614730
  80.3375470  23.1356010  16.6726650  79.3979140  23.2969970  16.7579110
  80.6558730  23.8541690  16.1262640  75.9563030  27.3903750  22.4579220
  75.5520030  26.6781000  21.9625120  76.0426150  27.0456990  23.3467260
  76.4244730  31.0771310  24.6218430  76.1273020  30.4716780  23.9426210
  77.3744550  31.1148620  24.5107790  74.6691650  24.1646960  26.2378260
  75.2206240  24.2742300  25.4631510  75.1835160  24.5384560  26.9533490
  75.5163160  30.8153000  31.2726230  74.6191690  31.0392970  31.5199630
  75.5416030  30.9387940  30.3237630  74.3434380  27.6866320  29.8483600
  74.2042150  28.5589120  30.2171000  73.4615740  27.3439130  29.7031540
  80.6663760  32.6042190  21.1548730  81.1059670  33.3466520  20.7404120
  80.6050650  32.8468760  22.0787690  76.1414730  33.6288020  32.0568750
  76.1130160  34.0330970  31.1897180  75.9779700  32.6998380  31.8940350
  72.6567660  26.2848730  19.9585870  72.5365260  27.0110820  19.3467140
  72.3468550  25.5151640  19.4813780  70.2953030  29.4563870  25.7654510
  70.3733450  29.5912640  24.8210230  70.9094710  28.7479760  25.9582630
  71.5400660  31.1564060  22.1760690  71.1328740  31.2978650  21.3214290
  72.4313670  30.8724220  21.9731900  75.8122320  35.3709840  20.2883360
  75.6364800  34.4545380  20.0751160  74.9578060  35.7297130  20.5281160
  70.3512550  30.4978040  28.3048970  70.5143590  30.0283400  27.4868340
  70.8165000  29.9901600  28.9697810  75.1231320  19.6283800  23.3409540
  74.6799470  20.4093340  23.0094060  75.6816310  19.9513690  24.0480480
  79.4101130  22.4952320  28.9444860  78.9480500  22.7035340  29.7564800
  79.0079240  21.6811670  28.6415530  78.2390140  19.2494500  18.2215370
  77.6144320  19.2454370  18.9468680  78.1520260  18.3825460  17.8251340
  77.1607220  20.1731130  25.1999140  77.4579550  21.0793960  25.1191160
  77.7092780  19.6849910  24.5858710  74.9145540  24.7517370  21.0690790
  74.6886460  24.5354540  21.9737410  74.1338070  25.1845830  20.7236760
  77.3544750  25.6502950  31.7351060  77.2588350  24.7097680  31.5851460
  78.1976730  25.8718020  31.3399130  80.7508170  23.3944280  21.6984720
  81.1437740  23.7116480  20.8853410  81.1125020  22.5156160  21.8129240
  72.4855290  22.0616620  29.8884840  72.0918680  22.9091830  30.0957620
  71.7973690  21.4242990  30.0793480  79.0600340  22.1451590  32.9581580
  78.3698660  21.9523790  33.5927670  79.8032640  22.4286230  33.4905880
  69.7872340  19.9845080  23.9214920  69.4985390  20.5547940  24.6339900
  70.5318100  19.5049530  24.2846150  69.9742570  23.9265200  15.1317640
  69.8917240  24.8695960  15.2732630  69.6225630  23.7840110  14.2529990
  81.3363310  25.9850030  25.7935500  80.6044430  26.4936840  26.1425600
  80.9387650  25.1680010  25.4924280  77.7740700  22.6604230  24.1987990
  77.7776760  22.2194180  23.3492530  78.6691820  22.9821560  24.3059810
  73.6243080  22.5430720  23.1582200  73.2843130  23.0205950  23.9149250
  72.8620400  22.0895840  22.7983300  77.8360850  23.6616310  17.1894750
  77.9573670  23.6202790  18.1380570  77.4509360  24.5240460  17.0341480
  76.8482350  25.9717450  16.5878050  76.2799250  25.5235700  15.9613960
  77.5571350  26.3310230  16.0543200  71.9251530  29.8729470  30.4644780
  71.5406320  29.2323140  31.0627740  72.2363720  30.5765590  31.0339510
  78.0748670  26.7206010  25.9453400  78.4418800  26.2464580  26.6914740
  77.8853730  27.5947580  26.2861740  70.9389160  21.4649700  22.0746870
  70.6536080  21.1005370  22.9125490  70.8768020  20.7330160  21.4610010
  75.8648040  25.7614650  28.2637610  75.5605110  26.6406630  28.4887970
  76.8194500  25.8214440  28.2995050  74.3929830  29.9675640  18.8604460
  73.6192090  29.4273260  18.7003180  75.1224460  29.4482250  18.5222220
  80.6127750  20.3578960  18.7960240  79.7992360  19.8592130  18.7205550
  80.4189700  21.1977210  18.3796590  80.5336610  29.0350060  30.5399850
  80.4673920  28.1145730  30.2857440  79.9041750  29.1325500  31.2544490
  74.4367230  29.6356020  22.4983270  74.9545900  28.8324280  22.4440160
  73.9851250  29.5735160  23.3400100  79.3236730  30.9022300  17.7710570
  79.6652430  31.6464530  17.2753890  78.4949440  31.2153420  18.1335400
  71.9211770  26.6017390  29.4108970  71.5626710  27.2671240  29.9982310
  71.6266330  25.7700940  29.7821590  75.1224890  27.0601630  32.2948520
  74.8225030  27.2058810  31.3976340  75.8936130  26.5006920  32.2021910
  80.4653340  31.8570630  30.2903650  80.4797880  30.9251590  30.0722560
  79.7578440  31.9430390  30.9293420  78.2927420  30.9835830  20.5426490
  78.9798550  31.5305040  20.9234080  77.5059840  31.5276560  20.5776100
  70.4319820  26.6008650  16.0343570  71.3014670  26.8833450  16.3179490
  69.9410140  27.4144520  15.9192380  77.5954630  27.9881860  20.1551850
  78.0517410  28.7987110  20.3812040  77.2442840  27.6705000  20.9870340
  79.8987240  33.4988200  27.3844150  80.5429460  33.7047580  28.0617570
  80.2616680  32.7376600  26.9315000  73.4966410  18.3319510  20.6274370
  73.3681040  18.3237410  21.5759290  72.6728430  18.6702600  20.2765380
  70.7991070  35.8136030  16.6005200  71.1588710  36.4125370  15.9462470
  70.6583410  36.3595920  17.3740230  70.4960340  20.0910630  30.0881070
  69.7818860  20.2907550  30.6933680  70.9155380  19.3150200  30.4595870
  70.7832930  34.0790890  31.0747600  70.8924050  33.1385630  30.9342990
  70.1313490  34.3445640  30.4261330  78.7745520  32.3506780  32.4745720
  78.4542390  31.6316020  33.0191410  78.1003880  33.0261850  32.5481780
  76.8159690  33.1967230  17.4178870  76.8069790  33.9296920  16.8023380
  75.8958050  32.9498810  17.5105830  72.4166330  28.4182120  18.1625630
  71.8094280  29.1581020  18.1720930  72.8915680  28.5081480  17.3363830
  79.8019290  33.2595470  16.0804060  79.9031270  33.0559460  15.1506040
  78.9021030  33.0053750  16.2851840  77.3245180  23.8175830  20.0627960
  76.6161330  24.2862170  20.5041570  77.6089660  23.1597840  20.6973150
  78.9501110  25.2372530  28.0620490  79.4486360  25.7118350  28.7272340
  79.0924060  24.3136050  28.2690520  78.4437400  35.7781790  20.7751730
  78.6978900  35.7403180  19.8531100  77.4949880  35.6515120  20.7679980
  75.5280200  22.1260910  17.4378670  76.3770730  22.5631060  17.3718860
  75.1611470  22.4381170  18.2650730  74.4271620  28.3793270  15.9114200
  75.1934890  28.2674630  16.4739630  74.5046310  27.6831240  15.2590970
  73.1218380  25.8118340  16.5947090  73.2021970  24.8645850  16.7064490
  74.0138130  26.1425220  16.7007750  73.9233090  35.9613730  23.6981630
  74.6595570  35.4129190  23.9690200  74.3074010  36.8269740  23.5587620
  70.8078570  32.0287300  19.5723140  69.8818350  32.2708440  19.5628550
  71.2735000  32.8561560  19.4507890  72.9291370  35.1459800  32.8867210
  73.7304100  35.4671850  33.3002610  72.4143190  34.7855380  33.6087120
  77.0335400  35.1344040  15.5207200  77.8264010  35.4232870  15.0688990
  76.5139750  34.7036210  14.8419680  77.5512800  30.3547450  15.3849550
  77.4463440  29.7399800  16.1110930  77.3837020  29.8313340  14.6012560
  77.7027120  29.0404250  31.3638780  76.9372790  29.6089250  31.2793450
  77.8843080  28.7480460  30.4707010  80.7915530  29.4167480  15.9891540
  80.2425630  29.8636780  16.6334280  81.4134790  28.9116730  16.5129210
  72.6812260  25.7762850  32.7253330  72.7217600  25.4776720  33.6338560
  73.5357760  26.1770460  32.5660850  76.4590650  28.3758400  17.8856840
  76.8807070  28.2098270  18.7288230  76.5841490  27.5658630  17.3911980
  74.6218070  24.3554950  30.6927820  74.0914530  23.8645900  30.0651160
  75.2906140  24.7839150  30.1585750  78.9718290  27.3996010  15.1333940
  79.4923950  26.6845030  14.7675090  79.6186690  28.0381880  15.4334450
  75.1090370  21.3217320  30.7725110  75.0147240  20.7038070  30.0475980
  74.5287760  22.0483610  30.5455020  77.8751810  19.8790560  27.8052500
  77.4269110  19.9014820  26.9598050  77.2417010  19.4809580  28.4022800
  78.2811360  28.7744890  28.4264940  78.6999470  29.6177620  28.2541180
  77.3619990  28.9116930  28.1971720  80.6175260  26.5061070  29.8102780
  80.7371470  25.9102210  30.5497620  81.4769260  26.5430760  29.3904080
  75.3549550  24.4491630  14.8315000  75.1538610  23.5858990  15.1928340
  75.1841600  24.3624990  13.8936600  76.1318780  35.0797900  29.5422670
  75.5939870  35.8043960  29.2231370  76.3852740  34.6028240  28.7520010
  77.3844030  23.0482420  31.0678600  77.9743720  22.7398270  31.7556420
  76.5664270  22.5762170  31.2238500  74.1532350  21.5492250  14.8192880
  74.4558250  21.5559680  13.9112030  74.8926940  21.1990110  15.3160540
  78.9880990  36.3149110  29.8009320  78.9139690  37.2184250  30.1081690
  78.0859830  35.9961010  29.7731390  77.3717280  20.4926870  15.8049080
  77.0239280  19.8150860  15.2251530  77.5730050  20.0316380  16.6192470
  79.5366320  35.4807620  17.4235680  80.4317110  35.8192590  17.4454440
  79.5683950  34.7587030  16.7959960  73.1762480  30.8534670  15.6522680
  73.6137350  31.3964340  16.3080260  73.6610210  30.0281620  15.6619020
  70.3908280  33.6423700  23.1042940  70.7211290  32.7744760  22.8721580
  70.8199280  33.8482220  23.9347900  74.9870200  31.9732710  20.7644910
  74.6865740  31.8497680  21.6648820  74.8807690  31.1141300  20.3560640
  70.8798490  34.5094290  25.8424570  70.4429480  34.6895090  26.6748720
  71.4476170  35.2668910  25.7006290  70.7122920  27.0214520  22.2013450
  70.0571760  26.7526160  21.5573150  71.5500870  26.9119000  21.7515430
  71.7498850  27.4067090  26.7416790  72.1171890  27.3194490  27.6212810
  71.1809670  26.6433640  26.6423650  71.3014850  24.3176180  30.6475210
  70.4070900  24.2842940  30.9868920  71.8412400  24.5162970  31.4126460
  69.9261000  24.2313450  18.1438780  69.0225080  24.4943650  17.9690440
  70.4101620  24.5024620  17.3638740  72.4688210  23.2878990  16.0533160
  73.1779910  22.8662210  15.5680440  71.7528150  23.3554220  15.4216510
  72.1162370  19.3418320  15.0935810  72.8390500  19.8827260  15.4117030
  72.3886890  19.0681740  14.2177350  71.8054560  18.5924510  24.9958430
  72.4530750  18.0421890  24.5553590  72.2256400  18.8467660  25.8174240
  71.5586560  18.7480180  27.7383750  71.2101380  19.2044000  28.5041930
  71.2274260  17.8537310  27.8206180  73.1650930  31.9199780  31.9036940
  73.1220560  31.5492690  32.7851400  73.2961940  32.8577350  32.0438760
  76.8656960  33.4759370  27.5046660  76.6248320  33.7433930  26.6177180
  77.8059600  33.6465100  27.5597520  79.0711380  19.9392060  31.2603170
  79.0100270  20.5313890  32.0098580  80.0111760  19.8318020  31.1153430
  72.2307200  18.2756380  31.0134520  72.7790190  18.0944430  30.2500630
  72.2962510  17.4850490  31.5490830  73.0038960  34.8662030  29.0234720
  72.4099280  34.7346730  29.7624760  72.9962800  34.0300170  28.5576820
  72.6351190  32.2320410  27.9742760  71.9085250  31.6125700  27.9068710
  72.6960340  32.6261020  27.1040840  76.2396290  34.4465410  24.7592170
  76.7561310  33.8352770  24.2340430  76.8893670  34.9494190  25.2503180
  78.9791790  35.3373900  25.5861150  79.2669600  35.0828200  24.7094160
  79.4915010  34.7851260  26.1766720  80.1968800  19.0764100  26.1657660
  79.4140590  19.5509600  26.4454420  79.9031730  18.1718930  26.0570840
  70.9181190  35.5494800  21.1839520  70.7503230  34.9165480  21.8821410
  70.0515700  35.7554200  20.8333710  71.5409210  19.3811580  18.6871380
  72.2988570  19.4940460  18.1135410  71.0786380  20.2180780  18.6414810
  78.0823020  21.4950850  21.6773690  77.2697530  21.1207740  21.3369570
  78.5864660  20.7395930  21.9794880  72.5243890  34.2428030  18.6289660
  71.9991510  34.6236060  17.9251620  72.4488470  34.8678800  19.3499370
  73.9134360  19.9075630  17.2273350  74.4427120  19.1205430  17.0981300
  74.5462680  20.5866820  17.4608880  76.1072200  19.6450770  20.2818740
  75.4774940  18.9438080  20.4488870  75.5677340  20.4054900  20.0651900
  79.0464150  36.2590000  32.9529350  79.9731460  36.0234270  32.9965310
  79.0314580  37.0862000  32.4715380  76.2327760  18.9234750  32.7171230
  75.9512030  19.4268350  31.9532050  76.6147460  18.1256500  32.3513360
  75.1236860  36.1910410  17.5038910  75.8555680  35.9069690  16.9562800
  75.3830530  35.9523690  18.3938290  74.2851650  32.3075140  17.5085240
  73.6560530  32.7760240  18.0571070  74.3999480  31.4624360  17.9431430
  79.8719410  28.1359820   5.5395710  79.0961510  27.6560260   5.8294280
  80.5232340  27.4565470   5.3651870  73.8885240  28.4479630   6.4171470
  73.0570120  28.1928340   6.8167980  74.4966220  28.5190400   7.1529390
  73.8686500  32.4819720   6.6129490  74.1714540  31.5917460   6.4339710
  74.6130090  33.0389940   6.3851740  70.2610200  26.0087170   6.0853560
  70.8326310  25.2409370   6.0857200  70.2611740  26.3075930   5.1760170
  80.1190150  34.8278020   3.9398830  79.5001590  35.2835520   3.3693270
  80.9741930  34.9829480   3.5388530  79.3128400  30.8117010   5.5465870
  79.2436680  29.8706950   5.3855000  80.0748260  30.9018420   6.1188440
  71.5035070  21.4171530   7.8722490  71.3237910  20.5197280   8.1525250
  71.1015150  21.9643400   8.5469440  80.3433570  23.6187390   5.7734800
  80.7198390  22.7459270   5.6608470  80.2453080  23.9546090   4.8825240
  72.1221740  23.9132030   6.4804830  72.8031850  24.1770400   7.0992230
  71.8069790  23.0732900   6.8142840  76.3146310  24.9599390   5.5677420
  76.8224530  25.4580360   6.2082440  76.8459550  24.1834590   5.3916780
  74.5982410  19.5997950   9.8340840  74.6000850  20.1170340   9.0286740
  73.7686720  19.1228130   9.8110770  75.8485260  29.2393130   8.0114340
  75.5154640  29.8662050   8.6535410  76.0251940  29.7655010   7.2316010
  74.2797740  21.3107910   7.8411290  74.6214550  22.1549960   7.5465160
  73.3413550  21.4591650   7.9576630  75.0604360  31.2073930   9.8263520
  75.6778360  31.8825010   9.5447970  74.1997480  31.6161910   9.7351020
  77.9625630  18.7990180   4.1655880  78.2700610  18.2437070   3.4491380
  77.0326330  18.9334640   3.9828870  75.9563030  27.3903750   3.6835730
  75.5520030  26.6781000   3.1881630  76.0426150  27.0456990   4.5723770
  76.4244730  31.0771310   5.8474940  76.1273020  30.4716780   5.1682720
  77.3744550  31.1148620   5.7364300  74.6691650  24.1646960   7.4634770
  75.2206240  24.2742300   6.6888020  75.1835160  24.5384560   8.1790000
  75.5163160  30.8153000  12.4982740  74.6191690  31.0392970  12.7456140
  75.5416030  30.9387940  11.5494140  74.3434380  27.6866320  11.0740110
  74.2042150  28.5589120  11.4427510  73.4615740  27.3439130  10.9288050
  80.6663760  32.6042190   2.3805240  81.1059670  33.3466520   1.9660630
  80.6050650  32.8468760   3.3044200  76.1414730  33.6288020  13.2825260
  76.1130160  34.0330970  12.4153690  75.9779700  32.6998380  13.1196860
  70.2953030  29.4563870   6.9911020  70.3733450  29.5912640   6.0466740
  70.9094710  28.7479760   7.1839140  71.5400660  31.1564060   3.4017200
  71.1328740  31.2978650   2.5470800  72.4313670  30.8724220   3.1988410
  70.3512550  30.4978040   9.5305480  70.5143590  30.0283400   8.7124850
  70.8165000  29.9901600  10.1954320  75.1231320  19.6283800   4.5666050
  74.6799470  20.4093340   4.2350570  75.6816310  19.9513690   5.2736990
  79.4101130  22.4952320  10.1701370  78.9480500  22.7035340  10.9821310
  79.0079240  21.6811670   9.8672040  77.1607220  20.1731130   6.4255650
  77.4579550  21.0793960   6.3447670  77.7092780  19.6849910   5.8115220
  74.9145540  24.7517370   2.2947300  74.6886460  24.5354540   3.1993920
  74.1338070  25.1845830   1.9493270  77.3544750  25.6502950  12.9607570
  77.2588350  24.7097680  12.8107970  78.1976730  25.8718020  12.5655640
  80.7508170  23.3944280   2.9241230  81.1437740  23.7116480   2.1109920
  81.1125020  22.5156160   3.0385750  72.4855290  22.0616620  11.1141350
  72.0918680  22.9091830  11.3214130  71.7973690  21.4242990  11.3049990
  79.0600340  22.1451590  14.1838090  78.3698660  21.9523790  14.8184180
  79.8032640  22.4286230  14.7162390  69.7872340  19.9845080   5.1471430
  69.4985390  20.5547940   5.8596410  70.5318100  19.5049530   5.5102660
  81.3363310  25.9850030   7.0192010  80.6044430  26.4936840   7.3682110
  80.9387650  25.1680010   6.7180790  77.7740700  22.6604230   5.4244500
  77.7776760  22.2194180   4.5749040  78.6691820  22.9821560   5.5316320
  73.6243080  22.5430720   4.3838710  73.2843130  23.0205950   5.1405760
  72.8620400  22.0895840   4.0239810  71.9251530  29.8729470  11.6901290
  71.5406320  29.2323140  12.2884250  72.2363720  30.5765590  12.2596020
  78.0748670  26.7206010   7.1709910  78.4418800  26.2464580   7.9171250
  77.8853730  27.5947580   7.5118250  70.9389160  21.4649700   3.3003380
  70.6536080  21.1005370   4.1382000  70.8768020  20.7330160   2.6866520
  75.8648040  25.7614650   9.4894120  75.5605110  26.6406630   9.7144480
  76.8194500  25.8214440   9.5251560  80.5336610  29.0350060  11.7656360
  80.4673920  28.1145730  11.5113950  79.9041750  29.1325500  12.4801000
  74.4367230  29.6356020   3.7239780  74.9545900  28.8324280   3.6696670
  73.9851250  29.5735160   4.5656610  71.9211770  26.6017390  10.6365480
  71.5626710  27.2671240  11.2238820  71.6266330  25.7700940  11.0078100
  75.1224890  27.0601630  13.5205030  74.8225030  27.2058810  12.6232850
  75.8936130  26.5006920  13.4278420  80.4653340  31.8570630  11.5160160
  80.4797880  30.9251590  11.2979070  79.7578440  31.9430390  12.1549930
  78.2927420  30.9835830   1.7683000  78.9798550  31.5305040   2.1490590
  77.5059840  31.5276560   1.8032610  79.8987240  33.4988200   8.6100660
  80.5429460  33.7047580   9.2874080  80.2616680  32.7376600   8.1571510
  70.4960340  20.0910630  11.3137580  69.7818860  20.2907550  11.9190190
  70.9155380  19.3150200  11.6852380  70.7832930  34.0790890  12.3004110
  70.8924050  33.1385630  12.1599500  70.1313490  34.3445640  11.6517840
  78.7745520  32.3506780  13.7002230  78.4542390  31.6316020  14.2447920
  78.1003880  33.0261850  13.7738290  78.9501110  25.2372530   9.2877000
  79.4486360  25.7118350   9.9528850  79.0924060  24.3136050   9.4947030
  73.9233090  35.9613730   4.9238140  74.6595570  35.4129190   5.1946710
  74.3074010  36.8269740   4.7844130  72.9291370  35.1459800  14.1123720
  73.7304100  35.4671850  14.5259120  72.4143190  34.7855380  14.8343630
  70.6489180  27.6333260  13.0559770  71.1528200  27.0540540  13.6276000
  69.9096600  27.9173490  13.5936140  77.7027120  29.0404250  12.5895290
  76.9372790  29.6089250  12.5049960  77.8843080  28.7480460  11.6963520
  72.6812260  25.7762850  13.9509840  72.7217600  25.4776720  14.8595070
  73.5357760  26.1770460  13.7917360  74.6218070  24.3554950  11.9184330
  74.0914530  23.8645900  11.2907670  75.2906140  24.7839150  11.3842260
  75.1090370  21.3217320  11.9981620  75.0147240  20.7038070  11.2732490
  74.5287760  22.0483610  11.7711530  77.8751810  19.8790560   9.0309010
  77.4269110  19.9014820   8.1854560  77.2417010  19.4809580   9.6279310
  78.2811360  28.7744890   9.6521450  78.6999470  29.6177620   9.4797690
  77.3619990  28.9116930   9.4228230  80.6175260  26.5061070  11.0359290
  80.7371470  25.9102210  11.7754130  81.4769260  26.5430760  10.6160590
  76.1318780  35.0797900  10.7679180  75.5939870  35.8043960  10.4487880
  76.3852740  34.6028240   9.9776520  77.3844030  23.0482420  12.2935110
  77.9743720  22.7398270  12.9812930  76.5664270  22.5762170  12.4495010
  78.9880990  36.3149110  11.0265830  78.9139690  37.2184250  11.3338200
  78.0859830  35.9961010  10.9987900  70.3908280  33.6423700   4.3299450
  70.7211290  32.7744760   4.0978090  70.8199280  33.8482220   5.1604410
  70.8798490  34.5094290   7.0681080  70.4429480  34.6895090   7.9005230
  71.4476170  35.2668910   6.9262800  70.7122920  27.0214520   3.4269960
  70.0571760  26.7526160   2.7829660  71.5500870  26.9119000   2.9771940
  71.7498850  27.4067090   7.9673300  72.1171890  27.3194490   8.8469320
  71.1809670  26.6433640   7.8680160  71.3014850  24.3176180  11.8731720
  70.4070900  24.2842940  12.2125430  71.8412400  24.5162970  12.6382970
  71.8054560  18.5924510   6.2214940  72.4530750  18.0421890   5.7810100
  72.2256400  18.8467660   7.0430750  71.5586560  18.7480180   8.9640260
  71.2101380  19.2044000   9.7298440  71.2274260  17.8537310   9.0462690
  73.1650930  31.9199780  13.1293450  73.1220560  31.5492690  14.0107910
  73.2961940  32.8577350  13.2695270  76.8656960  33.4759370   8.7303170
  76.6248320  33.7433930   7.8433690  77.8059600  33.6465100   8.7854030
  79.0711380  19.9392060  12.4859680  79.0100270  20.5313890  13.2355090
  80.0111760  19.8318020  12.3409940  72.2307200  18.2756380  12.2391030
  72.7790190  18.0944430  11.4757140  72.2962510  17.4850490  12.7747340
  73.0038960  34.8662030  10.2491230  72.4099280  34.7346730  10.9881270
  72.9962800  34.0300170   9.7833330  72.6351190  32.2320410   9.1999270
  71.9085250  31.6125700   9.1325220  72.6960340  32.6261020   8.3297350
  76.2396290  34.4465410   5.9848680  76.7561310  33.8352770   5.4596940
  76.8893670  34.9494190   6.4759690  78.9791790  35.3373900   6.8117660
  79.2669600  35.0828200   5.9350670  79.4915010  34.7851260   7.4023230
  80.1968800  19.0764100   7.3914170  79.4140590  19.5509600   7.6710930
  79.9031730  18.1718930   7.2827350  70.9181190  35.5494800   2.4096030
  70.7503230  34.9165480   3.1077920  70.0515700  35.7554200   2.0590220
  78.0823020  21.4950850   2.9030200  77.2697530  21.1207740   2.5626080
  78.5864660  20.7395930   3.2051390  79.0464150  36.2590000  14.1785860
  79.9731460  36.0234270  14.2221820  79.0314580  37.0862000  13.6971890
  76.2327760  18.9234750  13.9427740  75.9512030  19.4268350  13.1788560
  76.6147460  18.1256500  13.5769870  79.8719410   9.3616330  61.8626180
  79.0961510   8.8816770  62.1524750  80.5232340   8.6821980  61.6882340
  73.8885240   9.6736140  62.7401940  73.0570120   9.4184850  63.1398450
  74.4966220   9.7446910  63.4759860  73.8686500  13.7076230  62.9359960
  74.1714540  12.8173970  62.7570180  74.6130090  14.2646450  62.7082210
  72.2977190   4.6338030  56.5244330  71.4093890   4.9754000  56.4224210
  72.5818380   4.4338350  55.6325160  70.2610200   7.2343680  62.4084030
  70.8326310   6.4665880  62.4087670  70.2611740   7.5332440  61.4990640
  80.1190150  16.0534530  60.2629300  79.5001590  16.5092030  59.6923740
  80.9741930  16.2085990  59.8619000  79.3128400  12.0373520  61.8696340
  79.2436680  11.0963460  61.7085470  80.0748260  12.1274930  62.4418910
  71.5035070   2.6428040  64.1952960  71.3237910   1.7453790  64.4755720
  71.1015150   3.1899910  64.8699910  80.3433570   4.8443900  62.0965270
  80.7198390   3.9715780  61.9838940  80.2453080   5.1802600  61.2055710
  74.4738580   3.2169530  57.5582710  74.5805330   4.1173260  57.8651470
  73.5630940   3.1687500  57.2677360  72.1221740   5.1388540  62.8035300
  72.8031850   5.4026910  63.4222700  71.8069790   4.2989410  63.1373310
  76.3146310   6.1855900  61.8907890  76.8224530   6.6836870  62.5312910
  76.8459550   5.4091100  61.7147250  80.9853500  10.9373770  57.6561210
  80.3670770  11.4023220  57.0923930  81.4976750  11.6301250  58.0730720
  75.8485260  10.4649640  64.3344810  75.5154640  11.0918560  64.9765880
  76.0251940  10.9911520  63.5546480  74.2797740   2.5364420  64.1641760
  74.6214550   3.3806470  63.8695630  73.3413550   2.6848160  64.2807100
  70.3536700  11.6230300  55.0300840  69.9764680  12.1117400  54.2985740
  70.6109770  12.2955580  55.6607370  80.3506390   8.0895520  57.2246470
  79.4235670   8.0232900  57.4534940  80.5031210   9.0275650  57.1101710
  80.3375470   4.3612520  54.2213630  79.3979140   4.5226480  54.3066090
  80.6558730   5.0798200  53.6749620  75.9563030   8.6160260  60.0066200
  75.5520030   7.9037510  59.5112100  76.0426150   8.2713500  60.8954240
  76.4244730  12.3027820  62.1705410  76.1273020  11.6973290  61.4913190
  77.3744550  12.3405130  62.0594770  74.6691650   5.3903470  63.7865240
  75.2206240   5.4998810  63.0118490  75.1835160   5.7641070  64.5020470
  80.6663760  13.8298700  58.7035710  81.1059670  14.5723030  58.2891100
  80.6050650  14.0725270  59.6274670  72.6567660   7.5105240  57.5072850
  72.5365260   8.2367330  56.8954120  72.3468550   6.7408150  57.0300760
  70.2953030  10.6820380  63.3141490  70.3733450  10.8169150  62.3697210
  70.9094710   9.9736270  63.5069610  71.5400660  12.3820570  59.7247670
  71.1328740  12.5235160  58.8701270  72.4313670  12.0980730  59.5218880
  75.8122320  16.5966350  57.8370340  75.6364800  15.6801890  57.6238140
  74.9578060  16.9553640  58.0768140  74.9145540   5.9773880  58.6177770
  74.6886460   5.7611050  59.5224390  74.1338070   6.4102340  58.2723740
  80.7508170   4.6200790  59.2471700  81.1437740   4.9372990  58.4340390
  81.1125020   3.7412670  59.3616220  69.9742570   5.1521710  52.6804620
  69.8917240   6.0952470  52.8219610  69.6225630   5.0096620  51.8016970
  81.3363310   7.2106540  63.3422480  80.6044430   7.7193350  63.6912580
  80.9387650   6.3936520  63.0411260  77.7740700   3.8860740  61.7474970
  77.7776760   3.4450690  60.8979510  78.6691820   4.2078070  61.8546790
  73.6243080   3.7687230  60.7069180  73.2843130   4.2462460  61.4636230
  72.8620400   3.3152350  60.3470280  77.8360850   4.8872820  54.7381730
  77.9573670   4.8459300  55.6867550  77.4509360   5.7496970  54.5828460
  76.8482350   7.1973960  54.1365030  76.2799250   6.7492210  53.5100940
  77.5571350   7.5566740  53.6030180  78.0748670   7.9462520  63.4940380
  78.4418800   7.4721090  64.2401720  77.8853730   8.8204090  63.8348720
  70.9389160   2.6906210  59.6233850  70.6536080   2.3261880  60.4612470
  70.8768020   1.9586670  59.0096990  74.3929830  11.1932150  56.4091440
  73.6192090  10.6529770  56.2490160  75.1224460  10.6738760  56.0709200
  74.4367230  10.8612530  60.0470250  74.9545900  10.0580790  59.9927140
  73.9851250  10.7991670  60.8887080  79.3236730  12.1278810  55.3197550
  79.6652430  12.8721040  54.8240870  78.4949440  12.4409930  55.6822380
  78.2927420  12.2092340  58.0913470  78.9798550  12.7561550  58.4721060
  77.5059840  12.7533070  58.1263080  70.4319820   7.8265160  53.5830550
  71.3014670   8.1089960  53.8666470  69.9410140   8.6401030  53.4679360
  77.5954630   9.2138370  57.7038830  78.0517410  10.0243620  57.9299020
  77.2442840   8.8961510  58.5357320  70.7991070  17.0392540  54.1492180
  71.1588710  17.6381880  53.4949450  70.6583410  17.5852430  54.9227210
  76.8159690  14.4223740  54.9665850  76.8069790  15.1553430  54.3510360
  75.8958050  14.1755320  55.0592810  72.4166330   9.6438630  55.7112610
  71.8094280  10.3837530  55.7207910  72.8915680   9.7337990  54.8850810
  79.8019290  14.4851980  53.6291040  79.9031270  14.2815970  52.6993020
  78.9021030  14.2310260  53.8338820  77.3245180   5.0432340  57.6114940
  76.6161330   5.5118680  58.0528550  77.6089660   4.3854350  58.2460130
  78.4437400  17.0038300  58.3238710  78.6978900  16.9659690  57.4018080
  77.4949880  16.8771630  58.3166960  75.5280200   3.3517420  54.9865650
  76.3770730   3.7887570  54.9205840  75.1611470   3.6637680  55.8137710
  74.4271620   9.6049780  53.4601180  75.1934890   9.4931140  54.0226610
  74.5046310   8.9087750  52.8077950  73.1218380   7.0374850  54.1434070
  73.2021970   6.0902360  54.2551470  74.0138130   7.3681730  54.2494730
  73.9233090  17.1870240  61.2468610  74.6595570  16.6385700  61.5177180
  74.3074010  18.0526250  61.1074600  70.8078570  13.2543810  57.1210120
  69.8818350  13.4964950  57.1115530  71.2735000  14.0818070  56.9994870
  77.0335400  16.3600550  53.0694180  77.8264010  16.6489380  52.6175970
  76.5139750  15.9292720  52.3906660  77.5512800  11.5803960  52.9336530
  77.4463440  10.9656310  53.6597910  77.3837020  11.0569850  52.1499540
  80.7915530  10.6423990  53.5378520  80.2425630  11.0893290  54.1821260
  81.4134790  10.1373240  54.0616190  76.4590650   9.6014910  55.4343820
  76.8807070   9.4354780  56.2775210  76.5841490   8.7915140  54.9398960
  78.9718290   8.6252520  52.6820920  79.4923950   7.9101540  52.3162070
  79.6186690   9.2638390  52.9821430  75.3549550   5.6748140  52.3801980
  75.1538610   4.8115500  52.7415320  75.1841600   5.5881500  51.4423580
  74.1532350   2.7748760  52.3679860  74.4558250   2.7816190  51.4599010
  74.8926940   2.4246620  52.8647520  79.5366320  16.7064130  54.9722660
  80.4317110  17.0449100  54.9941420  79.5683950  15.9843540  54.3446940
  73.1762480  12.0791180  53.2009660  73.6137350  12.6220850  53.8567240
  73.6610210  11.2538130  53.2106000  70.3908280  14.8680210  60.6529920
  70.7211290  14.0001270  60.4208560  70.8199280  15.0738730  61.4834880
  74.9870200  13.1989220  58.3131890  74.6865740  13.0754190  59.2135800
  74.8807690  12.3397810  57.9047620  70.8798490  15.7350800  63.3911550
  70.4429480  15.9151600  64.2235700  71.4476170  16.4925420  63.2493270
  70.7122920   8.2471030  59.7500430  70.0571760   7.9782670  59.1060130
  71.5500870   8.1375510  59.3002410  71.7498850   8.6323600  64.2903770
  72.1171890   8.5451000  65.1699790  71.1809670   7.8690150  64.1910630
  69.9261000   5.4569960  55.6925760  69.0225080   5.7200160  55.5177420
  70.4101620   5.7281130  54.9125720  72.4688210   4.5135500  53.6020140
  73.1779910   4.0918720  53.1167420  71.7528150   4.5810730  52.9703490
  76.8656960  14.7015880  65.0533640  76.6248320  14.9690440  64.1664160
  77.8059600  14.8721610  65.1084500  76.2396290  15.6721920  62.3079150
  76.7561310  15.0609280  61.7827410  76.8893670  16.1750700  62.7990160
  78.9791790  16.5630410  63.1348130  79.2669600  16.3084710  62.2581140
  79.4915010  16.0107770  63.7253700  70.9181190  16.7751310  58.7326500
  70.7503230  16.1421990  59.4308390  70.0515700  16.9810710  58.3820690
  78.0823020   2.7207360  59.2260670  77.2697530   2.3464250  58.8856550
  78.5864660   1.9652440  59.5281860  72.5243890  15.4684540  56.1776640
  71.9991510  15.8492570  55.4738600  72.4488470  16.0935310  56.8986350
  75.1236860  17.4166920  55.0525890  75.8555680  17.1326200  54.5049780
  75.3830530  17.1780200  55.9425270  74.2851650  13.5331650  55.0572220
  73.6560530  14.0016750  55.6058050  74.3999480  12.6880870  55.4918410
  79.8719410   9.3616330  43.0882690  79.0961510   8.8816770  43.3781260
  80.5232340   8.6821980  42.9138850  73.8885240   9.6736140  43.9658450
  73.0570120   9.4184850  44.3654960  74.4966220   9.7446910  44.7016370
  73.8686500  13.7076230  44.1616470  74.1714540  12.8173970  43.9826690
  74.6130090  14.2646450  43.9338720  72.2977190   4.6338030  37.7500840
  71.4093890   4.9754000  37.6480720  72.5818380   4.4338350  36.8581670
  70.2610200   7.2343680  43.6340540  70.8326310   6.4665880  43.6344180
  70.2611740   7.5332440  42.7247150  80.1190150  16.0534530  41.4885810
  79.5001590  16.5092030  40.9180250  80.9741930  16.2085990  41.0875510
  79.3128400  12.0373520  43.0952850  79.2436680  11.0963460  42.9341980
  80.0748260  12.1274930  43.6675420  71.5035070   2.6428040  45.4209470
  71.3237910   1.7453790  45.7012230  71.1015150   3.1899910  46.0956420
  80.3433570   4.8443900  43.3221780  80.7198390   3.9715780  43.2095450
  80.2453080   5.1802600  42.4312220  74.4738580   3.2169530  38.7839220
  74.5805330   4.1173260  39.0907980  73.5630940   3.1687500  38.4933870
  72.1221740   5.1388540  44.0291810  72.8031850   5.4026910  44.6479210
  71.8069790   4.2989410  44.3629820  76.3146310   6.1855900  43.1164400
  76.8224530   6.6836870  43.7569420  76.8459550   5.4091100  42.9403760
  80.9853500  10.9373770  38.8817720  80.3670770  11.4023220  38.3180440
  81.4976750  11.6301250  39.2987230  75.8485260  10.4649640  45.5601320
  75.5154640  11.0918560  46.2022390  76.0251940  10.9911520  44.7802990
  74.2797740   2.5364420  45.3898270  74.6214550   3.3806470  45.0952140
  73.3413550   2.6848160  45.5063610  75.0604360  12.4330440  47.3750500
  75.6778360  13.1081520  47.0934950  74.1997480  12.8418420  47.2838000
  70.3536700  11.6230300  36.2557350  69.9764680  12.1117400  35.5242250
  70.6109770  12.2955580  36.8863880  80.3506390   8.0895520  38.4502980
  79.4235670   8.0232900  38.6791450  80.5031210   9.0275650  38.3358220
  80.3375470   4.3612520  35.4470140  79.3979140   4.5226480  35.5322600
  80.6558730   5.0798200  34.9006130  75.9563030   8.6160260  41.2322710
  75.5520030   7.9037510  40.7368610  76.0426150   8.2713500  42.1210750
  76.4244730  12.3027820  43.3961920  76.1273020  11.6973290  42.7169700
  77.3744550  12.3405130  43.2851280  74.6691650   5.3903470  45.0121750
  75.2206240   5.4998810  44.2375000  75.1835160   5.7641070  45.7276980
  75.5163160  12.0409510  50.0469720  74.6191690  12.2649480  50.2943120
  75.5416030  12.1644450  49.0981120  74.3434380   8.9122830  48.6227090
  74.2042150   9.7845630  48.9914490  73.4615740   8.5695640  48.4775030
  80.6663760  13.8298700  39.9292220  81.1059670  14.5723030  39.5147610
  80.6050650  14.0725270  40.8531180  76.1414730  14.8544530  50.8312240
  76.1130160  15.2587480  49.9640670  75.9779700  13.9254890  50.6683840
  72.6567660   7.5105240  38.7329360  72.5365260   8.2367330  38.1210630
  72.3468550   6.7408150  38.2557270  70.2953030  10.6820380  44.5398000
  70.3733450  10.8169150  43.5953720  70.9094710   9.9736270  44.7326120
  71.5400660  12.3820570  40.9504180  71.1328740  12.5235160  40.0957780
  72.4313670  12.0980730  40.7475390  75.8122320  16.5966350  39.0626850
  75.6364800  15.6801890  38.8494650  74.9578060  16.9553640  39.3024650
  70.3512550  11.7234550  47.0792460  70.5143590  11.2539910  46.2611830
  70.8165000  11.2158110  47.7441300  79.4101130   3.7208830  47.7188350
  78.9480500   3.9291850  48.5308290  79.0079240   2.9068180  47.4159020
  74.9145540   5.9773880  39.8434280  74.6886460   5.7611050  40.7480900
  74.1338070   6.4102340  39.4980250  77.3544750   6.8759460  50.5094550
  77.2588350   5.9354190  50.3594950  78.1976730   7.0974530  50.1142620
  80.7508170   4.6200790  40.4728210  81.1437740   4.9372990  39.6596900
  81.1125020   3.7412670  40.5872730  72.4855290   3.2873130  48.6628330
  72.0918680   4.1348340  48.8701110  71.7973690   2.6499500  48.8536970
  79.0600340   3.3708100  51.7325070  78.3698660   3.1780300  52.3671160
  79.8032640   3.6542740  52.2649370  69.9742570   5.1521710  33.9061130
  69.8917240   6.0952470  34.0476120  69.6225630   5.0096620  33.0273480
  81.3363310   7.2106540  44.5678990  80.6044430   7.7193350  44.9169090
  80.9387650   6.3936520  44.2667770  77.7740700   3.8860740  42.9731480
  77.7776760   3.4450690  42.1236020  78.6691820   4.2078070  43.0803300
  73.6243080   3.7687230  41.9325690  73.2843130   4.2462460  42.6892740
  72.8620400   3.3152350  41.5726790  77.8360850   4.8872820  35.9638240
  77.9573670   4.8459300  36.9124060  77.4509360   5.7496970  35.8084970
  76.8482350   7.1973960  35.3621540  76.2799250   6.7492210  34.7357450
  77.5571350   7.5566740  34.8286690  71.9251530  11.0985980  49.2388270
  71.5406320  10.4579650  49.8371230  72.2363720  11.8022100  49.8083000
  78.0748670   7.9462520  44.7196890  78.4418800   7.4721090  45.4658230
  77.8853730   8.8204090  45.0605230  70.9389160   2.6906210  40.8490360
  70.6536080   2.3261880  41.6868980  70.8768020   1.9586670  40.2353500
  75.8648040   6.9871160  47.0381100  75.5605110   7.8663140  47.2631460
  76.8194500   7.0470950  47.0738540  74.3929830  11.1932150  37.6347950
  73.6192090  10.6529770  37.4746670  75.1224460  10.6738760  37.2965710
  80.5336610  10.2606570  49.3143340  80.4673920   9.3402240  49.0600930
  79.9041750  10.3582010  50.0287980  74.4367230  10.8612530  41.2726760
  74.9545900  10.0580790  41.2183650  73.9851250  10.7991670  42.1143590
  79.3236730  12.1278810  36.5454060  79.6652430  12.8721040  36.0497380
  78.4949440  12.4409930  36.9078890  71.9211770   7.8273900  48.1852460
  71.5626710   8.4927750  48.7725800  71.6266330   6.9957450  48.5565080
  75.1224890   8.2858140  51.0692010  74.8225030   8.4315320  50.1719830
  75.8936130   7.7263430  50.9765400  80.4653340  13.0827140  49.0647140
  80.4797880  12.1508100  48.8466050  79.7578440  13.1686900  49.7036910
  78.2927420  12.2092340  39.3169980  78.9798550  12.7561550  39.6977570
  77.5059840  12.7533070  39.3519590  70.4319820   7.8265160  34.8087060
  71.3014670   8.1089960  35.0922980  69.9410140   8.6401030  34.6935870
  77.5954630   9.2138370  38.9295340  78.0517410  10.0243620  39.1555530
  77.2442840   8.8961510  39.7613830  79.8987240  14.7244710  46.1587640
  80.5429460  14.9304090  46.8361060  80.2616680  13.9633110  45.7058490
  70.7991070  17.0392540  35.3748690  71.1588710  17.6381880  34.7205960
  70.6583410  17.5852430  36.1483720  70.7832930  15.3047400  49.8491090
  70.8924050  14.3642140  49.7086480  70.1313490  15.5702150  49.2004820
  78.7745520  13.5763290  51.2489210  78.4542390  12.8572530  51.7934900
  78.1003880  14.2518360  51.3225270  76.8159690  14.4223740  36.1922360
  76.8069790  15.1553430  35.5766870  75.8958050  14.1755320  36.2849320
  72.4166330   9.6438630  36.9369120  71.8094280  10.3837530  36.9464420
  72.8915680   9.7337990  36.1107320  79.8019290  14.4851980  34.8547550
  79.9031270  14.2815970  33.9249530  78.9021030  14.2310260  35.0595330
  77.3245180   5.0432340  38.8371450  76.6161330   5.5118680  39.2785060
  77.6089660   4.3854350  39.4716640  78.9501110   6.4629040  46.8363980
  79.4486360   6.9374860  47.5015830  79.0924060   5.5392560  47.0434010
  78.4437400  17.0038300  39.5495220  78.6978900  16.9659690  38.6274590
  77.4949880  16.8771630  39.5423470  75.5280200   3.3517420  36.2122160
  76.3770730   3.7887570  36.1462350  75.1611470   3.6637680  37.0394220
  74.4271620   9.6049780  34.6857690  75.1934890   9.4931140  35.2483120
  74.5046310   8.9087750  34.0334460  73.1218380   7.0374850  35.3690580
  73.2021970   6.0902360  35.4807980  74.0138130   7.3681730  35.4751240
  73.9233090  17.1870240  42.4725120  74.6595570  16.6385700  42.7433690
  74.3074010  18.0526250  42.3331110  70.8078570  13.2543810  38.3466630
  69.8818350  13.4964950  38.3372040  71.2735000  14.0818070  38.2251380
  72.9291370  16.3716310  51.6610700  73.7304100  16.6928360  52.0746100
  72.4143190  16.0111890  52.3830610  77.0335400  16.3600550  34.2950690
  77.8264010  16.6489380  33.8432480  76.5139750  15.9292720  33.6163170
  70.6489180   8.8589770  50.6046750  71.1528200   8.2797050  51.1762980
  69.9096600   9.1430000  51.1423120  77.5512800  11.5803960  34.1593040
  77.4463440  10.9656310  34.8854420  77.3837020  11.0569850  33.3756050
  77.7027120  10.2660760  50.1382270  76.9372790  10.8345760  50.0536940
  77.8843080   9.9736970  49.2450500  80.7915530  10.6423990  34.7635030
  80.2425630  11.0893290  35.4077770  81.4134790  10.1373240  35.2872700
  72.6812260   7.0019360  51.4996820  72.7217600   6.7033230  52.4082050
  73.5357760   7.4026970  51.3404340  76.4590650   9.6014910  36.6600330
  76.8807070   9.4354780  37.5031720  76.5841490   8.7915140  36.1655470
  74.6218070   5.5811460  49.4671310  74.0914530   5.0902410  48.8394650
  75.2906140   6.0095660  48.9329240  78.9718290   8.6252520  33.9077430
  79.4923950   7.9101540  33.5418580  79.6186690   9.2638390  34.2077940
  75.1090370   2.5473830  49.5468600  75.0147240   1.9294580  48.8219470
  74.5287760   3.2740120  49.3198510  78.2811360  10.0001400  47.2008430
  78.6999470  10.8434130  47.0284670  77.3619990  10.1373440  46.9715210
  80.6175260   7.7317580  48.5846270  80.7371470   7.1358720  49.3241110
  81.4769260   7.7687270  48.1647570  75.3549550   5.6748140  33.6058490
  75.1538610   4.8115500  33.9671830  75.1841600   5.5881500  32.6680090
  76.1318780  16.3054410  48.3166160  75.5939870  17.0300470  47.9974860
  76.3852740  15.8284750  47.5263500  77.3844030   4.2738930  49.8422090
  77.9743720   3.9654780  50.5299910  76.5664270   3.8018680  49.9981990
  74.1532350   2.7748760  33.5936370  74.4558250   2.7816190  32.6855520
  74.8926940   2.4246620  34.0904030  78.9880990  17.5405620  48.5752810
  78.9139690  18.4440760  48.8825180  78.0859830  17.2217520  48.5474880
  79.5366320  16.7064130  36.1979170  80.4317110  17.0449100  36.2197930
  79.5683950  15.9843540  35.5703450  73.1762480  12.0791180  34.4266170
  73.6137350  12.6220850  35.0823750  73.6610210  11.2538130  34.4362510
  70.3908280  14.8680210  41.8786430  70.7211290  14.0001270  41.6465070
  70.8199280  15.0738730  42.7091390  74.9870200  13.1989220  39.5388400
  74.6865740  13.0754190  40.4392310  74.8807690  12.3397810  39.1304130
  70.8798490  15.7350800  44.6168060  70.4429480  15.9151600  45.4492210
  71.4476170  16.4925420  44.4749780  70.7122920   8.2471030  40.9756940
  70.0571760   7.9782670  40.3316640  71.5500870   8.1375510  40.5258920
  71.7498850   8.6323600  45.5160280  72.1171890   8.5451000  46.3956300
  71.1809670   7.8690150  45.4167140  71.3014850   5.5432690  49.4218700
  70.4070900   5.5099450  49.7612410  71.8412400   5.7419480  50.1869950
  69.9261000   5.4569960  36.9182270  69.0225080   5.7200160  36.7433930
  70.4101620   5.7281130  36.1382230  72.4688210   4.5135500  34.8276650
  73.1779910   4.0918720  34.3423930  71.7528150   4.5810730  34.1960000
  73.1650930  13.1456290  50.6780430  73.1220560  12.7749200  51.5594890
  73.2961940  14.0833860  50.8182250  76.8656960  14.7015880  46.2790150
  76.6248320  14.9690440  45.3920670  77.8059600  14.8721610  46.3341010
  73.0038960  16.0918540  47.7978210  72.4099280  15.9603240  48.5368250
  72.9962800  15.2556680  47.3320310  72.6351190  13.4576920  46.7486250
  71.9085250  12.8382210  46.6812200  72.6960340  13.8517530  45.8784330
  76.2396290  15.6721920  43.5335660  76.7561310  15.0609280  43.0083920
  76.8893670  16.1750700  44.0246670  78.9791790  16.5630410  44.3604640
  79.2669600  16.3084710  43.4837650  79.4915010  16.0107770  44.9510210
  70.9181190  16.7751310  39.9583010  70.7503230  16.1421990  40.6564900
  70.0515700  16.9810710  39.6077200  78.0823020   2.7207360  40.4517180
  77.2697530   2.3464250  40.1113060  78.5864660   1.9652440  40.7538370
  72.5243890  15.4684540  37.4033150  71.9991510  15.8492570  36.6995110
  72.4488470  16.0935310  38.1242860  79.0464150  17.4846510  51.7272840
  79.9731460  17.2490780  51.7708800  79.0314580  18.3118510  51.2458870
  75.1236860  17.4166920  36.2782400  75.8555680  17.1326200  35.7306290
  75.3830530  17.1780200  37.1681780  74.2851650  13.5331650  36.2828730
  73.6560530  14.0016750  36.8314560  74.3999480  12.6880870  36.7174920
  79.8719410   9.3616330  24.3139200  79.0961510   8.8816770  24.6037770
  80.5232340   8.6821980  24.1395360  73.8885240   9.6736140  25.1914960
  73.0570120   9.4184850  25.5911470  74.4966220   9.7446910  25.9272880
  73.8686500  13.7076230  25.3872980  74.1714540  12.8173970  25.2083200
  74.6130090  14.2646450  25.1595230  72.2977190   4.6338030  18.9757350
  71.4093890   4.9754000  18.8737230  72.5818380   4.4338350  18.0838180
  70.2610200   7.2343680  24.8597050  70.8326310   6.4665880  24.8600690
  70.2611740   7.5332440  23.9503660  80.1190150  16.0534530  22.7142320
  79.5001590  16.5092030  22.1436760  80.9741930  16.2085990  22.3132020
  79.3128400  12.0373520  24.3209360  79.2436680  11.0963460  24.1598490
  80.0748260  12.1274930  24.8931930  71.5035070   2.6428040  26.6465980
  71.3237910   1.7453790  26.9268740  71.1015150   3.1899910  27.3212930
  80.3433570   4.8443900  24.5478290  80.7198390   3.9715780  24.4351960
  80.2453080   5.1802600  23.6568730  74.4738580   3.2169530  20.0095730
  74.5805330   4.1173260  20.3164490  73.5630940   3.1687500  19.7190380
  72.1221740   5.1388540  25.2548320  72.8031850   5.4026910  25.8735720
  71.8069790   4.2989410  25.5886330  76.3146310   6.1855900  24.3420910
  76.8224530   6.6836870  24.9825930  76.8459550   5.4091100  24.1660270
  80.9853500  10.9373770  20.1074230  80.3670770  11.4023220  19.5436950
  81.4976750  11.6301250  20.5243740  75.8485260  10.4649640  26.7857830
  75.5154640  11.0918560  27.4278900  76.0251940  10.9911520  26.0059500
  74.2797740   2.5364420  26.6154780  74.6214550   3.3806470  26.3208650
  73.3413550   2.6848160  26.7320120  75.0604360  12.4330440  28.6007010
  75.6778360  13.1081520  28.3191460  74.1997480  12.8418420  28.5094510
  70.3536700  11.6230300  17.4813860  69.9764680  12.1117400  16.7498760
  70.6109770  12.2955580  18.1120390  80.3506390   8.0895520  19.6759490
  79.4235670   8.0232900  19.9047960  80.5031210   9.0275650  19.5614730
  80.3375470   4.3612520  16.6726650  79.3979140   4.5226480  16.7579110
  80.6558730   5.0798200  16.1262640  75.9563030   8.6160260  22.4579220
  75.5520030   7.9037510  21.9625120  76.0426150   8.2713500  23.3467260
  76.4244730  12.3027820  24.6218430  76.1273020  11.6973290  23.9426210
  77.3744550  12.3405130  24.5107790  74.6691650   5.3903470  26.2378260
  75.2206240   5.4998810  25.4631510  75.1835160   5.7641070  26.9533490
  75.5163160  12.0409510  31.2726230  74.6191690  12.2649480  31.5199630
  75.5416030  12.1644450  30.3237630  74.3434380   8.9122830  29.8483600
  74.2042150   9.7845630  30.2171000  73.4615740   8.5695640  29.7031540
  80.6663760  13.8298700  21.1548730  81.1059670  14.5723030  20.7404120
  80.6050650  14.0725270  22.0787690  76.1414730  14.8544530  32.0568750
  76.1130160  15.2587480  31.1897180  75.9779700  13.9254890  31.8940350
  72.6567660   7.5105240  19.9585870  72.5365260   8.2367330  19.3467140
  72.3468550   6.7408150  19.4813780  70.2953030  10.6820380  25.7654510
  70.3733450  10.8169150  24.8210230  70.9094710   9.9736270  25.9582630
  71.5400660  12.3820570  22.1760690  71.1328740  12.5235160  21.3214290
  72.4313670  12.0980730  21.9731900  75.8122320  16.5966350  20.2883360
  75.6364800  15.6801890  20.0751160  74.9578060  16.9553640  20.5281160
  70.3512550  11.7234550  28.3048970  70.5143590  11.2539910  27.4868340
  70.8165000  11.2158110  28.9697810  79.4101130   3.7208830  28.9444860
  78.9480500   3.9291850  29.7564800  79.0079240   2.9068180  28.6415530
  74.9145540   5.9773880  21.0690790  74.6886460   5.7611050  21.9737410
  74.1338070   6.4102340  20.7236760  77.3544750   6.8759460  31.7351060
  77.2588350   5.9354190  31.5851460  78.1976730   7.0974530  31.3399130
  80.7508170   4.6200790  21.6984720  81.1437740   4.9372990  20.8853410
  81.1125020   3.7412670  21.8129240  72.4855290   3.2873130  29.8884840
  72.0918680   4.1348340  30.0957620  71.7973690   2.6499500  30.0793480
  79.0600340   3.3708100  32.9581580  78.3698660   3.1780300  33.5927670
  79.8032640   3.6542740  33.4905880  69.9742570   5.1521710  15.1317640
  69.8917240   6.0952470  15.2732630  69.6225630   5.0096620  14.2529990
  81.3363310   7.2106540  25.7935500  80.6044430   7.7193350  26.1425600
  80.9387650   6.3936520  25.4924280  77.7740700   3.8860740  24.1987990
  77.7776760   3.4450690  23.3492530  78.6691820   4.2078070  24.3059810
  73.6243080   3.7687230  23.1582200  73.2843130   4.2462460  23.9149250
  72.8620400   3.3152350  22.7983300  77.8360850   4.8872820  17.1894750
  77.9573670   4.8459300  18.1380570  77.4509360   5.7496970  17.0341480
  76.8482350   7.1973960  16.5878050  76.2799250   6.7492210  15.9613960
  77.5571350   7.5566740  16.0543200  71.9251530  11.0985980  30.4644780
  71.5406320  10.4579650  31.0627740  72.2363720  11.8022100  31.0339510
  78.0748670   7.9462520  25.9453400  78.4418800   7.4721090  26.6914740
  77.8853730   8.8204090  26.2861740  70.9389160   2.6906210  22.0746870
  70.6536080   2.3261880  22.9125490  70.8768020   1.9586670  21.4610010
  75.8648040   6.9871160  28.2637610  75.5605110   7.8663140  28.4887970
  76.8194500   7.0470950  28.2995050  74.3929830  11.1932150  18.8604460
  73.6192090  10.6529770  18.7003180  75.1224460  10.6738760  18.5222220
  80.5336610  10.2606570  30.5399850  80.4673920   9.3402240  30.2857440
  79.9041750  10.3582010  31.2544490  74.4367230  10.8612530  22.4983270
  74.9545900  10.0580790  22.4440160  73.9851250  10.7991670  23.3400100
  79.3236730  12.1278810  17.7710570  79.6652430  12.8721040  17.2753890
  78.4949440  12.4409930  18.1335400  71.9211770   7.8273900  29.4108970
  71.5626710   8.4927750  29.9982310  71.6266330   6.9957450  29.7821590
  75.1224890   8.2858140  32.2948520  74.8225030   8.4315320  31.3976340
  75.8936130   7.7263430  32.2021910  80.4653340  13.0827140  30.2903650
  80.4797880  12.1508100  30.0722560  79.7578440  13.1686900  30.9293420
  78.2927420  12.2092340  20.5426490  78.9798550  12.7561550  20.9234080
  77.5059840  12.7533070  20.5776100  70.4319820   7.8265160  16.0343570
  71.3014670   8.1089960  16.3179490  69.9410140   8.6401030  15.9192380
  77.5954630   9.2138370  20.1551850  78.0517410  10.0243620  20.3812040
  77.2442840   8.8961510  20.9870340  79.8987240  14.7244710  27.3844150
  80.5429460  14.9304090  28.0617570  80.2616680  13.9633110  26.9315000
  70.7991070  17.0392540  16.6005200  71.1588710  17.6381880  15.9462470
  70.6583410  17.5852430  17.3740230  70.7832930  15.3047400  31.0747600
  70.8924050  14.3642140  30.9342990  70.1313490  15.5702150  30.4261330
  78.7745520  13.5763290  32.4745720  78.4542390  12.8572530  33.0191410
  78.1003880  14.2518360  32.5481780  76.8159690  14.4223740  17.4178870
  76.8069790  15.1553430  16.8023380  75.8958050  14.1755320  17.5105830
  72.4166330   9.6438630  18.1625630  71.8094280  10.3837530  18.1720930
  72.8915680   9.7337990  17.3363830  79.8019290  14.4851980  16.0804060
  79.9031270  14.2815970  15.1506040  78.9021030  14.2310260  16.2851840
  77.3245180   5.0432340  20.0627960  76.6161330   5.5118680  20.5041570
  77.6089660   4.3854350  20.6973150  78.9501110   6.4629040  28.0620490
  79.4486360   6.9374860  28.7272340  79.0924060   5.5392560  28.2690520
  78.4437400  17.0038300  20.7751730  78.6978900  16.9659690  19.8531100
  77.4949880  16.8771630  20.7679980  75.5280200   3.3517420  17.4378670
  76.3770730   3.7887570  17.3718860  75.1611470   3.6637680  18.2650730
  74.4271620   9.6049780  15.9114200  75.1934890   9.4931140  16.4739630
  74.5046310   8.9087750  15.2590970  73.1218380   7.0374850  16.5947090
  73.2021970   6.0902360  16.7064490  74.0138130   7.3681730  16.7007750
  73.9233090  17.1870240  23.6981630  74.6595570  16.6385700  23.9690200
  74.3074010  18.0526250  23.5587620  70.8078570  13.2543810  19.5723140
  69.8818350  13.4964950  19.5628550  71.2735000  14.0818070  19.4507890
  72.9291370  16.3716310  32.8867210  73.7304100  16.6928360  33.3002610
  72.4143190  16.0111890  33.6087120  77.0335400  16.3600550  15.5207200
  77.8264010  16.6489380  15.0688990  76.5139750  15.9292720  14.8419680
  70.6489180   8.8589770  31.8303260  71.1528200   8.2797050  32.4019490
  69.9096600   9.1430000  32.3679630  77.5512800  11.5803960  15.3849550
  77.4463440  10.9656310  16.1110930  77.3837020  11.0569850  14.6012560
  77.7027120  10.2660760  31.3638780  76.9372790  10.8345760  31.2793450
  77.8843080   9.9736970  30.4707010  80.7915530  10.6423990  15.9891540
  80.2425630  11.0893290  16.6334280  81.4134790  10.1373240  16.5129210
  72.6812260   7.0019360  32.7253330  72.7217600   6.7033230  33.6338560
  73.5357760   7.4026970  32.5660850  76.4590650   9.6014910  17.8856840
  76.8807070   9.4354780  18.7288230  76.5841490   8.7915140  17.3911980
  74.6218070   5.5811460  30.6927820  74.0914530   5.0902410  30.0651160
  75.2906140   6.0095660  30.1585750  78.9718290   8.6252520  15.1333940
  79.4923950   7.9101540  14.7675090  79.6186690   9.2638390  15.4334450
  75.1090370   2.5473830  30.7725110  75.0147240   1.9294580  30.0475980
  74.5287760   3.2740120  30.5455020  78.2811360  10.0001400  28.4264940
  78.6999470  10.8434130  28.2541180  77.3619990  10.1373440  28.1971720
  80.6175260   7.7317580  29.8102780  80.7371470   7.1358720  30.5497620
  81.4769260   7.7687270  29.3904080  75.3549550   5.6748140  14.8315000
  75.1538610   4.8115500  15.1928340  75.1841600   5.5881500  13.8936600
  76.1318780  16.3054410  29.5422670  75.5939870  17.0300470  29.2231370
  76.3852740  15.8284750  28.7520010  77.3844030   4.2738930  31.0678600
  77.9743720   3.9654780  31.7556420  76.5664270   3.8018680  31.2238500
  74.1532350   2.7748760  14.8192880  74.4558250   2.7816190  13.9112030
  74.8926940   2.4246620  15.3160540  78.9880990  17.5405620  29.8009320
  78.9139690  18.4440760  30.1081690  78.0859830  17.2217520  29.7731390
  79.5366320  16.7064130  17.4235680  80.4317110  17.0449100  17.4454440
  79.5683950  15.9843540  16.7959960  73.1762480  12.0791180  15.6522680
  73.6137350  12.6220850  16.3080260  73.6610210  11.2538130  15.6619020
  70.3908280  14.8680210  23.1042940  70.7211290  14.0001270  22.8721580
  70.8199280  15.0738730  23.9347900  74.9870200  13.1989220  20.7644910
  74.6865740  13.0754190  21.6648820  74.8807690  12.3397810  20.3560640
  70.8798490  15.7350800  25.8424570  70.4429480  15.9151600  26.6748720
  71.4476170  16.4925420  25.7006290  70.7122920   8.2471030  22.2013450
  70.0571760   7.9782670  21.5573150  71.5500870   8.1375510  21.7515430
  71.7498850   8.6323600  26.7416790  72.1171890   8.5451000  27.6212810
  71.1809670   7.8690150  26.6423650  71.3014850   5.5432690  30.6475210
  70.4070900   5.5099450  30.9868920  71.8412400   5.7419480  31.4126460
  69.9261000   5.4569960  18.1438780  69.0225080   5.7200160  17.9690440
  70.4101620   5.7281130  17.3638740  72.4688210   4.5135500  16.0533160
  73.1779910   4.0918720  15.5680440  71.7528150   4.5810730  15.4216510
  73.1650930  13.1456290  31.9036940  73.1220560  12.7749200  32.7851400
  73.2961940  14.0833860  32.0438760  76.8656960  14.7015880  27.5046660
  76.6248320  14.9690440  26.6177180  77.8059600  14.8721610  27.5597520
  73.0038960  16.0918540  29.0234720  72.4099280  15.9603240  29.7624760
  72.9962800  15.2556680  28.5576820  72.6351190  13.4576920  27.9742760
  71.9085250  12.8382210  27.9068710  72.6960340  13.8517530  27.1040840
  76.2396290  15.6721920  24.7592170  76.7561310  15.0609280  24.2340430
  76.8893670  16.1750700  25.2503180  78.9791790  16.5630410  25.5861150
  79.2669600  16.3084710  24.7094160  79.4915010  16.0107770  26.1766720
  70.9181190  16.7751310  21.1839520  70.7503230  16.1421990  21.8821410
  70.0515700  16.9810710  20.8333710  78.0823020   2.7207360  21.6773690
  77.2697530   2.3464250  21.3369570  78.5864660   1.9652440  21.9794880
  72.5243890  15.4684540  18.6289660  71.9991510  15.8492570  17.9251620
  72.4488470  16.0935310  19.3499370  79.0464150  17.4846510  32.9529350
  79.9731460  17.2490780  32.9965310  79.0314580  18.3118510  32.4715380
  75.1236860  17.4166920  17.5038910  75.8555680  17.1326200  16.9562800
  75.3830530  17.1780200  18.3938290  74.2851650  13.5331650  17.5085240
  73.6560530  14.0016750  18.0571070  74.3999480  12.6880870  17.9431430
  79.8719410   9.3616330   5.5395710  79.0961510   8.8816770   5.8294280
  80.5232340   8.6821980   5.3651870  73.8885240   9.6736140   6.4171470
  73.0570120   9.4184850   6.8167980  74.4966220   9.7446910   7.1529390
  73.8686500  13.7076230   6.6129490  74.1714540  12.8173970   6.4339710
  74.6130090  14.2646450   6.3851740  70.2610200   7.2343680   6.0853560
  70.8326310   6.4665880   6.0857200  70.2611740   7.5332440   5.1760170
  80.1190150  16.0534530   3.9398830  79.5001590  16.5092030   3.3693270
  80.9741930  16.2085990   3.5388530  79.3128400  12.0373520   5.5465870
  79.2436680  11.0963460   5.3855000  80.0748260  12.1274930   6.1188440
  71.5035070   2.6428040   7.8722490  71.3237910   1.7453790   8.1525250
  71.1015150   3.1899910   8.5469440  80.3433570   4.8443900   5.7734800
  80.7198390   3.9715780   5.6608470  80.2453080   5.1802600   4.8825240
  72.1221740   5.1388540   6.4804830  72.8031850   5.4026910   7.0992230
  71.8069790   4.2989410   6.8142840  76.3146310   6.1855900   5.5677420
  76.8224530   6.6836870   6.2082440  76.8459550   5.4091100   5.3916780
  75.8485260  10.4649640   8.0114340  75.5154640  11.0918560   8.6535410
  76.0251940  10.9911520   7.2316010  74.2797740   2.5364420   7.8411290
  74.6214550   3.3806470   7.5465160  73.3413550   2.6848160   7.9576630
  75.0604360  12.4330440   9.8263520  75.6778360  13.1081520   9.5447970
  74.1997480  12.8418420   9.7351020  75.9563030   8.6160260   3.6835730
  75.5520030   7.9037510   3.1881630  76.0426150   8.2713500   4.5723770
  76.4244730  12.3027820   5.8474940  76.1273020  11.6973290   5.1682720
  77.3744550  12.3405130   5.7364300  74.6691650   5.3903470   7.4634770
  75.2206240   5.4998810   6.6888020  75.1835160   5.7641070   8.1790000
  75.5163160  12.0409510  12.4982740  74.6191690  12.2649480  12.7456140
  75.5416030  12.1644450  11.5494140  74.3434380   8.9122830  11.0740110
  74.2042150   9.7845630  11.4427510  73.4615740   8.5695640  10.9288050
  80.6663760  13.8298700   2.3805240  81.1059670  14.5723030   1.9660630
  80.6050650  14.0725270   3.3044200  76.1414730  14.8544530  13.2825260
  76.1130160  15.2587480  12.4153690  75.9779700  13.9254890  13.1196860
  70.2953030  10.6820380   6.9911020  70.3733450  10.8169150   6.0466740
  70.9094710   9.9736270   7.1839140  71.5400660  12.3820570   3.4017200
  71.1328740  12.5235160   2.5470800  72.4313670  12.0980730   3.1988410
  70.3512550  11.7234550   9.5305480  70.5143590  11.2539910   8.7124850
  70.8165000  11.2158110  10.1954320  79.4101130   3.7208830  10.1701370
  78.9480500   3.9291850  10.9821310  79.0079240   2.9068180   9.8672040
  74.9145540   5.9773880   2.2947300  74.6886460   5.7611050   3.1993920
  74.1338070   6.4102340   1.9493270  77.3544750   6.8759460  12.9607570
  77.2588350   5.9354190  12.8107970  78.1976730   7.0974530  12.5655640
  80.7508170   4.6200790   2.9241230  81.1437740   4.9372990   2.1109920
  81.1125020   3.7412670   3.0385750  72.4855290   3.2873130  11.1141350
  72.0918680   4.1348340  11.3214130  71.7973690   2.6499500  11.3049990
  79.0600340   3.3708100  14.1838090  78.3698660   3.1780300  14.8184180
  79.8032640   3.6542740  14.7162390  81.3363310   7.2106540   7.0192010
  80.6044430   7.7193350   7.3682110  80.9387650   6.3936520   6.7180790
  77.7740700   3.8860740   5.4244500  77.7776760   3.4450690   4.5749040
  78.6691820   4.2078070   5.5316320  73.6243080   3.7687230   4.3838710
  73.2843130   4.2462460   5.1405760  72.8620400   3.3152350   4.0239810
  71.9251530  11.0985980  11.6901290  71.5406320  10.4579650  12.2884250
  72.2363720  11.8022100  12.2596020  78.0748670   7.9462520   7.1709910
  78.4418800   7.4721090   7.9171250  77.8853730   8.8204090   7.5118250
  70.9389160   2.6906210   3.3003380  70.6536080   2.3261880   4.1382000
  70.8768020   1.9586670   2.6866520  75.8648040   6.9871160   9.4894120
  75.5605110   7.8663140   9.7144480  76.8194500   7.0470950   9.5251560
  80.5336610  10.2606570  11.7656360  80.4673920   9.3402240  11.5113950
  79.9041750  10.3582010  12.4801000  74.4367230  10.8612530   3.7239780
  74.9545900  10.0580790   3.6696670  73.9851250  10.7991670   4.5656610
  71.9211770   7.8273900  10.6365480  71.5626710   8.4927750  11.2238820
  71.6266330   6.9957450  11.0078100  75.1224890   8.2858140  13.5205030
  74.8225030   8.4315320  12.6232850  75.8936130   7.7263430  13.4278420
  80.4653340  13.0827140  11.5160160  80.4797880  12.1508100  11.2979070
  79.7578440  13.1686900  12.1549930  78.2927420  12.2092340   1.7683000
  78.9798550  12.7561550   2.1490590  77.5059840  12.7533070   1.8032610
  79.8987240  14.7244710   8.6100660  80.5429460  14.9304090   9.2874080
  80.2616680  13.9633110   8.1571510  70.7832930  15.3047400  12.3004110
  70.8924050  14.3642140  12.1599500  70.1313490  15.5702150  11.6517840
  78.7745520  13.5763290  13.7002230  78.4542390  12.8572530  14.2447920
  78.1003880  14.2518360  13.7738290  78.9501110   6.4629040   9.2877000
  79.4486360   6.9374860   9.9528850  79.0924060   5.5392560   9.4947030
  73.9233090  17.1870240   4.9238140  74.6595570  16.6385700   5.1946710
  74.3074010  18.0526250   4.7844130  72.9291370  16.3716310  14.1123720
  73.7304100  16.6928360  14.5259120  72.4143190  16.0111890  14.8343630
  70.6489180   8.8589770  13.0559770  71.1528200   8.2797050  13.6276000
  69.9096600   9.1430000  13.5936140  77.7027120  10.2660760  12.5895290
  76.9372790  10.8345760  12.5049960  77.8843080   9.9736970  11.6963520
  72.6812260   7.0019360  13.9509840  72.7217600   6.7033230  14.8595070
  73.5357760   7.4026970  13.7917360  74.6218070   5.5811460  11.9184330
  74.0914530   5.0902410  11.2907670  75.2906140   6.0095660  11.3842260
  75.1090370   2.5473830  11.9981620  75.0147240   1.9294580  11.2732490
  74.5287760   3.2740120  11.7711530  78.2811360  10.0001400   9.6521450
  78.6999470  10.8434130   9.4797690  77.3619990  10.1373440   9.4228230
  80.6175260   7.7317580  11.0359290  80.7371470   7.1358720  11.7754130
  81.4769260   7.7687270  10.6160590  76.1318780  16.3054410  10.7679180
  75.5939870  17.0300470  10.4487880  76.3852740  15.8284750   9.9776520
  77.3844030   4.2738930  12.2935110  77.9743720   3.9654780  12.9812930
  76.5664270   3.8018680  12.4495010  78.9880990  17.5405620  11.0265830
  78.9139690  18.4440760  11.3338200  78.0859830  17.2217520  10.9987900
  70.3908280  14.8680210   4.3299450  70.7211290  14.0001270   4.0978090
  70.8199280  15.0738730   5.1604410  70.8798490  15.7350800   7.0681080
  70.4429480  15.9151600   7.9005230  71.4476170  16.4925420   6.9262800
  70.7122920   8.2471030   3.4269960  70.0571760   7.9782670   2.7829660
  71.5500870   8.1375510   2.9771940  71.7498850   8.6323600   7.9673300
  72.1171890   8.5451000   8.8469320  71.1809670   7.8690150   7.8680160
  71.3014850   5.5432690  11.8731720  70.4070900   5.5099450  12.2125430
  71.8412400   5.7419480  12.6382970  73.1650930  13.1456290  13.1293450
  73.1220560  12.7749200  14.0107910  73.2961940  14.0833860  13.2695270
  76.8656960  14.7015880   8.7303170  76.6248320  14.9690440   7.8433690
  77.8059600  14.8721610   8.7854030  73.0038960  16.0918540  10.2491230
  72.4099280  15.9603240  10.9881270  72.9962800  15.2556680   9.7833330
  72.6351190  13.4576920   9.1999270  71.9085250  12.8382210   9.1325220
  72.6960340  13.8517530   8.3297350  76.2396290  15.6721920   5.9848680
  76.7561310  15.0609280   5.4596940  76.8893670  16.1750700   6.4759690
  78.9791790  16.5630410   6.8117660  79.2669600  16.3084710   5.9350670
  79.4915010  16.0107770   7.4023230  70.9181190  16.7751310   2.4096030
  70.7503230  16.1421990   3.1077920  70.0515700  16.9810710   2.0590220
  78.0823020   2.7207360   2.9030200  77.2697530   2.3464250   2.5626080
  78.5864660   1.9652440   3.2051390  79.0464150  17.4846510  14.1785860
  79.9731460  17.2490780  14.2221820  79.0314580  18.3118510  13.6971890
  62.9657880  63.9067780  59.9816910  62.8851930  62.9922390  59.7108620
  62.5522300  64.4034850  59.2756620  61.0975920  65.6846800  61.8626180
  60.3218020  65.2047240  62.1524750  61.7488850  65.0052450  61.6882340
  55.1141750  65.9966610  62.7401940  54.2826630  65.7415320  63.1398450
  55.7222730  66.0677380  63.4759860  65.1183350  70.0906990  60.6425310
  64.6564880  69.3194230  60.9712480  65.9308900  70.1173060  61.1477760
  55.0943010  70.0306700  62.9359960  55.3971050  69.1404440  62.7570180
  55.8386600  70.5876920  62.7082210  53.5233700  60.9568500  56.5244330
  52.6350400  61.2984470  56.4224210  53.8074890  60.7568820  55.6325160
  51.4866710  63.5574150  62.4084030  52.0582820  62.7896350  62.4087670
  51.4868250  63.8562910  61.4990640  60.5384910  68.3603990  61.8696340
  60.4693190  67.4193930  61.7085470  61.3004770  68.4505400  62.4418910
  52.7291580  58.9658510  64.1952960  52.5494420  58.0684260  64.4755720
  52.3271660  59.5130380  64.8699910  61.5690080  61.1674370  62.0965270
  61.9454900  60.2946250  61.9838940  61.4709590  61.5033070  61.2055710
  55.6995090  59.5400000  57.5582710  55.8061840  60.4403730  57.8651470
  54.7887450  59.4917970  57.2677360  65.3514200  58.6624810  59.0293610
  66.1723820  58.1721380  59.0719090  65.3848280  59.2522470  59.7825450
  53.3478250  61.4619010  62.8035300  54.0288360  61.7257380  63.4222700
  53.0326300  60.6219880  63.1373310  57.5402820  62.5086370  61.8907890
  58.0481040  63.0067340  62.5312910  58.0716060  61.7321570  61.7147250
  62.2110010  67.2604240  57.6561210  61.5927280  67.7253690  57.0923930
  62.7233260  67.9531720  58.0730720  57.0741770  66.7880110  64.3344810
  56.7411150  67.4149030  64.9765880  57.2508450  67.3141990  63.5546480
  65.5875680  60.6025190  61.8021150  64.8831250  60.8910080  62.3824260
  65.9487840  61.4125300  61.4420710  55.5054250  58.8594890  64.1641760
  55.8471060  59.7036940  63.8695630  54.5670060  59.0078630  64.2807100
  51.5793210  67.9460770  55.0300840  51.2021190  68.4347870  54.2985740
  51.8366280  68.6186050  55.6607370  67.2038460  70.2200320  64.0648630
  66.5201980  70.8899430  64.0565300  67.7432750  70.4180970  63.2993490
  68.6562600  60.0479980  62.1930360  67.7087510  60.0818960  62.3245790
  68.9812590  60.8618930  62.5779720  59.1882140  56.3477160  60.4886350
  59.4957120  55.7924050  59.7721850  58.2582840  56.4821620  60.3059340
  66.0342620  68.7860670  57.8683980  65.9238950  67.8435000  57.9933400
  66.0310870  69.1476310  58.7546740  64.1382640  66.9674290  64.1076420
  64.5551430  66.7534400  63.2729880  64.8622460  67.2247080  64.6785040
  61.5762900  64.4125990  57.2246470  60.6492180  64.3463370  57.4534940
  61.7287720  65.3506120  57.1101710  61.5631980  60.6842990  54.2213630
  60.6235650  60.8456950  54.3066090  61.8815240  61.4028670  53.6749620
  68.0844740  65.3661510  64.1992660  67.2563370  65.4354600  63.7242790
  68.6795220  65.9515820  63.7308490  65.6060190  65.9746290  57.7281720
  64.9872610  65.6365840  57.0808020  65.5884640  65.3306050  58.4360910
  57.1819540  64.9390730  60.0066200  56.7776540  64.2267980  59.5112100
  57.2682660  64.5943970  60.8954240  57.6501240  68.6258290  62.1705410
  57.3529530  68.0203760  61.4913190  58.6001060  68.6635600  62.0594770
  55.8948160  61.7133940  63.7865240  56.4462750  61.8229280  63.0118490
  56.4091670  62.0871540  64.5020470  63.7824890  65.2133100  54.7354470
  64.2218170  64.3755530  54.5892290  64.4953310  65.8462500  54.8218610
  61.8920270  70.1529170  58.7035710  62.3316180  70.8953500  58.2891100
  61.8307160  70.3955740  59.6274670  67.3642030  56.4675910  53.0495510
  67.0514690  56.5602740  53.9494580  68.1254500  57.0456940  52.9992940
  53.8824170  63.8335710  57.5072850  53.7621770  64.5597800  56.8954120
  53.5725060  63.0638620  57.0300760  51.5209540  67.0050850  63.3141490
  51.5989960  67.1399620  62.3697210  52.1351220  66.2966740  63.5069610
  52.7657170  68.7051040  59.7247670  52.3585250  68.8465630  58.8701270
  53.6570180  68.4211200  59.5218880  64.2616580  70.6485850  54.6196720
  63.5681740  70.6463140  53.9599000  65.0039440  70.2245170  54.1890890
  56.3487830  57.1770780  60.8896520  55.9055980  57.9580320  60.5581040
  56.9072820  57.5000670  61.5967460  59.4646650  56.7981480  55.7702350
  58.8400830  56.7941350  56.4955660  59.3776770  55.9312440  55.3738320
  58.3863730  57.7218110  62.7486120  58.6836060  58.6280940  62.6678140
  58.9349290  57.2336890  62.1345690  56.1402050  62.3004350  58.6177770
  55.9142970  62.0841520  59.5224390  55.3594580  62.7332810  58.2723740
  63.3699810  62.3067720  57.2168420  62.7708700  63.0303520  57.0332040
  63.9179420  62.2444500  56.4344870  61.9764680  60.9431260  59.2471700
  62.3694250  61.2603460  58.4340390  62.3381530  60.0643140  59.3616220
  51.0128850  57.5332060  61.4701900  50.7241900  58.1034920  62.1826880
  51.7574610  57.0536510  61.8333130  51.1999080  61.4752180  52.6804620
  51.1173750  62.4182940  52.8219610  50.8482140  61.3327090  51.8016970
  62.5619820  63.5337010  63.3422480  61.8300940  64.0423820  63.6912580
  62.1644160  62.7166990  63.0411260  58.9997210  60.2091210  61.7474970
  59.0033270  59.7681160  60.8979510  59.8948330  60.5308540  61.8546790
  54.8499590  60.0917700  60.7069180  54.5099640  60.5692930  61.4636230
  54.0876910  59.6382820  60.3470280  59.0617360  61.2103290  54.7381730
  59.1830180  61.1689770  55.6867550  58.6765870  62.0727440  54.5828460
  63.0245730  58.9870690  62.7545420  63.0418470  59.4379340  63.5987270
  62.7761310  58.0876330  62.9678860  58.0738860  63.5204430  54.1365030
  57.5055760  63.0722680  53.5100940  58.7827860  63.8797210  53.6030180
  59.3005180  64.2692990  63.4940380  59.6675310  63.7951560  64.2401720
  59.1110240  65.1434560  63.8348720  52.1645670  59.0136680  59.6233850
  51.8792590  58.6492350  60.4612470  52.1024530  58.2817140  59.0096990
  55.6186340  67.5162620  56.4091440  54.8448600  66.9760240  56.2490160
  56.3480970  66.9969230  56.0709200  66.3774320  66.5127980  62.2017830
  67.0973440  67.0083270  61.8113940  66.1756140  65.8345870  61.5571700
  61.8384260  57.9065940  56.3447220  61.0248870  57.4079110  56.2692530
  61.6446210  58.7464190  55.9283570  64.5532650  62.2785590  54.6409380
  65.4412270  62.5902820  54.4660720  64.5237740  61.4057840  54.2489960
  55.6623740  67.1843000  60.0470250  56.1802410  66.3811260  59.9927140
  55.2107760  67.1222140  60.8887080  60.5493240  68.4509280  55.3197550
  60.8908940  69.1951510  54.8240870  59.7205950  68.7640400  55.6822380
  66.8246920  63.5897430  54.1089240  66.7410640  64.0211650  53.2585680
  67.5441110  64.0495780  54.5416060  67.8534170  70.4439690  56.8371370
  67.2110330  69.7895310  57.1115090  67.4664830  70.8494780  56.0612040
  63.4320650  67.7725120  60.6843060  63.7844470  67.1753250  60.0244430
  62.5482980  67.4469350  60.8551310  59.5183930  68.5322810  58.0913470
  60.2055060  69.0792020  58.4721060  58.7316350  69.0763540  58.1263080
  51.6576330  64.1495630  53.5830550  52.5271180  64.4320430  53.8666470
  51.1666650  64.9631500  53.4679360  58.8211140  65.5368840  57.7038830
  59.2773920  66.3474090  57.9299020  58.4699350  65.2191980  58.5357320
  54.7222920  55.8806490  58.1761350  54.5937550  55.8724390  59.1246270
  53.8984940  56.2189580  57.8252360  62.3975830  69.0507530  63.6508580
  63.0398060  68.3500690  63.7640750  62.9225180  69.8305970  63.4705470
  66.2431550  69.3356150  53.3747720  66.0169130  68.6186590  53.9672360
  65.8527750  69.0868590  52.5369470  65.8247800  67.2528090  55.0361880
  65.5369500  67.7140780  55.8239760  66.6199970  66.7925860  55.3046100
  58.0416200  70.7454210  54.9665850  58.0326300  71.4783900  54.3510360
  57.1214560  70.4985790  55.0592810  53.6422840  65.9669100  55.7112610
  53.0350790  66.7068000  55.7207910  54.1172190  66.0568460  54.8850810
  66.5817660  59.0876860  56.1957060  65.9530820  59.1922530  55.4815290
  66.0869580  59.3073640  56.9850940  61.0275800  70.8082450  53.6291040
  61.1287780  70.6046440  52.6993020  60.1277540  70.5540730  53.8338820
  58.5501690  61.3662810  57.6114940  57.8417840  61.8349150  58.0528550
  58.8346170  60.7084820  58.2460130  62.5817120  58.0913470  59.0510730
  62.4584900  58.1099600  58.1020240  63.5301680  58.1392410  59.1709130
  56.7536710  59.6747890  54.9865650  57.6027240  60.1118040  54.9205840
  56.3867980  59.9868150  55.8137710  65.6746490  64.2460650  59.8997220
  64.7336630  64.2610880  60.0744910  65.9890560  63.4596610  60.3457520
  55.6528130  65.9280250  53.4601180  56.4191400  65.8161610  54.0226610
  55.7302820  65.2318220  52.8077950  54.3474890  63.3605320  54.1434070
  54.4278480  62.4132830  54.2551470  55.2394640  63.6912200  54.2494730
  52.0335080  69.5774280  57.1210120  51.1074860  69.8195420  57.1115530
  52.4991510  70.4048540  56.9994870  58.7769310  67.9034430  52.9336530
  58.6719950  67.2886780  53.6597910  58.6093530  67.3800320  52.1499540
  62.0172040  66.9654460  53.5378520  61.4682140  67.4123760  54.1821260
  62.6391300  66.4603710  54.0616190  57.6847160  65.9245380  55.4343820
  58.1063580  65.7585250  56.2775210  57.8098000  65.1145610  54.9398960
  60.1974800  64.9482990  52.6820920  60.7180460  64.2332010  52.3162070
  60.8443200  65.5868860  52.9821430  56.5806060  61.9978610  52.3801980
  56.3795120  61.1345970  52.7415320  56.4098110  61.9111970  51.4423580
  64.0594370  56.8086840  54.9088860  64.3396660  55.9654740  55.2648280
  63.2860100  57.0409950  55.4227610  55.3788860  59.0979230  52.3679860
  55.6814760  59.1046660  51.4599010  56.1183450  58.7477090  52.8647520
  58.5973790  58.0413850  53.3536060  58.2495790  57.3637840  52.7738510
  58.7986560  57.5803360  54.1679450  54.4018990  68.4021650  53.2009660
  54.8393860  68.9451320  53.8567240  54.8866720  67.5768600  53.2106000
  51.6164790  71.1910680  60.6529920  51.9467800  70.3231740  60.4208560
  52.0455790  71.3969200  61.4834880  56.2126710  69.5219690  58.3131890
  55.9122250  69.3984660  59.2135800  56.1064200  68.6628280  57.9047620
  68.9818630  69.3016090  53.0158570  68.1511590  69.3692740  53.4865800
  69.1590460  70.1920210  52.7125430  68.4375090  66.0463570  55.5192770
  69.1994000  66.6160220  55.6252460  68.4529460  65.4790770  56.2901080
  51.9379430  64.5701500  59.7500430  51.2828270  64.3013140  59.1060130
  52.7757380  64.4605980  59.3002410  69.4435060  66.9013670  60.3634700
  69.8143890  66.1180990  59.9570670  70.0836990  67.5902770  60.1852000
  68.4894260  66.3397940  52.6765290  68.7643100  67.2476820  52.5484510
  68.3005000  66.2760470  53.6127280  64.8869870  59.3642790  53.9718920
  65.3054750  59.1773770  53.1315580  64.5805930  58.5121840  54.2821850
  68.3859600  64.2766930  57.6694720  68.0103200  63.5094860  57.2376010
  67.6562720  64.6589630  58.1569650  52.9755360  64.9554070  64.2903770
  53.3428400  64.8681470  65.1699790  52.4066180  64.1920620  64.1910630
  51.1517510  61.7800430  55.6925760  50.2481590  62.0430630  55.5177420
  51.6358130  62.0511600  54.9125720  67.6610560  62.5024420  60.9701960
  68.1848040  62.0087070  60.3392130  68.2469980  62.6374780  61.7149530
  67.8400280  62.5864290  64.4921510  66.8902990  62.5527830  64.6066500
  68.0213290  63.4964400  64.2571280  53.6944720  60.8365970  53.6020140
  54.4036420  60.4149190  53.1167420  52.9784660  60.9041200  52.9703490
  53.3418880  56.8905300  52.6422790  54.0647010  57.4314240  52.9604010
  53.6143400  56.6168720  51.7664330  67.1510530  61.7597770  56.9094370
  67.6469650  61.5268640  57.6943250  66.9526600  60.9209610  56.4932010
  53.0311070  56.1411490  62.5445410  53.6787260  55.5908870  62.1040570
  53.4512910  56.3954640  63.3661220  68.5797690  60.3958720  59.4432050
  68.4696970  60.2414760  60.3814320  69.3405280  59.8679660  59.2007460
  69.4687960  58.2266640  52.6838190  70.3937270  58.0947820  52.4756480
  69.4463750  58.3059460  53.6374640  69.5426450  58.9977300  55.3094900
  68.7477950  58.9322420  55.8387810  69.7469730  59.9327940  55.2980250
  58.0913470  71.0246350  65.0533640  57.8504830  71.2920910  64.1664160
  59.0316110  71.1952080  65.1084500  61.4225310  56.6251080  63.7144640
  60.6397100  57.0996580  63.9941400  61.1288240  55.7205910  63.6057820
  65.9746380  57.3274180  61.7593730  66.4154470  57.2719280  60.9115330
  65.7053970  58.2432190  61.8303910  67.8384950  56.9589420  59.7702550
  67.7773350  56.0150640  59.6233570  68.6176980  57.0669510  60.3156010
  52.7665720  56.9298560  56.2358360  53.5245080  57.0427440  55.6622390
  52.3042890  57.7667760  56.1901790  59.3079530  59.0437830  59.2260670
  58.4954040  58.6694720  58.8856550  59.8121170  58.2882910  59.5281860
  63.8104510  55.7080280  60.4643740  64.4133880  56.2800490  60.9392260
  63.0697500  56.2719720  60.2417640  66.9539110  56.1101840  55.7384020
  67.1489740  57.0085290  56.0051450  66.1668980  55.8788920  56.2316970
  55.1390870  57.4562610  54.7760330  55.6683630  56.6692410  54.6468280
  55.7719190  58.1353800  55.0095860  57.3328710  57.1937750  57.8305720
  56.7031450  56.4925060  57.9975850  56.7933850  57.9541880  57.6138880
  55.5108160  69.8562120  55.0572220  54.8817040  70.3247220  55.6058050
  55.6255990  69.0111340  55.4918410  62.9657880  63.9067780  41.2073420
  62.8851930  62.9922390  40.9365130  62.5522300  64.4034850  40.5013130
  61.0975920  65.6846800  43.0882690  60.3218020  65.2047240  43.3781260
  61.7488850  65.0052450  42.9138850  55.1141750  65.9966610  43.9658450
  54.2826630  65.7415320  44.3654960  55.7222730  66.0677380  44.7016370
  65.1183350  70.0906990  41.8681820  64.6564880  69.3194230  42.1968990
  65.9308900  70.1173060  42.3734270  55.0943010  70.0306700  44.1616470
  55.3971050  69.1404440  43.9826690  55.8386600  70.5876920  43.9338720
  53.5233700  60.9568500  37.7500840  52.6350400  61.2984470  37.6480720
  53.8074890  60.7568820  36.8581670  51.4866710  63.5574150  43.6340540
  52.0582820  62.7896350  43.6344180  51.4868250  63.8562910  42.7247150
  60.5384910  68.3603990  43.0952850  60.4693190  67.4193930  42.9341980
  61.3004770  68.4505400  43.6675420  52.7291580  58.9658510  45.4209470
  52.5494420  58.0684260  45.7012230  52.3271660  59.5130380  46.0956420
  61.5690080  61.1674370  43.3221780  61.9454900  60.2946250  43.2095450
  61.4709590  61.5033070  42.4312220  55.6995090  59.5400000  38.7839220
  55.8061840  60.4403730  39.0907980  54.7887450  59.4917970  38.4933870
  65.3514200  58.6624810  40.2550120  66.1723820  58.1721380  40.2975600
  65.3848280  59.2522470  41.0081960  53.3478250  61.4619010  44.0291810
  54.0288360  61.7257380  44.6479210  53.0326300  60.6219880  44.3629820
  57.5402820  62.5086370  43.1164400  58.0481040  63.0067340  43.7569420
  58.0716060  61.7321570  42.9403760  69.6413750  60.6791560  46.8193750
  68.9365920  61.0673270  46.3008860  69.9071670  61.3741850  47.4214680
  55.8238920  57.1484930  47.3827820  55.8257360  57.6657320  46.5773720
  54.9943230  56.6715110  47.3597750  62.2110010  67.2604240  38.8817720
  61.5927280  67.7253690  38.3180440  62.7233260  67.9531720  39.2987230
  57.0741770  66.7880110  45.5601320  56.7411150  67.4149030  46.2022390
  57.2508450  67.3141990  44.7802990  65.5875680  60.6025190  43.0277660
  64.8831250  60.8910080  43.6080770  65.9487840  61.4125300  42.6677220
  55.5054250  58.8594890  45.3898270  55.8471060  59.7036940  45.0952140
  54.5670060  59.0078630  45.5063610  56.2860870  68.7560910  47.3750500
  56.9034870  69.4311990  47.0934950  55.4253990  69.1648890  47.2838000
  51.5793210  67.9460770  36.2557350  51.2021190  68.4347870  35.5242250
  51.8366280  68.6186050  36.8863880  67.2038460  70.2200320  45.2905140
  66.5201980  70.8899430  45.2821810  67.7432750  70.4180970  44.5250000
  68.6562600  60.0479980  43.4186870  67.7087510  60.0818960  43.5502300
  68.9812590  60.8618930  43.8036230  59.1882140  56.3477160  41.7142860
  59.4957120  55.7924050  40.9978360  58.2582840  56.4821620  41.5315850
  66.0342620  68.7860670  39.0940490  65.9238950  67.8435000  39.2189910
  66.0310870  69.1476310  39.9803250  64.1382640  66.9674290  45.3332930
  64.5551430  66.7534400  44.4986390  64.8622460  67.2247080  45.9041550
  61.5762900  64.4125990  38.4502980  60.6492180  64.3463370  38.6791450
  61.7287720  65.3506120  38.3358220  61.5631980  60.6842990  35.4470140
  60.6235650  60.8456950  35.5322600  61.8815240  61.4028670  34.9006130
  68.0844740  65.3661510  45.4249170  67.2563370  65.4354600  44.9499300
  68.6795220  65.9515820  44.9565000  65.6060190  65.9746290  38.9538230
  64.9872610  65.6365840  38.3064530  65.5884640  65.3306050  39.6617420
  65.0486750  62.1530830  46.3704040  64.6357930  62.9784540  46.6244030
  64.3162700  61.5675870  46.1780400  57.1819540  64.9390730  41.2322710
  56.7776540  64.2267980  40.7368610  57.2682660  64.5943970  42.1210750
  57.6501240  68.6258290  43.3961920  57.3529530  68.0203760  42.7169700
  58.6001060  68.6635600  43.2851280  55.8948160  61.7133940  45.0121750
  56.4462750  61.8229280  44.2375000  56.4091670  62.0871540  45.7276980
  56.7419670  68.3639980  50.0469720  55.8448200  68.5879950  50.2943120
  56.7672540  68.4874920  49.0981120  63.7824890  65.2133100  35.9610980
  64.2218170  64.3755530  35.8148800  64.4953310  65.8462500  36.0475120
  55.5690890  65.2353300  48.6227090  55.4298660  66.1076100  48.9914490
  54.6872250  64.8926110  48.4775030  61.8920270  70.1529170  39.9292220
  62.3316180  70.8953500  39.5147610  61.8307160  70.3955740  40.8531180
  57.3671240  71.1775000  50.8312240  57.3386670  71.5817950  49.9640670
  57.2036210  70.2485360  50.6683840  67.3642030  56.4675910  34.2752020
  67.0514690  56.5602740  35.1751090  68.1254500  57.0456940  34.2249450
  53.8824170  63.8335710  38.7329360  53.7621770  64.5597800  38.1210630
  53.5725060  63.0638620  38.2557270  51.5209540  67.0050850  44.5398000
  51.5989960  67.1399620  43.5953720  52.1351220  66.2966740  44.7326120
  52.7657170  68.7051040  40.9504180  52.3585250  68.8465630  40.0957780
  53.6570180  68.4211200  40.7475390  68.7219310  69.1514950  49.2876420
  68.8482370  68.9126830  48.3693600  68.7640690  68.3199490  49.7598500
  64.2616580  70.6485850  35.8453230  63.5681740  70.6463140  35.1855510
  65.0039440  70.2245170  35.4147400  68.5743320  61.2047410  50.2526160
  67.9587590  61.7127080  49.7241620  68.2539740  60.3045740  50.1952100
  51.5769060  68.0465020  47.0792460  51.7400100  67.5770380  46.2611830
  52.0421510  67.5388580  47.7441300  56.3487830  57.1770780  42.1153030
  55.9055980  57.9580320  41.7837550  56.9072820  57.5000670  42.8223970
  60.6357640  60.0439300  47.7188350  60.1737010  60.2522320  48.5308290
  60.2335750  59.2298650  47.4159020  65.6362150  61.2648250  48.8485010
  64.7855740  60.9654000  49.1694080  65.4763940  61.5090260  47.9368830
  62.7311860  62.7650000  50.9483800  63.0565270  61.9313750  50.6086030
  63.5192190  63.2878520  51.0962130  59.4646650  56.7981480  36.9958860
  58.8400830  56.7941350  37.7212170  59.3776770  55.9312440  36.5994830
  58.3863730  57.7218110  43.9742630  58.6836060  58.6280940  43.8934650
  58.9349290  57.2336890  43.3602200  56.1402050  62.3004350  39.8434280
  55.9142970  62.0841520  40.7480900  55.3594580  62.7332810  39.4980250
  63.3699810  62.3067720  38.4424930  62.7708700  63.0303520  38.2588550
  63.9179420  62.2444500  37.6601380  58.5801260  63.1989930  50.5094550
  58.4844860  62.2584660  50.3594950  59.4233240  63.4205000  50.1142620
  61.9764680  60.9431260  40.4728210  62.3694250  61.2603460  39.6596900
  62.3381530  60.0643140  40.5872730  53.7111800  59.6103600  48.6628330
  53.3175190  60.4578810  48.8701110  53.0230200  58.9729970  48.8536970
  60.2856850  59.6938570  51.7325070  59.5955170  59.5010770  52.3671160
  61.0289150  59.9773210  52.2649370  51.0128850  57.5332060  42.6958410
  50.7241900  58.1034920  43.4083390  51.7574610  57.0536510  43.0589640
  51.1999080  61.4752180  33.9061130  51.1173750  62.4182940  34.0476120
  50.8482140  61.3327090  33.0273480  62.5619820  63.5337010  44.5678990
  61.8300940  64.0423820  44.9169090  62.1644160  62.7166990  44.2667770
  58.9997210  60.2091210  42.9731480  59.0033270  59.7681160  42.1236020
  59.8948330  60.5308540  43.0803300  54.8499590  60.0917700  41.9325690
  54.5099640  60.5692930  42.6892740  54.0876910  59.6382820  41.5726790
  59.0617360  61.2103290  35.9638240  59.1830180  61.1689770  36.9124060
  58.6765870  62.0727440  35.8084970  63.0245730  58.9870690  43.9801930
  63.0418470  59.4379340  44.8243780  62.7761310  58.0876330  44.1935370
  58.0738860  63.5204430  35.3621540  57.5055760  63.0722680  34.7357450
  58.7827860  63.8797210  34.8286690  66.4516480  56.4002870  49.8188310
  66.7762250  55.6692530  50.3446290  66.4872990  56.0816510  48.9169300
  53.1508040  67.4216450  49.2388270  52.7662830  66.7810120  49.8371230
  53.4620230  68.1252570  49.8083000  59.3005180  64.2692990  44.7196890
  59.6675310  63.7951560  45.4658230  59.1110240  65.1434560  45.0605230
  52.1645670  59.0136680  40.8490360  51.8792590  58.6492350  41.6868980
  52.1024530  58.2817140  40.2353500  57.0904550  63.3101630  47.0381100
  56.7861620  64.1893610  47.2631460  58.0451010  63.3701420  47.0738540
  55.6186340  67.5162620  37.6347950  54.8448600  66.9760240  37.4746670
  56.3480970  66.9969230  37.2965710  66.3774320  66.5127980  43.4274340
  67.0973440  67.0083270  43.0370450  66.1756140  65.8345870  42.7828210
  61.8384260  57.9065940  37.5703730  61.0248870  57.4079110  37.4949040
  61.6446210  58.7464190  37.1540080  61.7593120  66.5837040  49.3143340
  61.6930430  65.6632710  49.0600930  61.1298260  66.6812480  50.0287980
  64.5532650  62.2785590  35.8665890  65.4412270  62.5902820  35.6917230
  64.5237740  61.4057840  35.4746470  55.6623740  67.1843000  41.2726760
  56.1802410  66.3811260  41.2183650  55.2107760  67.1222140  42.1143590
  60.5493240  68.4509280  36.5454060  60.8908940  69.1951510  36.0497380
  59.7205950  68.7640400  36.9078890  53.1468280  64.1504370  48.1852460
  52.7883220  64.8158220  48.7725800  52.8522840  63.3187920  48.5565080
  56.3481400  64.6088610  51.0692010  56.0481540  64.7545790  50.1719830
  57.1192640  64.0493900  50.9765400  61.6909850  69.4057610  49.0647140
  61.7054390  68.4738570  48.8466050  60.9834950  69.4917370  49.7036910
  66.8246920  63.5897430  35.3345750  66.7410640  64.0211650  34.4842190
  67.5441110  64.0495780  35.7672570  67.9021060  66.0464950  48.4115720
  67.1769250  66.6393730  48.2145110  68.4296520  66.0388490  47.6129090
  67.8534170  70.4439690  38.0627880  67.2110330  69.7895310  38.3371600
  67.4664830  70.8494780  37.2868550  63.4320650  67.7725120  41.9099570
  63.7844470  67.1753250  41.2500940  62.5482980  67.4469350  42.0807820
  59.5183930  68.5322810  39.3169980  60.2055060  69.0792020  39.6977570
  58.7316350  69.0763540  39.3519590  51.6576330  64.1495630  34.8087060
  52.5271180  64.4320430  35.0922980  51.1666650  64.9631500  34.6935870
  58.8211140  65.5368840  38.9295340  59.2773920  66.3474090  39.1555530
  58.4699350  65.2191980  39.7613830  61.1243750  71.0475180  46.1587640
  61.7685970  71.2534560  46.8361060  61.4873190  70.2863580  45.7058490
  54.7222920  55.8806490  39.4017860  54.5937550  55.8724390  40.3502780
  53.8984940  56.2189580  39.0508870  62.3975830  69.0507530  44.8765090
  63.0398060  68.3500690  44.9897260  62.9225180  69.8305970  44.6961980
  66.2431550  69.3356150  34.6004230  66.0169130  68.6186590  35.1928870
  65.8527750  69.0868590  33.7625980  64.1713450  69.8502430  48.0801150
  64.5069690  70.4369120  48.7579070  63.2513790  69.7195140  48.3098940
  51.7216850  57.6397610  48.8624560  51.0075370  57.8394530  49.4677170
  52.1411890  56.8637180  49.2339360  65.8247800  67.2528090  36.2618390
  65.5369500  67.7140780  37.0496270  66.6199970  66.7925860  36.5302610
  52.0089440  71.6277870  49.8491090  52.1180560  70.6872610  49.7086480
  51.3570000  71.8932620  49.2004820  60.0002030  69.8993760  51.2489210
  59.6798900  69.1803000  51.7934900  59.3260390  70.5748830  51.3225270
  58.0416200  70.7454210  36.1922360  58.0326300  71.4783900  35.5766870
  57.1214560  70.4985790  36.2849320  53.6422840  65.9669100  36.9369120
  53.0350790  66.7068000  36.9464420  54.1172190  66.0568460  36.1107320
  63.2155630  60.1319920  46.6126010  63.5836450  59.3115130  46.9405580
  62.3553830  60.1921810  47.0281660  66.5817660  59.0876860  37.4213570
  65.9530820  59.1922530  36.7071800  66.0869580  59.3073640  38.2107450
  61.0275800  70.8082450  34.8547550  61.1287780  70.6046440  33.9249530
  60.1277540  70.5540730  35.0595330  58.5501690  61.3662810  38.8371450
  57.8417840  61.8349150  39.2785060  58.8346170  60.7084820  39.4716640
  60.1757620  62.7859510  46.8363980  60.6742870  63.2605330  47.5015830
  60.3180570  61.8623030  47.0434010  62.5817120  58.0913470  40.2767240
  62.4584900  58.1099600  39.3276750  63.5301680  58.1392410  40.3965640
  56.7536710  59.6747890  36.2122160  57.6027240  60.1118040  36.1462350
  56.3867980  59.9868150  37.0394220  67.3824480  59.0027470  47.6792370
  66.8798080  59.7432870  48.0186180  68.1981140  59.3911470  47.3629160
  65.6746490  64.2460650  41.1253730  64.7336630  64.2610880  41.3001420
  65.9890560  63.4596610  41.5714030  55.6528130  65.9280250  34.6857690
  56.4191400  65.8161610  35.2483120  55.7302820  65.2318220  34.0334460
  54.3474890  63.3605320  35.3690580  54.4278480  62.4132830  35.4807980
  55.2394640  63.6912200  35.4751240  52.0335080  69.5774280  38.3466630
  51.1074860  69.8195420  38.3372040  52.4991510  70.4048540  38.2251380
  62.9912510  68.8026650  51.6086110  62.3850670  68.8258250  50.8681860
  62.6866620  68.0709690  52.1453360  51.8745690  65.1820240  50.6046750
  52.3784710  64.6027520  51.1762980  51.1353110  65.4660470  51.1423120
  58.7769310  67.9034430  34.1593040  58.6719950  67.2886780  34.8854420
  58.6093530  67.3800320  33.3756050  58.9283630  66.5891230  50.1382270
  58.1629300  67.1576230  50.0536940  59.1099590  66.2967440  49.2450500
  62.0172040  66.9654460  34.7635030  61.4682140  67.4123760  35.4077770
  62.6391300  66.4603710  35.2872700  66.0706980  68.3196560  50.6957290
  66.8116450  68.6572320  50.1924750  65.3079660  68.4888620  50.1427060
  53.9068770  63.3249830  51.4996820  53.9474110  63.0263700  52.4082050
  54.7614270  63.7257440  51.3404340  57.6847160  65.9245380  36.6600330
  58.1063580  65.7585250  37.5031720  57.8098000  65.1145610  36.1655470
  55.8474580  61.9041930  49.4671310  55.3171040  61.4132880  48.8394650
  56.5162650  62.3326130  48.9329240  60.1974800  64.9482990  33.9077430
  60.7180460  64.2332010  33.5418580  60.8443200  65.5868860  34.2077940
  64.7452640  66.3711390  49.2312500  65.1593660  66.5256470  50.0802920
  63.8103640  66.4966610  49.3938280  65.2174810  63.7107550  51.2351650
  65.7995580  62.9559870  51.1472130  65.3936580  64.2414990  50.4583130
  56.3346880  58.8704300  49.5468600  56.2403750  58.2525050  48.8219470
  55.7544270  59.5970590  49.3198510  59.1008320  57.4277540  46.5795990
  58.6525620  57.4501800  45.7341540  58.4673520  57.0296560  47.1766290
  59.5067870  66.3231870  47.2008430  59.9255980  67.1664600  47.0284670
  58.5876500  66.4603910  46.9715210  61.8431770  64.0548050  48.5846270
  61.9627980  63.4589190  49.3241110  62.7025770  64.0917740  48.1647570
  64.1819670  64.6085240  47.1608780  63.6554890  65.1327860  46.5573920
  64.5251010  65.2412630  47.7918510  56.5806060  61.9978610  33.6058490
  56.3795120  61.1345970  33.9671830  56.4098110  61.9111970  32.6680090
  58.6100540  60.5969400  49.8422090  59.2000230  60.2885250  50.5299910
  57.7920780  60.1249150  49.9981990  63.4293970  60.2135210  50.0755110
  62.7409490  59.5516750  50.0105100  64.1499990  59.7673480  50.5203570
  64.0594370  56.8086840  36.1345370  64.3396660  55.9654740  36.4904790
  63.2860100  57.0409950  36.6484120  55.3788860  59.0979230  33.5936370
  55.6814760  59.1046660  32.6855520  56.1183450  58.7477090  34.0904030
  58.5973790  58.0413850  34.5792570  58.2495790  57.3637840  33.9995020
  58.7986560  57.5803360  35.3935960  54.4018990  68.4021650  34.4266170
  54.8393860  68.9451320  35.0823750  54.8866720  67.5768600  34.4362510
  51.6164790  71.1910680  41.8786430  51.9467800  70.3231740  41.6465070
  52.0455790  71.3969200  42.7091390  56.2126710  69.5219690  39.5388400
  55.9122250  69.3984660  40.4392310  56.1064200  68.6628280  39.1304130
  67.7417180  71.5598270  48.9045370  67.1419170  71.6190830  48.1609290
  67.8711080  70.6203250  49.0342220  68.9818630  69.3016090  34.2415080
  68.1511590  69.3692740  34.7122310  69.1590460  70.1920210  33.9381940
  68.4375090  66.0463570  36.7449280  69.1994000  66.6160220  36.8508970
  68.4529460  65.4790770  37.5157590  51.9379430  64.5701500  40.9756940
  51.2828270  64.3013140  40.3316640  52.7757380  64.4605980  40.5258920
  69.4435060  66.9013670  41.5891210  69.8143890  66.1180990  41.1827180
  70.0836990  67.5902770  41.4108510  66.4268820  68.2850250  47.0021530
  65.6128660  68.7147410  47.2647320  66.8343020  68.8968660  46.3890580
  68.4894260  66.3397940  33.9021800  68.7643100  67.2476820  33.7741020
  68.3005000  66.2760470  34.8383790  64.8869870  59.3642790  35.1975430
  65.3054750  59.1773770  34.3572090  64.5805930  58.5121840  35.5078360
  68.3859600  64.2766930  38.8951230  68.0103200  63.5094860  38.4632520
  67.6562720  64.6589630  39.3826160  52.9755360  64.9554070  45.5160280
  53.3428400  64.8681470  46.3956300  52.4066180  64.1920620  45.4167140
  67.7759220  63.4238450  48.5290750  67.5445310  63.1951200  47.6288700
  68.0363770  64.3438000  48.4835640  52.5271360  61.8663160  49.4218700
  51.6327410  61.8329920  49.7612410  53.0668910  62.0649950  50.1869950
  66.2147290  58.6494880  51.3070450  67.0917470  58.6578280  51.6904450
  66.2268130  57.9125720  50.6962800  51.1517510  61.7800430  36.9182270
  50.2481590  62.0430630  36.7433930  51.6358130  62.0511600  36.1382230
  67.6610560  62.5024420  42.1958470  68.1848040  62.0087070  41.5648640
  68.2469980  62.6374780  42.9406040  67.8400280  62.5864290  45.7178020
  66.8902990  62.5527830  45.8323010  68.0213290  63.4964400  45.4827790
  53.6944720  60.8365970  34.8276650  54.4036420  60.4149190  34.3423930
  52.9784660  60.9041200  34.1960000  53.3418880  56.8905300  33.8679300
  54.0647010  57.4314240  34.1860520  53.6143400  56.6168720  32.9920840
  67.1510530  61.7597770  38.1350880  67.6469650  61.5268640  38.9199760
  66.9526600  60.9209610  37.7188520  53.0311070  56.1411490  43.7701920
  53.6787260  55.5908870  43.3297080  53.4512910  56.3954640  44.5917730
  68.5797690  60.3958720  40.6688560  68.4696970  60.2414760  41.6070830
  69.3405280  59.8679660  40.4263970  66.9263410  56.3352850  47.1271560
  67.5635630  56.9486990  47.4930750  67.0738300  56.3713510  46.1820790
  69.4687960  58.2266640  33.9094700  70.3937270  58.0947820  33.7012990
  69.4463750  58.3059460  34.8631150  69.5426450  58.9977300  36.5351410
  68.7477950  58.9322420  37.0644320  69.7469730  59.9327940  36.5236760
  52.7843070  56.2967160  46.5127240  52.4357890  56.7530980  47.2785420
  52.4530770  55.4024290  46.5949670  54.3907440  69.4686760  50.6780430
  54.3477070  69.0979670  51.5594890  54.5218450  70.4064330  50.8182250
  58.0913470  71.0246350  46.2790150  57.8504830  71.2920910  45.3920670
  59.0316110  71.1952080  46.3341010  60.2967890  57.4879040  50.0346660
  60.2356780  58.0800870  50.7842070  61.2368270  57.3805000  49.8896920
  62.9342450  57.1449100  49.6738950  63.5482860  57.4628390  49.0120030
  63.4792010  56.6597690  50.2934810  53.4563710  55.8243360  49.7878010
  54.0046700  55.6431410  49.0244120  53.5219020  55.0337470  50.3234320
  63.6750490  55.7081240  46.0008240  62.8010330  56.0416350  45.7981170
  63.5661240  55.2354420  46.8260110  64.5822470  57.9152110  47.3849960
  64.2535830  57.1003870  47.0051690  65.5304770  57.8721920  47.2615650
  53.8607700  69.7807390  46.7486250  53.1341760  69.1612680  46.6812200
  53.9216850  70.1748000  45.8784330  61.4225310  56.6251080  44.9401150
  60.6397100  57.0996580  45.2197910  61.1288240  55.7205910  44.8314330
  65.9746380  57.3274180  42.9850240  66.4154470  57.2719280  42.1371840
  65.7053970  58.2432190  43.0560420  67.8384950  56.9589420  40.9959060
  67.7773350  56.0150640  40.8490080  68.6176980  57.0669510  41.5412520
  52.7665720  56.9298560  37.4614870  53.5245080  57.0427440  36.8878900
  52.3042890  57.7667760  37.4158300  59.3079530  59.0437830  40.4517180
  58.4954040  58.6694720  40.1113060  59.8121170  58.2882910  40.7538370
  63.8104510  55.7080280  41.6900250  64.4133880  56.2800490  42.1648770
  63.0697500  56.2719720  41.4674150  66.9539110  56.1101840  36.9640530
  67.1489740  57.0085290  37.2307960  66.1668980  55.8788920  37.4573480
  55.1390870  57.4562610  36.0016840  55.6683630  56.6692410  35.8724790
  55.7719190  58.1353800  36.2352370  57.3328710  57.1937750  39.0562230
  56.7031450  56.4925060  39.2232360  56.7933850  57.9541880  38.8395390
  57.4584270  56.4721730  51.4914720  57.1768540  56.9755330  50.7275540
  57.8403970  55.6743480  51.1256850  55.5108160  69.8562120  36.2828730
  54.8817040  70.3247220  36.8314560  55.6255990  69.0111340  36.7174920
  64.0599730  55.8875310  52.0695190  63.9465180  56.2069920  52.9646710
  64.8769470  56.2887820  51.7732470  62.9657880  63.9067780  22.4329930
  62.8851930  62.9922390  22.1621640  62.5522300  64.4034850  21.7269640
  61.0975920  65.6846800  24.3139200  60.3218020  65.2047240  24.6037770
  61.7488850  65.0052450  24.1395360  55.1141750  65.9966610  25.1914960
  54.2826630  65.7415320  25.5911470  55.7222730  66.0677380  25.9272880
  65.1183350  70.0906990  23.0938330  64.6564880  69.3194230  23.4225500
  65.9308900  70.1173060  23.5990780  55.0943010  70.0306700  25.3872980
  55.3971050  69.1404440  25.2083200  55.8386600  70.5876920  25.1595230
  51.4866710  63.5574150  24.8597050  52.0582820  62.7896350  24.8600690
  51.4868250  63.8562910  23.9503660  60.5384910  68.3603990  24.3209360
  60.4693190  67.4193930  24.1598490  61.3004770  68.4505400  24.8931930
  52.7291580  58.9658510  26.6465980  52.5494420  58.0684260  26.9268740
  52.3271660  59.5130380  27.3212930  61.5690080  61.1674370  24.5478290
  61.9454900  60.2946250  24.4351960  61.4709590  61.5033070  23.6568730
  65.3514200  58.6624810  21.4806630  66.1723820  58.1721380  21.5232110
  65.3848280  59.2522470  22.2338470  53.3478250  61.4619010  25.2548320
  54.0288360  61.7257380  25.8735720  53.0326300  60.6219880  25.5886330
  57.5402820  62.5086370  24.3420910  58.0481040  63.0067340  24.9825930
  58.0716060  61.7321570  24.1660270  69.6413750  60.6791560  28.0450260
  68.9365920  61.0673270  27.5265370  69.9071670  61.3741850  28.6471190
  55.8238920  57.1484930  28.6084330  55.8257360  57.6657320  27.8030230
  54.9943230  56.6715110  28.5854260  62.2110010  67.2604240  20.1074230
  61.5927280  67.7253690  19.5436950  62.7233260  67.9531720  20.5243740
  57.0741770  66.7880110  26.7857830  56.7411150  67.4149030  27.4278900
  57.2508450  67.3141990  26.0059500  65.5875680  60.6025190  24.2534170
  64.8831250  60.8910080  24.8337280  65.9487840  61.4125300  23.8933730
  55.5054250  58.8594890  26.6154780  55.8471060  59.7036940  26.3208650
  54.5670060  59.0078630  26.7320120  56.2860870  68.7560910  28.6007010
  56.9034870  69.4311990  28.3191460  55.4253990  69.1648890  28.5094510
  51.5793210  67.9460770  17.4813860  51.2021190  68.4347870  16.7498760
  51.8366280  68.6186050  18.1120390  67.2038460  70.2200320  26.5161650
  66.5201980  70.8899430  26.5078320  67.7432750  70.4180970  25.7506510
  68.6562600  60.0479980  24.6443380  67.7087510  60.0818960  24.7758810
  68.9812590  60.8618930  25.0292740  66.0342620  68.7860670  20.3197000
  65.9238950  67.8435000  20.4446420  66.0310870  69.1476310  21.2059760
  64.1382640  66.9674290  26.5589440  64.5551430  66.7534400  25.7242900
  64.8622460  67.2247080  27.1298060  61.5762900  64.4125990  19.6759490
  60.6492180  64.3463370  19.9047960  61.7287720  65.3506120  19.5614730
  61.5631980  60.6842990  16.6726650  60.6235650  60.8456950  16.7579110
  61.8815240  61.4028670  16.1262640  68.0844740  65.3661510  26.6505680
  67.2563370  65.4354600  26.1755810  68.6795220  65.9515820  26.1821510
  65.6060190  65.9746290  20.1794740  64.9872610  65.6365840  19.5321040
  65.5884640  65.3306050  20.8873930  65.0486750  62.1530830  27.5960550
  64.6357930  62.9784540  27.8500540  64.3162700  61.5675870  27.4036910
  57.1819540  64.9390730  22.4579220  56.7776540  64.2267980  21.9625120
  57.2682660  64.5943970  23.3467260  57.6501240  68.6258290  24.6218430
  57.3529530  68.0203760  23.9426210  58.6001060  68.6635600  24.5107790
  55.8948160  61.7133940  26.2378260  56.4462750  61.8229280  25.4631510
  56.4091670  62.0871540  26.9533490  56.7419670  68.3639980  31.2726230
  55.8448200  68.5879950  31.5199630  56.7672540  68.4874920  30.3237630
  63.7824890  65.2133100  17.1867490  64.2218170  64.3755530  17.0405310
  64.4953310  65.8462500  17.2731630  55.5690890  65.2353300  29.8483600
  55.4298660  66.1076100  30.2171000  54.6872250  64.8926110  29.7031540
  61.8920270  70.1529170  21.1548730  62.3316180  70.8953500  20.7404120
  61.8307160  70.3955740  22.0787690  57.3671240  71.1775000  32.0568750
  57.3386670  71.5817950  31.1897180  57.2036210  70.2485360  31.8940350
  67.3642030  56.4675910  15.5008530  67.0514690  56.5602740  16.4007600
  68.1254500  57.0456940  15.4505960  53.8824170  63.8335710  19.9585870
  53.7621770  64.5597800  19.3467140  53.5725060  63.0638620  19.4813780
  51.5209540  67.0050850  25.7654510  51.5989960  67.1399620  24.8210230
  52.1351220  66.2966740  25.9582630  52.7657170  68.7051040  22.1760690
  52.3585250  68.8465630  21.3214290  53.6570180  68.4211200  21.9731900
  68.7219310  69.1514950  30.5132930  68.8482370  68.9126830  29.5950110
  68.7640690  68.3199490  30.9855010  64.2616580  70.6485850  17.0709740
  63.5681740  70.6463140  16.4112020  65.0039440  70.2245170  16.6403910
  68.5743320  61.2047410  31.4782670  67.9587590  61.7127080  30.9498130
  68.2539740  60.3045740  31.4208610  51.5769060  68.0465020  28.3048970
  51.7400100  67.5770380  27.4868340  52.0421510  67.5388580  28.9697810
  60.6357640  60.0439300  28.9444860  60.1737010  60.2522320  29.7564800
  60.2335750  59.2298650  28.6415530  65.6362150  61.2648250  30.0741520
  64.7855740  60.9654000  30.3950590  65.4763940  61.5090260  29.1625340
  62.7311860  62.7650000  32.1740310  63.0565270  61.9313750  31.8342540
  63.5192190  63.2878520  32.3218640  56.1402050  62.3004350  21.0690790
  55.9142970  62.0841520  21.9737410  55.3594580  62.7332810  20.7236760
  63.3699810  62.3067720  19.6681440  62.7708700  63.0303520  19.4845060
  63.9179420  62.2444500  18.8857890  58.5801260  63.1989930  31.7351060
  58.4844860  62.2584660  31.5851460  59.4233240  63.4205000  31.3399130
  61.9764680  60.9431260  21.6984720  62.3694250  61.2603460  20.8853410
  62.3381530  60.0643140  21.8129240  53.7111800  59.6103600  29.8884840
  53.3175190  60.4578810  30.0957620  53.0230200  58.9729970  30.0793480
  60.2856850  59.6938570  32.9581580  59.5955170  59.5010770  33.5927670
  61.0289150  59.9773210  33.4905880  51.1999080  61.4752180  15.1317640
  51.1173750  62.4182940  15.2732630  50.8482140  61.3327090  14.2529990
  62.5619820  63.5337010  25.7935500  61.8300940  64.0423820  26.1425600
  62.1644160  62.7166990  25.4924280  58.9997210  60.2091210  24.1987990
  59.0033270  59.7681160  23.3492530  59.8948330  60.5308540  24.3059810
  59.0617360  61.2103290  17.1894750  59.1830180  61.1689770  18.1380570
  58.6765870  62.0727440  17.0341480  58.0738860  63.5204430  16.5878050
  57.5055760  63.0722680  15.9613960  58.7827860  63.8797210  16.0543200
  66.4516480  56.4002870  31.0444820  66.7762250  55.6692530  31.5702800
  66.4872990  56.0816510  30.1425810  53.1508040  67.4216450  30.4644780
  52.7662830  66.7810120  31.0627740  53.4620230  68.1252570  31.0339510
  59.3005180  64.2692990  25.9453400  59.6675310  63.7951560  26.6914740
  59.1110240  65.1434560  26.2861740  57.0904550  63.3101630  28.2637610
  56.7861620  64.1893610  28.4887970  58.0451010  63.3701420  28.2995050
  55.6186340  67.5162620  18.8604460  54.8448600  66.9760240  18.7003180
  56.3480970  66.9969230  18.5222220  66.3774320  66.5127980  24.6530850
  67.0973440  67.0083270  24.2626960  66.1756140  65.8345870  24.0084720
  61.8384260  57.9065940  18.7960240  61.0248870  57.4079110  18.7205550
  61.6446210  58.7464190  18.3796590  61.7593120  66.5837040  30.5399850
  61.6930430  65.6632710  30.2857440  61.1298260  66.6812480  31.2544490
  64.5532650  62.2785590  17.0922400  65.4412270  62.5902820  16.9173740
  64.5237740  61.4057840  16.7002980  55.6623740  67.1843000  22.4983270
  56.1802410  66.3811260  22.4440160  55.2107760  67.1222140  23.3400100
  60.5493240  68.4509280  17.7710570  60.8908940  69.1951510  17.2753890
  59.7205950  68.7640400  18.1335400  53.1468280  64.1504370  29.4108970
  52.7883220  64.8158220  29.9982310  52.8522840  63.3187920  29.7821590
  56.3481400  64.6088610  32.2948520  56.0481540  64.7545790  31.3976340
  57.1192640  64.0493900  32.2021910  61.6909850  69.4057610  30.2903650
  61.7054390  68.4738570  30.0722560  60.9834950  69.4917370  30.9293420
  66.8246920  63.5897430  16.5602260  66.7410640  64.0211650  15.7098700
  67.5441110  64.0495780  16.9929080  67.9021060  66.0464950  29.6372230
  67.1769250  66.6393730  29.4401620  68.4296520  66.0388490  28.8385600
  67.8534170  70.4439690  19.2884390  67.2110330  69.7895310  19.5628110
  67.4664830  70.8494780  18.5125060  63.4320650  67.7725120  23.1356080
  63.7844470  67.1753250  22.4757450  62.5482980  67.4469350  23.3064330
  59.5183930  68.5322810  20.5426490  60.2055060  69.0792020  20.9234080
  58.7316350  69.0763540  20.5776100  51.6576330  64.1495630  16.0343570
  52.5271180  64.4320430  16.3179490  51.1666650  64.9631500  15.9192380
  58.8211140  65.5368840  20.1551850  59.2773920  66.3474090  20.3812040
  58.4699350  65.2191980  20.9870340  61.1243750  71.0475180  27.3844150
  61.7685970  71.2534560  28.0617570  61.4873190  70.2863580  26.9315000
  62.3975830  69.0507530  26.1021600  63.0398060  68.3500690  26.2153770
  62.9225180  69.8305970  25.9218490  66.2431550  69.3356150  15.8260740
  66.0169130  68.6186590  16.4185380  65.8527750  69.0868590  14.9882490
  64.1713450  69.8502430  29.3057660  64.5069690  70.4369120  29.9835580
  63.2513790  69.7195140  29.5355450  51.7216850  57.6397610  30.0881070
  51.0075370  57.8394530  30.6933680  52.1411890  56.8637180  30.4595870
  65.8247800  67.2528090  17.4874900  65.5369500  67.7140780  18.2752780
  66.6199970  66.7925860  17.7559120  52.0089440  71.6277870  31.0747600
  52.1180560  70.6872610  30.9342990  51.3570000  71.8932620  30.4261330
  60.0002030  69.8993760  32.4745720  59.6798900  69.1803000  33.0191410
  59.3260390  70.5748830  32.5481780  58.0416200  70.7454210  17.4178870
  58.0326300  71.4783900  16.8023380  57.1214560  70.4985790  17.5105830
  53.6422840  65.9669100  18.1625630  53.0350790  66.7068000  18.1720930
  54.1172190  66.0568460  17.3363830  63.2155630  60.1319920  27.8382520
  63.5836450  59.3115130  28.1662090  62.3553830  60.1921810  28.2538170
  66.5817660  59.0876860  18.6470080  65.9530820  59.1922530  17.9328310
  66.0869580  59.3073640  19.4363960  61.0275800  70.8082450  16.0804060
  61.1287780  70.6046440  15.1506040  60.1277540  70.5540730  16.2851840
  58.5501690  61.3662810  20.0627960  57.8417840  61.8349150  20.5041570
  58.8346170  60.7084820  20.6973150  60.1757620  62.7859510  28.0620490
  60.6742870  63.2605330  28.7272340  60.3180570  61.8623030  28.2690520
  67.3824480  59.0027470  28.9048880  66.8798080  59.7432870  29.2442690
  68.1981140  59.3911470  28.5885670  65.6746490  64.2460650  22.3510240
  64.7336630  64.2610880  22.5257930  65.9890560  63.4596610  22.7970540
  55.6528130  65.9280250  15.9114200  56.4191400  65.8161610  16.4739630
  55.7302820  65.2318220  15.2590970  54.3474890  63.3605320  16.5947090
  54.4278480  62.4132830  16.7064490  55.2394640  63.6912200  16.7007750
  52.0335080  69.5774280  19.5723140  51.1074860  69.8195420  19.5628550
  52.4991510  70.4048540  19.4507890  62.9912510  68.8026650  32.8342620
  62.3850670  68.8258250  32.0938370  62.6866620  68.0709690  33.3709870
  51.8745690  65.1820240  31.8303260  52.3784710  64.6027520  32.4019490
  51.1353110  65.4660470  32.3679630  58.7769310  67.9034430  15.3849550
  58.6719950  67.2886780  16.1110930  58.6093530  67.3800320  14.6012560
  58.9283630  66.5891230  31.3638780  58.1629300  67.1576230  31.2793450
  59.1099590  66.2967440  30.4707010  62.0172040  66.9654460  15.9891540
  61.4682140  67.4123760  16.6334280  62.6391300  66.4603710  16.5129210
  66.0706980  68.3196560  31.9213800  66.8116450  68.6572320  31.4181260
  65.3079660  68.4888620  31.3683570  53.9068770  63.3249830  32.7253330
  53.9474110  63.0263700  33.6338560  54.7614270  63.7257440  32.5660850
  57.6847160  65.9245380  17.8856840  58.1063580  65.7585250  18.7288230
  57.8098000  65.1145610  17.3911980  55.8474580  61.9041930  30.6927820
  55.3171040  61.4132880  30.0651160  56.5162650  62.3326130  30.1585750
  60.1974800  64.9482990  15.1333940  60.7180460  64.2332010  14.7675090
  60.8443200  65.5868860  15.4334450  64.7452640  66.3711390  30.4569010
  65.1593660  66.5256470  31.3059430  63.8103640  66.4966610  30.6194790
  65.2174810  63.7107550  32.4608160  65.7995580  62.9559870  32.3728640
  65.3936580  64.2414990  31.6839640  56.3346880  58.8704300  30.7725110
  56.2403750  58.2525050  30.0475980  55.7544270  59.5970590  30.5455020
  59.5067870  66.3231870  28.4264940  59.9255980  67.1664600  28.2541180
  58.5876500  66.4603910  28.1971720  61.8431770  64.0548050  29.8102780
  61.9627980  63.4589190  30.5497620  62.7025770  64.0917740  29.3904080
  64.1819670  64.6085240  28.3865290  63.6554890  65.1327860  27.7830430
  64.5251010  65.2412630  29.0175020  56.5806060  61.9978610  14.8315000
  56.3795120  61.1345970  15.1928340  56.4098110  61.9111970  13.8936600
  58.6100540  60.5969400  31.0678600  59.2000230  60.2885250  31.7556420
  57.7920780  60.1249150  31.2238500  63.4293970  60.2135210  31.3011620
  62.7409490  59.5516750  31.2361610  64.1499990  59.7673480  31.7460080
  64.0594370  56.8086840  17.3601880  64.3396660  55.9654740  17.7161300
  63.2860100  57.0409950  17.8740630  55.3788860  59.0979230  14.8192880
  55.6814760  59.1046660  13.9112030  56.1183450  58.7477090  15.3160540
  58.5973790  58.0413850  15.8049080  58.2495790  57.3637840  15.2251530
  58.7986560  57.5803360  16.6192470  54.4018990  68.4021650  15.6522680
  54.8393860  68.9451320  16.3080260  54.8866720  67.5768600  15.6619020
  51.6164790  71.1910680  23.1042940  51.9467800  70.3231740  22.8721580
  52.0455790  71.3969200  23.9347900  56.2126710  69.5219690  20.7644910
  55.9122250  69.3984660  21.6648820  56.1064200  68.6628280  20.3560640
  67.7417180  71.5598270  30.1301880  67.1419170  71.6190830  29.3865800
  67.8711080  70.6203250  30.2598730  68.9818630  69.3016090  15.4671590
  68.1511590  69.3692740  15.9378820  69.1590460  70.1920210  15.1638450
  68.4375090  66.0463570  17.9705790  69.1994000  66.6160220  18.0765480
  68.4529460  65.4790770  18.7414100  51.9379430  64.5701500  22.2013450
  51.2828270  64.3013140  21.5573150  52.7757380  64.4605980  21.7515430
  69.4435060  66.9013670  22.8147720  69.8143890  66.1180990  22.4083690
  70.0836990  67.5902770  22.6365020  66.4268820  68.2850250  28.2278040
  65.6128660  68.7147410  28.4903830  66.8343020  68.8968660  27.6147090
  68.4894260  66.3397940  15.1278310  68.7643100  67.2476820  14.9997530
  68.3005000  66.2760470  16.0640300  64.8869870  59.3642790  16.4231940
  65.3054750  59.1773770  15.5828600  64.5805930  58.5121840  16.7334870
  68.3859600  64.2766930  20.1207740  68.0103200  63.5094860  19.6889030
  67.6562720  64.6589630  20.6082670  52.9755360  64.9554070  26.7416790
  53.3428400  64.8681470  27.6212810  52.4066180  64.1920620  26.6423650
  67.7759220  63.4238450  29.7547260  67.5445310  63.1951200  28.8545210
  68.0363770  64.3438000  29.7092150  52.5271360  61.8663160  30.6475210
  51.6327410  61.8329920  30.9868920  53.0668910  62.0649950  31.4126460
  66.2147290  58.6494880  32.5326960  67.0917470  58.6578280  32.9160960
  66.2268130  57.9125720  31.9219310  51.1517510  61.7800430  18.1438780
  50.2481590  62.0430630  17.9690440  51.6358130  62.0511600  17.3638740
  67.6610560  62.5024420  23.4214980  68.1848040  62.0087070  22.7905150
  68.2469980  62.6374780  24.1662550  67.8400280  62.5864290  26.9434530
  66.8902990  62.5527830  27.0579520  68.0213290  63.4964400  26.7084300
  53.6944720  60.8365970  16.0533160  54.4036420  60.4149190  15.5680440
  52.9784660  60.9041200  15.4216510  53.3418880  56.8905300  15.0935810
  54.0647010  57.4314240  15.4117030  53.6143400  56.6168720  14.2177350
  67.1510530  61.7597770  19.3607390  67.6469650  61.5268640  20.1456270
  66.9526600  60.9209610  18.9445030  68.5797690  60.3958720  21.8945070
  68.4696970  60.2414760  22.8327340  69.3405280  59.8679660  21.6520480
  66.9263410  56.3352850  28.3528070  67.5635630  56.9486990  28.7187260
  67.0738300  56.3713510  27.4077300  69.4687960  58.2266640  15.1351210
  70.3937270  58.0947820  14.9269500  69.4463750  58.3059460  16.0887660
  69.5426450  58.9977300  17.7607920  68.7477950  58.9322420  18.2900830
  69.7469730  59.9327940  17.7493270  52.7843070  56.2967160  27.7383750
  52.4357890  56.7530980  28.5041930  52.4530770  55.4024290  27.8206180
  54.3907440  69.4686760  31.9036940  54.3477070  69.0979670  32.7851400
  54.5218450  70.4064330  32.0438760  58.0913470  71.0246350  27.5046660
  57.8504830  71.2920910  26.6177180  59.0316110  71.1952080  27.5597520
  60.2967890  57.4879040  31.2603170  60.2356780  58.0800870  32.0098580
  61.2368270  57.3805000  31.1153430  62.9342450  57.1449100  30.8995460
  63.5482860  57.4628390  30.2376540  63.4792010  56.6597690  31.5191320
  53.4563710  55.8243360  31.0134520  54.0046700  55.6431410  30.2500630
  53.5219020  55.0337470  31.5490830  64.5822470  57.9152110  28.6106470
  64.2535830  57.1003870  28.2308200  65.5304770  57.8721920  28.4872160
  53.8607700  69.7807390  27.9742760  53.1341760  69.1612680  27.9068710
  53.9216850  70.1748000  27.1040840  65.9746380  57.3274180  24.2106750
  66.4154470  57.2719280  23.3628350  65.7053970  58.2432190  24.2816930
  67.8384950  56.9589420  22.2215570  67.7773350  56.0150640  22.0746590
  68.6176980  57.0669510  22.7669030  66.9539110  56.1101840  18.1897040
  67.1489740  57.0085290  18.4564470  66.1668980  55.8788920  18.6829990
  57.4584270  56.4721730  32.7171230  57.1768540  56.9755330  31.9532050
  57.8403970  55.6743480  32.3513360  55.5108160  69.8562120  17.5085240
  54.8817040  70.3247220  18.0571070  55.6255990  69.0111340  17.9431430
  64.0599730  55.8875310  33.2951700  63.9465180  56.2069920  34.1903220
  64.8769470  56.2887820  32.9988980  62.9657880  63.9067780   3.6586440
  62.8851930  62.9922390   3.3878150  62.5522300  64.4034850   2.9526150
  61.0975920  65.6846800   5.5395710  60.3218020  65.2047240   5.8294280
  61.7488850  65.0052450   5.3651870  55.1141750  65.9966610   6.4171470
  54.2826630  65.7415320   6.8167980  55.7222730  66.0677380   7.1529390
  65.1183350  70.0906990   4.3194840  64.6564880  69.3194230   4.6482010
  65.9308900  70.1173060   4.8247290  55.0943010  70.0306700   6.6129490
  55.3971050  69.1404440   6.4339710  55.8386600  70.5876920   6.3851740
  51.4866710  63.5574150   6.0853560  52.0582820  62.7896350   6.0857200
  51.4868250  63.8562910   5.1760170  60.5384910  68.3603990   5.5465870
  60.4693190  67.4193930   5.3855000  61.3004770  68.4505400   6.1188440
  52.7291580  58.9658510   7.8722490  52.5494420  58.0684260   8.1525250
  52.3271660  59.5130380   8.5469440  61.5690080  61.1674370   5.7734800
  61.9454900  60.2946250   5.6608470  61.4709590  61.5033070   4.8825240
  65.3514200  58.6624810   2.7063140  66.1723820  58.1721380   2.7488620
  65.3848280  59.2522470   3.4594980  53.3478250  61.4619010   6.4804830
  54.0288360  61.7257380   7.0992230  53.0326300  60.6219880   6.8142840
  57.5402820  62.5086370   5.5677420  58.0481040  63.0067340   6.2082440
  58.0716060  61.7321570   5.3916780  69.6413750  60.6791560   9.2706770
  68.9365920  61.0673270   8.7521880  69.9071670  61.3741850   9.8727700
  55.8238920  57.1484930   9.8340840  55.8257360  57.6657320   9.0286740
  54.9943230  56.6715110   9.8110770  57.0741770  66.7880110   8.0114340
  56.7411150  67.4149030   8.6535410  57.2508450  67.3141990   7.2316010
  65.5875680  60.6025190   5.4790680  64.8831250  60.8910080   6.0593790
  65.9487840  61.4125300   5.1190240  55.5054250  58.8594890   7.8411290
  55.8471060  59.7036940   7.5465160  54.5670060  59.0078630   7.9576630
  56.2860870  68.7560910   9.8263520  56.9034870  69.4311990   9.5447970
  55.4253990  69.1648890   9.7351020  67.2038460  70.2200320   7.7418160
  66.5201980  70.8899430   7.7334830  67.7432750  70.4180970   6.9763020
  68.6562600  60.0479980   5.8699890  67.7087510  60.0818960   6.0015320
  68.9812590  60.8618930   6.2549250  59.1882140  56.3477160   4.1655880
  59.4957120  55.7924050   3.4491380  58.2582840  56.4821620   3.9828870
  64.1382640  66.9674290   7.7845950  64.5551430  66.7534400   6.9499410
  64.8622460  67.2247080   8.3554570  68.0844740  65.3661510   7.8762190
  67.2563370  65.4354600   7.4012320  68.6795220  65.9515820   7.4078020
  65.0486750  62.1530830   8.8217060  64.6357930  62.9784540   9.0757050
  64.3162700  61.5675870   8.6293420  57.1819540  64.9390730   3.6835730
  56.7776540  64.2267980   3.1881630  57.2682660  64.5943970   4.5723770
  57.6501240  68.6258290   5.8474940  57.3529530  68.0203760   5.1682720
  58.6001060  68.6635600   5.7364300  55.8948160  61.7133940   7.4634770
  56.4462750  61.8229280   6.6888020  56.4091670  62.0871540   8.1790000
  56.7419670  68.3639980  12.4982740  55.8448200  68.5879950  12.7456140
  56.7672540  68.4874920  11.5494140  55.5690890  65.2353300  11.0740110
  55.4298660  66.1076100  11.4427510  54.6872250  64.8926110  10.9288050
  61.8920270  70.1529170   2.3805240  62.3316180  70.8953500   1.9660630
  61.8307160  70.3955740   3.3044200  57.3671240  71.1775000  13.2825260
  57.3386670  71.5817950  12.4153690  57.2036210  70.2485360  13.1196860
  51.5209540  67.0050850   6.9911020  51.5989960  67.1399620   6.0466740
  52.1351220  66.2966740   7.1839140  52.7657170  68.7051040   3.4017200
  52.3585250  68.8465630   2.5470800  53.6570180  68.4211200   3.1988410
  68.7219310  69.1514950  11.7389440  68.8482370  68.9126830  10.8206620
  68.7640690  68.3199490  12.2111520  68.5743320  61.2047410  12.7039180
  67.9587590  61.7127080  12.1754640  68.2539740  60.3045740  12.6465120
  51.5769060  68.0465020   9.5305480  51.7400100  67.5770380   8.7124850
  52.0421510  67.5388580  10.1954320  56.3487830  57.1770780   4.5666050
  55.9055980  57.9580320   4.2350570  56.9072820  57.5000670   5.2736990
  60.6357640  60.0439300  10.1701370  60.1737010  60.2522320  10.9821310
  60.2335750  59.2298650   9.8672040  65.6362150  61.2648250  11.2998030
  64.7855740  60.9654000  11.6207100  65.4763940  61.5090260  10.3881850
  62.7311860  62.7650000  13.3996820  63.0565270  61.9313750  13.0599050
  63.5192190  63.2878520  13.5475150  58.3863730  57.7218110   6.4255650
  58.6836060  58.6280940   6.3447670  58.9349290  57.2336890   5.8115220
  56.1402050  62.3004350   2.2947300  55.9142970  62.0841520   3.1993920
  55.3594580  62.7332810   1.9493270  58.5801260  63.1989930  12.9607570
  58.4844860  62.2584660  12.8107970  59.4233240  63.4205000  12.5655640
  61.9764680  60.9431260   2.9241230  62.3694250  61.2603460   2.1109920
  62.3381530  60.0643140   3.0385750  53.7111800  59.6103600  11.1141350
  53.3175190  60.4578810  11.3214130  53.0230200  58.9729970  11.3049990
  60.2856850  59.6938570  14.1838090  59.5955170  59.5010770  14.8184180
  61.0289150  59.9773210  14.7162390  51.0128850  57.5332060   5.1471430
  50.7241900  58.1034920   5.8596410  51.7574610  57.0536510   5.5102660
  62.5619820  63.5337010   7.0192010  61.8300940  64.0423820   7.3682110
  62.1644160  62.7166990   6.7180790  58.9997210  60.2091210   5.4244500
  59.0033270  59.7681160   4.5749040  59.8948330  60.5308540   5.5316320
  54.8499590  60.0917700   4.3838710  54.5099640  60.5692930   5.1405760
  54.0876910  59.6382820   4.0239810  63.0245730  58.9870690   6.4314950
  63.0418470  59.4379340   7.2756800  62.7761310  58.0876330   6.6448390
  66.4516480  56.4002870  12.2701330  66.7762250  55.6692530  12.7959310
  66.4872990  56.0816510  11.3682320  53.1508040  67.4216450  11.6901290
  52.7662830  66.7810120  12.2884250  53.4620230  68.1252570  12.2596020
  59.3005180  64.2692990   7.1709910  59.6675310  63.7951560   7.9171250
  59.1110240  65.1434560   7.5118250  52.1645670  59.0136680   3.3003380
  51.8792590  58.6492350   4.1382000  52.1024530  58.2817140   2.6866520
  57.0904550  63.3101630   9.4894120  56.7861620  64.1893610   9.7144480
  58.0451010  63.3701420   9.5251560  66.3774320  66.5127980   5.8787360
  67.0973440  67.0083270   5.4883470  66.1756140  65.8345870   5.2341230
  61.7593120  66.5837040  11.7656360  61.6930430  65.6632710  11.5113950
  61.1298260  66.6812480  12.4801000  55.6623740  67.1843000   3.7239780
  56.1802410  66.3811260   3.6696670  55.2107760  67.1222140   4.5656610
  53.1468280  64.1504370  10.6365480  52.7883220  64.8158220  11.2238820
  52.8522840  63.3187920  11.0078100  56.3481400  64.6088610  13.5205030
  56.0481540  64.7545790  12.6232850  57.1192640  64.0493900  13.4278420
  61.6909850  69.4057610  11.5160160  61.7054390  68.4738570  11.2979070
  60.9834950  69.4917370  12.1549930  67.9021060  66.0464950  10.8628740
  67.1769250  66.6393730  10.6658130  68.4296520  66.0388490  10.0642110
  63.4320650  67.7725120   4.3612590  63.7844470  67.1753250   3.7013960
  62.5482980  67.4469350   4.5320840  59.5183930  68.5322810   1.7683000
  60.2055060  69.0792020   2.1490590  58.7316350  69.0763540   1.8032610
  61.1243750  71.0475180   8.6100660  61.7685970  71.2534560   9.2874080
  61.4873190  70.2863580   8.1571510  62.3975830  69.0507530   7.3278110
  63.0398060  68.3500690   7.4410280  62.9225180  69.8305970   7.1475000
  64.1713450  69.8502430  10.5314170  64.5069690  70.4369120  11.2092090
  63.2513790  69.7195140  10.7611960  51.7216850  57.6397610  11.3137580
  51.0075370  57.8394530  11.9190190  52.1411890  56.8637180  11.6852380
  52.0089440  71.6277870  12.3004110  52.1180560  70.6872610  12.1599500
  51.3570000  71.8932620  11.6517840  60.0002030  69.8993760  13.7002230
  59.6798900  69.1803000  14.2447920  59.3260390  70.5748830  13.7738290
  63.2155630  60.1319920   9.0639030  63.5836450  59.3115130   9.3918600
  62.3553830  60.1921810   9.4794680  60.1757620  62.7859510   9.2877000
  60.6742870  63.2605330   9.9528850  60.3180570  61.8623030   9.4947030
  62.5817120  58.0913470   2.7280260  62.4584900  58.1099600   1.7789770
  63.5301680  58.1392410   2.8478660  67.3824480  59.0027470  10.1305390
  66.8798080  59.7432870  10.4699200  68.1981140  59.3911470   9.8142180
  65.6746490  64.2460650   3.5766750  64.7336630  64.2610880   3.7514440
  65.9890560  63.4596610   4.0227050  62.9912510  68.8026650  14.0599130
  62.3850670  68.8258250  13.3194880  62.6866620  68.0709690  14.5966380
  51.8745690  65.1820240  13.0559770  52.3784710  64.6027520  13.6276000
  51.1353110  65.4660470  13.5936140  58.9283630  66.5891230  12.5895290
  58.1629300  67.1576230  12.5049960  59.1099590  66.2967440  11.6963520
  66.0706980  68.3196560  13.1470310  66.8116450  68.6572320  12.6437770
  65.3079660  68.4888620  12.5940080  53.9068770  63.3249830  13.9509840
  53.9474110  63.0263700  14.8595070  54.7614270  63.7257440  13.7917360
  55.8474580  61.9041930  11.9184330  55.3171040  61.4132880  11.2907670
  56.5162650  62.3326130  11.3842260  64.7452640  66.3711390  11.6825520
  65.1593660  66.5256470  12.5315940  63.8103640  66.4966610  11.8451300
  65.2174810  63.7107550  13.6864670  65.7995580  62.9559870  13.5985150
  65.3936580  64.2414990  12.9096150  56.3346880  58.8704300  11.9981620
  56.2403750  58.2525050  11.2732490  55.7544270  59.5970590  11.7711530
  59.1008320  57.4277540   9.0309010  58.6525620  57.4501800   8.1854560
  58.4673520  57.0296560   9.6279310  59.5067870  66.3231870   9.6521450
  59.9255980  67.1664600   9.4797690  58.5876500  66.4603910   9.4228230
  61.8431770  64.0548050  11.0359290  61.9627980  63.4589190  11.7754130
  62.7025770  64.0917740  10.6160590  64.1819670  64.6085240   9.6121800
  63.6554890  65.1327860   9.0086940  64.5251010  65.2412630  10.2431530
  58.6100540  60.5969400  12.2935110  59.2000230  60.2885250  12.9812930
  57.7920780  60.1249150  12.4495010  63.4293970  60.2135210  12.5268130
  62.7409490  59.5516750  12.4618120  64.1499990  59.7673480  12.9716590
  51.6164790  71.1910680   4.3299450  51.9467800  70.3231740   4.0978090
  52.0455790  71.3969200   5.1604410  67.7417180  71.5598270  11.3558390
  67.1419170  71.6190830  10.6122310  67.8711080  70.6203250  11.4855240
  51.9379430  64.5701500   3.4269960  51.2828270  64.3013140   2.7829660
  52.7757380  64.4605980   2.9771940  69.4435060  66.9013670   4.0404230
  69.8143890  66.1180990   3.6340200  70.0836990  67.5902770   3.8621530
  66.4268820  68.2850250   9.4534550  65.6128660  68.7147410   9.7160340
  66.8343020  68.8968660   8.8403600  52.9755360  64.9554070   7.9673300
  53.3428400  64.8681470   8.8469320  52.4066180  64.1920620   7.8680160
  67.7759220  63.4238450  10.9803770  67.5445310  63.1951200  10.0801720
  68.0363770  64.3438000  10.9348660  52.5271360  61.8663160  11.8731720
  51.6327410  61.8329920  12.2125430  53.0668910  62.0649950  12.6382970
  66.2147290  58.6494880  13.7583470  67.0917470  58.6578280  14.1417470
  66.2268130  57.9125720  13.1475820  67.6610560  62.5024420   4.6471490
  68.1848040  62.0087070   4.0161660  68.2469980  62.6374780   5.3919060
  67.8400280  62.5864290   8.1691040  66.8902990  62.5527830   8.2836030
  68.0213290  63.4964400   7.9340810  53.0311070  56.1411490   6.2214940
  53.6787260  55.5908870   5.7810100  53.4512910  56.3954640   7.0430750
  68.5797690  60.3958720   3.1201580  68.4696970  60.2414760   4.0583850
  69.3405280  59.8679660   2.8776990  66.9263410  56.3352850   9.5784580
  67.5635630  56.9486990   9.9443770  67.0738300  56.3713510   8.6333810
  52.7843070  56.2967160   8.9640260  52.4357890  56.7530980   9.7298440
  52.4530770  55.4024290   9.0462690  54.3907440  69.4686760  13.1293450
  54.3477070  69.0979670  14.0107910  54.5218450  70.4064330  13.2695270
  58.0913470  71.0246350   8.7303170  57.8504830  71.2920910   7.8433690
  59.0316110  71.1952080   8.7854030  60.2967890  57.4879040  12.4859680
  60.2356780  58.0800870  13.2355090  61.2368270  57.3805000  12.3409940
  62.9342450  57.1449100  12.1251970  63.5482860  57.4628390  11.4633050
  63.4792010  56.6597690  12.7447830  53.4563710  55.8243360  12.2391030
  54.0046700  55.6431410  11.4757140  53.5219020  55.0337470  12.7747340
  63.6750490  55.7081240   8.4521260  62.8010330  56.0416350   8.2494190
  63.5661240  55.2354420   9.2773130  64.5822470  57.9152110   9.8362980
  64.2535830  57.1003870   9.4564710  65.5304770  57.8721920   9.7128670
  53.8607700  69.7807390   9.1999270  53.1341760  69.1612680   9.1325220
  53.9216850  70.1748000   8.3297350  61.4225310  56.6251080   7.3914170
  60.6397100  57.0996580   7.6710930  61.1288240  55.7205910   7.2827350
  65.9746380  57.3274180   5.4363260  66.4154470  57.2719280   4.5884860
  65.7053970  58.2432190   5.5073440  67.8384950  56.9589420   3.4472080
  67.7773350  56.0150640   3.3003100  68.6176980  57.0669510   3.9925540
  59.3079530  59.0437830   2.9030200  58.4954040  58.6694720   2.5626080
  59.8121170  58.2882910   3.2051390  63.8104510  55.7080280   4.1413270
  64.4133880  56.2800490   4.6161790  63.0697500  56.2719720   3.9187170
  57.4584270  56.4721730  13.9427740  57.1768540  56.9755330  13.1788560
  57.8403970  55.6743480  13.5769870  64.0599730  55.8875310  14.5208210
  63.9465180  56.2069920  15.4159730  64.8769470  56.2887820  14.2245490
  62.9657880  45.1324290  59.9816910  62.8851930  44.2178900  59.7108620
  62.5522300  45.6291360  59.2756620  61.0975920  46.9103310  61.8626180
  60.3218020  46.4303750  62.1524750  61.7488850  46.2308960  61.6882340
  55.1141750  47.2223120  62.7401940  54.2826630  46.9671830  63.1398450
  55.7222730  47.2933890  63.4759860  65.1183350  51.3163500  60.6425310
  64.6564880  50.5450740  60.9712480  65.9308900  51.3429570  61.1477760
  55.0943010  51.2563210  62.9359960  55.3971050  50.3660950  62.7570180
  55.8386600  51.8133430  62.7082210  53.5233700  42.1825010  56.5244330
  52.6350400  42.5240980  56.4224210  53.8074890  41.9825330  55.6325160
  51.4866710  44.7830660  62.4084030  52.0582820  44.0152860  62.4087670
  51.4868250  45.0819420  61.4990640  61.3446660  53.6021510  60.2629300
  60.7258100  54.0579010  59.6923740  62.1998440  53.7572970  59.8619000
  60.5384910  49.5860500  61.8696340  60.4693190  48.6450440  61.7085470
  61.3004770  49.6761910  62.4418910  52.7291580  40.1915020  64.1952960
  52.5494420  39.2940770  64.4755720  52.3271660  40.7386890  64.8699910
  61.5690080  42.3930880  62.0965270  61.9454900  41.5202760  61.9838940
  61.4709590  42.7289580  61.2055710  55.6995090  40.7656510  57.5582710
  55.8061840  41.6660240  57.8651470  54.7887450  40.7174480  57.2677360
  65.3514200  39.8881320  59.0293610  66.1723820  39.3977890  59.0719090
  65.3848280  40.4778980  59.7825450  53.3478250  42.6875520  62.8035300
  54.0288360  42.9513890  63.4222700  53.0326300  41.8476390  63.1373310
  57.5402820  43.7342880  61.8907890  58.0481040  44.2323850  62.5312910
  58.0716060  42.9578080  61.7147250  62.2110010  48.4860750  57.6561210
  61.5927280  48.9510200  57.0923930  62.7233260  49.1788230  58.0730720
  57.0741770  48.0136620  64.3344810  56.7411150  48.6405540  64.9765880
  57.2508450  48.5398500  63.5546480  65.5875680  41.8281700  61.8021150
  64.8831250  42.1166590  62.3824260  65.9487840  42.6381810  61.4420710
  55.5054250  40.0851400  64.1641760  55.8471060  40.9293450  63.8695630
  54.5670060  40.2335140  64.2807100  51.5793210  49.1717280  55.0300840
  51.2021190  49.6604380  54.2985740  51.8366280  49.8442560  55.6607370
  67.2038460  51.4456830  64.0648630  66.5201980  52.1155940  64.0565300
  67.7432750  51.6437480  63.2993490  68.6562600  41.2736490  62.1930360
  67.7087510  41.3075470  62.3245790  68.9812590  42.0875440  62.5779720
  59.1882140  37.5733670  60.4886350  59.4957120  37.0180560  59.7721850
  58.2582840  37.7078130  60.3059340  64.7397200  53.2900960  62.7793810
  64.7524360  52.8863250  61.9116070  64.1872420  54.0648250  62.6755240
  66.0342620  50.0117180  57.8683980  65.9238950  49.0691510  57.9933400
  66.0310870  50.3732820  58.7546740  64.1382640  48.1930800  64.1076420
  64.5551430  47.9790910  63.2729880  64.8622460  48.4503590  64.6785040
  61.5762900  45.6382500  57.2246470  60.6492180  45.5719880  57.4534940
  61.7287720  46.5762630  57.1101710  61.5631980  41.9099500  54.2213630
  60.6235650  42.0713460  54.3066090  61.8815240  42.6285180  53.6749620
  68.0844740  46.5918020  64.1992660  67.2563370  46.6611110  63.7242790
  68.6795220  47.1772330  63.7308490  65.6060190  47.2002800  57.7281720
  64.9872610  46.8622350  57.0808020  65.5884640  46.5562560  58.4360910
  57.1819540  46.1647240  60.0066200  56.7776540  45.4524490  59.5112100
  57.2682660  45.8200480  60.8954240  57.6501240  49.8514800  62.1705410
  57.3529530  49.2460270  61.4913190  58.6001060  49.8892110  62.0594770
  55.8948160  42.9390450  63.7865240  56.4462750  43.0485790  63.0118490
  56.4091670  43.3128050  64.5020470  63.7824890  46.4389610  54.7354470
  64.2218170  45.6012040  54.5892290  64.4953310  47.0719010  54.8218610
  61.8920270  51.3785680  58.7035710  62.3316180  52.1210010  58.2891100
  61.8307160  51.6212250  59.6274670  67.3642030  37.6932420  53.0495510
  67.0514690  37.7859250  53.9494580  68.1254500  38.2713450  52.9992940
  53.8824170  45.0592220  57.5072850  53.7621770  45.7854310  56.8954120
  53.5725060  44.2895130  57.0300760  51.5209540  48.2307360  63.3141490
  51.5989960  48.3656130  62.3697210  52.1351220  47.5223250  63.5069610
  52.7657170  49.9307550  59.7247670  52.3585250  50.0722140  58.8701270
  53.6570180  49.6467710  59.5218880  64.5590450  54.3654800  56.0598720
  64.3991590  54.0757740  56.9580550  64.3937160  53.5894930  55.5243950
  57.0378830  54.1453330  57.8370340  56.8621310  53.2288870  57.6238140
  56.1834570  54.5040620  58.0768140  64.2616580  51.8742360  54.6196720
  63.5681740  51.8719650  53.9599000  65.0039440  51.4501680  54.1890890
  63.8266510  53.5005070  58.6945210  64.2823460  52.7194450  59.0083830
  64.1659030  54.2111890  59.2386390  56.3487830  38.4027290  60.8896520
  55.9055980  39.1836830  60.5581040  56.9072820  38.7257180  61.5967460
  59.4646650  38.0237990  55.7702350  58.8400830  38.0197860  56.4955660
  59.3776770  37.1568950  55.3738320  58.3863730  38.9474620  62.7486120
  58.6836060  39.8537450  62.6678140  58.9349290  38.4593400  62.1345690
  56.1402050  43.5260860  58.6177770  55.9142970  43.3098030  59.5224390
  55.3594580  43.9589320  58.2723740  63.3699810  43.5324230  57.2168420
  62.7708700  44.2560030  57.0332040  63.9179420  43.4701010  56.4344870
  61.9764680  42.1687770  59.2471700  62.3694250  42.4859970  58.4340390
  62.3381530  41.2899650  59.3616220  51.0128850  38.7588570  61.4701900
  50.7241900  39.3291430  62.1826880  51.7574610  38.2793020  61.8333130
  51.1999080  42.7008690  52.6804620  51.1173750  43.6439450  52.8219610
  50.8482140  42.5583600  51.8016970  62.5619820  44.7593520  63.3422480
  61.8300940  45.2680330  63.6912580  62.1644160  43.9423500  63.0411260
  58.9997210  41.4347720  61.7474970  59.0033270  40.9937670  60.8979510
  59.8948330  41.7565050  61.8546790  54.8499590  41.3174210  60.7069180
  54.5099640  41.7949440  61.4636230  54.0876910  40.8639330  60.3470280
  59.0617360  42.4359800  54.7381730  59.1830180  42.3946280  55.6867550
  58.6765870  43.2983950  54.5828460  63.0245730  40.2127200  62.7545420
  63.0418470  40.6635850  63.5987270  62.7761310  39.3132840  62.9678860
  58.0738860  44.7460940  54.1365030  57.5055760  44.2979190  53.5100940
  58.7827860  45.1053720  53.6030180  59.3005180  45.4949500  63.4940380
  59.6675310  45.0208070  64.2401720  59.1110240  46.3691070  63.8348720
  52.1645670  40.2393190  59.6233850  51.8792590  39.8748860  60.4612470
  52.1024530  39.5073650  59.0096990  55.6186340  48.7419130  56.4091440
  54.8448600  48.2016750  56.2490160  56.3480970  48.2225740  56.0709200
  66.3774320  47.7384490  62.2017830  67.0973440  48.2339780  61.8113940
  66.1756140  47.0602380  61.5571700  61.8384260  39.1322450  56.3447220
  61.0248870  38.6335620  56.2692530  61.6446210  39.9720700  55.9283570
  64.5532650  43.5042100  54.6409380  65.4412270  43.8159330  54.4660720
  64.5237740  42.6314350  54.2489960  55.6623740  48.4099510  60.0470250
  56.1802410  47.6067770  59.9927140  55.2107760  48.3478650  60.8887080
  60.5493240  49.6765790  55.3197550  60.8908940  50.4208020  54.8240870
  59.7205950  49.9896910  55.6822380  66.8246920  44.8153940  54.1089240
  66.7410640  45.2468160  53.2585680  67.5441110  45.2752290  54.5416060
  67.8534170  51.6696200  56.8371370  67.2110330  51.0151820  57.1115090
  67.4664830  52.0751290  56.0612040  63.4320650  48.9981630  60.6843060
  63.7844470  48.4009760  60.0244430  62.5482980  48.6725860  60.8551310
  59.5183930  49.7579320  58.0913470  60.2055060  50.3048530  58.4721060
  58.7316350  50.3020050  58.1263080  51.6576330  45.3752140  53.5830550
  52.5271180  45.6576940  53.8666470  51.1666650  46.1888010  53.4679360
  58.8211140  46.7625350  57.7038830  59.2773920  47.5730600  57.9299020
  58.4699350  46.4448490  58.5357320  54.7222920  37.1063000  58.1761350
  54.5937550  37.0980900  59.1246270  53.8984940  37.4446090  57.8252360
  62.3975830  50.2764040  63.6508580  63.0398060  49.5757200  63.7640750
  62.9225180  51.0562480  63.4705470  66.2431550  50.5612660  53.3747720
  66.0169130  49.8443100  53.9672360  65.8527750  50.3125100  52.5369470
  52.0247580  54.5879520  54.1492180  52.3845220  55.1868860  53.4949450
  51.8839920  55.1339410  54.9227210  65.8247800  48.4784600  55.0361880
  65.5369500  48.9397290  55.8239760  66.6199970  48.0182370  55.3046100
  58.0416200  51.9710720  54.9665850  58.0326300  52.7040410  54.3510360
  57.1214560  51.7242300  55.0592810  53.6422840  47.1925610  55.7112610
  53.0350790  47.9324510  55.7207910  54.1172190  47.2824970  54.8850810
  66.5817660  40.3133370  56.1957060  65.9530820  40.4179040  55.4815290
  66.0869580  40.5330150  56.9850940  61.0275800  52.0338960  53.6291040
  61.1287780  51.8302950  52.6993020  60.1277540  51.7797240  53.8338820
  58.5501690  42.5919320  57.6114940  57.8417840  43.0605660  58.0528550
  58.8346170  41.9341330  58.2460130  62.5817120  39.3169980  59.0510730
  62.4584900  39.3356110  58.1020240  63.5301680  39.3648920  59.1709130
  59.6693910  54.5525280  58.3238710  59.9235410  54.5146670  57.4018080
  58.7206390  54.4258610  58.3166960  56.7536710  40.9004400  54.9865650
  57.6027240  41.3374550  54.9205840  56.3867980  41.2124660  55.8137710
  65.6746490  45.4717160  59.8997220  64.7336630  45.4867390  60.0744910
  65.9890560  44.6853120  60.3457520  55.6528130  47.1536760  53.4601180
  56.4191400  47.0418120  54.0226610  55.7302820  46.4574730  52.8077950
  54.3474890  44.5861830  54.1434070  54.4278480  43.6389340  54.2551470
  55.2394640  44.9168710  54.2494730  67.6772070  52.6426010  61.5751480
  67.8019490  53.4657180  62.0475290  68.5437630  52.4316740  61.2275630
  55.1489600  54.7357220  61.2468610  55.8852080  54.1872680  61.5177180
  55.5330520  55.6013230  61.1074600  52.0335080  50.8030790  57.1210120
  51.1074860  51.0451930  57.1115530  52.4991510  51.6305050  56.9994870
  58.2591910  53.9087530  53.0694180  59.0520520  54.1976360  52.6175970
  57.7396260  53.4779700  52.3906660  67.3122080  53.1357660  54.4930920
  67.0263590  52.7222800  53.6785100  67.1141630  54.0645370  54.3731440
  58.7769310  49.1290940  52.9336530  58.6719950  48.5143290  53.6597910
  58.6093530  48.6056830  52.1499540  62.0172040  48.1910970  53.5378520
  61.4682140  48.6380270  54.1821260  62.6391300  47.6860220  54.0616190
  57.6847160  47.1501890  55.4343820  58.1063580  46.9841760  56.2775210
  57.8098000  46.3402120  54.9398960  60.1974800  46.1739500  52.6820920
  60.7180460  45.4588520  52.3162070  60.8443200  46.8125370  52.9821430
  56.5806060  43.2235120  52.3801980  56.3795120  42.3602480  52.7415320
  56.4098110  43.1368480  51.4423580  64.0594370  38.0343350  54.9088860
  64.3396660  37.1911250  55.2648280  63.2860100  38.2666460  55.4227610
  55.3788860  40.3235740  52.3679860  55.6814760  40.3303170  51.4599010
  56.1183450  39.9733600  52.8647520  58.5973790  39.2670360  53.3536060
  58.2495790  38.5894350  52.7738510  58.7986560  38.8059870  54.1679450
  60.7622830  54.2551110  54.9722660  61.6573620  54.5936080  54.9941420
  60.7940460  53.5330520  54.3446940  54.4018990  49.6278160  53.2009660
  54.8393860  50.1707830  53.8567240  54.8866720  48.8025110  53.2106000
  51.6164790  52.4167190  60.6529920  51.9467800  51.5488250  60.4208560
  52.0455790  52.6225710  61.4834880  56.2126710  50.7476200  58.3131890
  55.9122250  50.6241170  59.2135800  56.1064200  49.8884790  57.9047620
  52.1055000  53.2837780  63.3911550  51.6685990  53.4638580  64.2235700
  52.6732680  54.0412400  63.2493270  68.9818630  50.5272600  53.0158570
  68.1511590  50.5949250  53.4865800  69.1590460  51.4176720  52.7125430
  68.4375090  47.2720080  55.5192770  69.1994000  47.8416730  55.6252460
  68.4529460  46.7047280  56.2901080  51.9379430  45.7958010  59.7500430
  51.2828270  45.5269650  59.1060130  52.7757380  45.6862490  59.3002410
  69.4435060  48.1270180  60.3634700  69.8143890  47.3437500  59.9570670
  70.0836990  48.8159280  60.1852000  68.4894260  47.5654450  52.6765290
  68.7643100  48.4733330  52.5484510  68.3005000  47.5016980  53.6127280
  64.8869870  40.5899300  53.9718920  65.3054750  40.4030280  53.1315580
  64.5805930  39.7378350  54.2821850  68.3859600  45.5023440  57.6694720
  68.0103200  44.7351370  57.2376010  67.6562720  45.8846140  58.1569650
  52.9755360  46.1810580  64.2903770  53.3428400  46.0937980  65.1699790
  52.4066180  45.4177130  64.1910630  51.1517510  43.0056940  55.6925760
  50.2481590  43.2687140  55.5177420  51.6358130  43.2768110  54.9125720
  67.6610560  43.7280930  60.9701960  68.1848040  43.2343580  60.3392130
  68.2469980  43.8631290  61.7149530  67.8400280  43.8120800  64.4921510
  66.8902990  43.7784340  64.6066500  68.0213290  44.7220910  64.2571280
  53.6944720  42.0622480  53.6020140  54.4036420  41.6405700  53.1167420
  52.9784660  42.1297710  52.9703490  53.3418880  38.1161810  52.6422790
  54.0647010  38.6570750  52.9604010  53.6143400  37.8425230  51.7664330
  67.1510530  42.9854280  56.9094370  67.6469650  42.7525150  57.6943250
  66.9526600  42.1466120  56.4932010  53.0311070  37.3668000  62.5445410
  53.6787260  36.8165380  62.1040570  53.4512910  37.6211150  63.3661220
  68.5797690  41.6215230  59.4432050  68.4696970  41.4671270  60.3814320
  69.3405280  41.0936170  59.2007460  69.4687960  39.4523150  52.6838190
  70.3937270  39.3204330  52.4756480  69.4463750  39.5315970  53.6374640
  69.5426450  40.2233810  55.3094900  68.7477950  40.1578930  55.8387810
  69.7469730  41.1584450  55.2980250  66.4844870  54.2625360  59.3033290
  67.0803940  53.9409930  58.6267710  66.7423020  53.7897180  60.0946560
  58.0913470  52.2502860  65.0533640  57.8504830  52.5177420  64.1664160
  59.0316110  52.4208590  65.1084500  67.0357080  54.9120660  63.1331020
  66.5760050  55.6636470  62.7589040  66.4069540  54.1927130  63.0745820
  57.4652800  53.2208900  62.3079150  57.9817820  52.6096260  61.7827410
  58.1150180  53.7237680  62.7990160  60.2048300  54.1117390  63.1348130
  60.4926110  53.8571690  62.2581140  60.7171520  53.5594750  63.7253700
  61.4225310  37.8507590  63.7144640  60.6397100  38.3253090  63.9941400
  61.1288240  36.9462420  63.6057820  65.9746380  38.5530690  61.7593730
  66.4154470  38.4975790  60.9115330  65.7053970  39.4688700  61.8303910
  67.8384950  38.1845930  59.7702550  67.7773350  37.2407150  59.6233570
  68.6176980  38.2926020  60.3156010  52.1437700  54.3238290  58.7326500
  51.9759740  53.6908970  59.4308390  51.2772210  54.5297690  58.3820690
  52.7665720  38.1555070  56.2358360  53.5245080  38.2683950  55.6622390
  52.3042890  38.9924270  56.1901790  59.3079530  40.2694340  59.2260670
  58.4954040  39.8951230  58.8856550  59.8121170  39.5139420  59.5281860
  63.8104510  36.9336790  60.4643740  64.4133880  37.5057000  60.9392260
  63.0697500  37.4976230  60.2417640  66.9539110  37.3358350  55.7384020
  67.1489740  38.2341800  56.0051450  66.1668980  37.1045430  56.2316970
  53.7500400  53.0171520  56.1776640  53.2248020  53.3979550  55.4738600
  53.6744980  53.6422290  56.8986350  55.1390870  38.6819120  54.7760330
  55.6683630  37.8948920  54.6468280  55.7719190  39.3610310  55.0095860
  57.3328710  38.4194260  57.8305720  56.7031450  37.7181570  57.9975850
  56.7933850  39.1798390  57.6138880  68.5065720  54.5759060  57.4990580
  68.6817910  53.8896800  56.8551500  67.8087290  55.1006110  57.1067250
  56.3493370  54.9653900  55.0525890  57.0812190  54.6813180  54.5049780
  56.6087040  54.7267180  55.9425270  55.5108160  51.0818630  55.0572220
  54.8817040  51.5503730  55.6058050  55.6255990  50.2367850  55.4918410
  62.9657880  45.1324290  41.2073420  62.8851930  44.2178900  40.9365130
  62.5522300  45.6291360  40.5013130  61.0975920  46.9103310  43.0882690
  60.3218020  46.4303750  43.3781260  61.7488850  46.2308960  42.9138850
  55.1141750  47.2223120  43.9658450  54.2826630  46.9671830  44.3654960
  55.7222730  47.2933890  44.7016370  65.1183350  51.3163500  41.8681820
  64.6564880  50.5450740  42.1968990  65.9308900  51.3429570  42.3734270
  55.0943010  51.2563210  44.1616470  55.3971050  50.3660950  43.9826690
  55.8386600  51.8133430  43.9338720  51.4866710  44.7830660  43.6340540
  52.0582820  44.0152860  43.6344180  51.4868250  45.0819420  42.7247150
  61.3446660  53.6021510  41.4885810  60.7258100  54.0579010  40.9180250
  62.1998440  53.7572970  41.0875510  60.5384910  49.5860500  43.0952850
  60.4693190  48.6450440  42.9341980  61.3004770  49.6761910  43.6675420
  52.7291580  40.1915020  45.4209470  52.5494420  39.2940770  45.7012230
  52.3271660  40.7386890  46.0956420  61.5690080  42.3930880  43.3221780
  61.9454900  41.5202760  43.2095450  61.4709590  42.7289580  42.4312220
  65.3514200  39.8881320  40.2550120  66.1723820  39.3977890  40.2975600
  65.3848280  40.4778980  41.0081960  57.5402820  43.7342880  43.1164400
  58.0481040  44.2323850  43.7569420  58.0716060  42.9578080  42.9403760
  69.6413750  41.9048070  46.8193750  68.9365920  42.2929780  46.3008860
  69.9071670  42.5998360  47.4214680  55.8238920  38.3741440  47.3827820
  55.8257360  38.8913830  46.5773720  54.9943230  37.8971620  47.3597750
  62.2110010  48.4860750  38.8817720  61.5927280  48.9510200  38.3180440
  62.7233260  49.1788230  39.2987230  57.0741770  48.0136620  45.5601320
  56.7411150  48.6405540  46.2022390  57.2508450  48.5398500  44.7802990
  65.5875680  41.8281700  43.0277660  64.8831250  42.1166590  43.6080770
  65.9487840  42.6381810  42.6677220  55.5054250  40.0851400  45.3898270
  55.8471060  40.9293450  45.0952140  54.5670060  40.2335140  45.5063610
  56.2860870  49.9817420  47.3750500  56.9034870  50.6568500  47.0934950
  55.4253990  50.3905400  47.2838000  51.5793210  49.1717280  36.2557350
  51.2021190  49.6604380  35.5242250  51.8366280  49.8442560  36.8863880
  67.2038460  51.4456830  45.2905140  66.5201980  52.1155940  45.2821810
  67.7432750  51.6437480  44.5250000  68.6562600  41.2736490  43.4186870
  67.7087510  41.3075470  43.5502300  68.9812590  42.0875440  43.8036230
  59.1882140  37.5733670  41.7142860  59.4957120  37.0180560  40.9978360
  58.2582840  37.7078130  41.5315850  64.7397200  53.2900960  44.0050320
  64.7524360  52.8863250  43.1372580  64.1872420  54.0648250  43.9011750
  66.0342620  50.0117180  39.0940490  65.9238950  49.0691510  39.2189910
  66.0310870  50.3732820  39.9803250  64.1382640  48.1930800  45.3332930
  64.5551430  47.9790910  44.4986390  64.8622460  48.4503590  45.9041550
  61.5762900  45.6382500  38.4502980  60.6492180  45.5719880  38.6791450
  61.7287720  46.5762630  38.3358220  61.5631980  41.9099500  35.4470140
  60.6235650  42.0713460  35.5322600  61.8815240  42.6285180  34.9006130
  68.0844740  46.5918020  45.4249170  67.2563370  46.6611110  44.9499300
  68.6795220  47.1772330  44.9565000  65.6060190  47.2002800  38.9538230
  64.9872610  46.8622350  38.3064530  65.5884640  46.5562560  39.6617420
  65.0486750  43.3787340  46.3704040  64.6357930  44.2041050  46.6244030
  64.3162700  42.7932380  46.1780400  57.1819540  46.1647240  41.2322710
  56.7776540  45.4524490  40.7368610  57.2682660  45.8200480  42.1210750
  57.6501240  49.8514800  43.3961920  57.3529530  49.2460270  42.7169700
  58.6001060  49.8892110  43.2851280  55.8948160  42.9390450  45.0121750
  56.4462750  43.0485790  44.2375000  56.4091670  43.3128050  45.7276980
  65.7386850  53.4246670  47.0585020  65.2617410  54.2318860  46.8657630
  65.0548640  52.7725000  47.2111230  56.7419670  49.5896490  50.0469720
  55.8448200  49.8136460  50.2943120  56.7672540  49.7131430  49.0981120
  63.7824890  46.4389610  35.9610980  64.2218170  45.6012040  35.8148800
  64.4953310  47.0719010  36.0475120  55.5690890  46.4609810  48.6227090
  55.4298660  47.3332610  48.9914490  54.6872250  46.1182620  48.4775030
  61.8920270  51.3785680  39.9292220  62.3316180  52.1210010  39.5147610
  61.8307160  51.6212250  40.8531180  57.3671240  52.4031510  50.8312240
  57.3386670  52.8074460  49.9640670  57.2036210  51.4741870  50.6683840
  67.3642030  37.6932420  34.2752020  67.0514690  37.7859250  35.1751090
  68.1254500  38.2713450  34.2249450  69.3186060  53.1858610  52.1276410
  69.7945780  53.6641500  52.8065490  69.9393220  53.1176100  51.4021910
  51.5209540  48.2307360  44.5398000  51.5989960  48.3656130  43.5953720
  52.1351220  47.5223250  44.7326120  52.7657170  49.9307550  40.9504180
  52.3585250  50.0722140  40.0957780  53.6570180  49.6467710  40.7475390
  68.7219310  50.3771460  49.2876420  68.8482370  50.1383340  48.3693600
  68.7640690  49.5456000  49.7598500  62.5836050  54.0799460  47.8571230
  63.0980720  53.9907470  48.6593660  61.7405130  54.4259160  48.1499140
  64.5590450  54.3654800  37.2855230  64.3991590  54.0757740  38.1837060
  64.3937160  53.5894930  36.7500460  57.0378830  54.1453330  39.0626850
  56.8621310  53.2288870  38.8494650  56.1834570  54.5040620  39.3024650
  64.2616580  51.8742360  35.8453230  63.5681740  51.8719650  35.1855510
  65.0039440  51.4501680  35.4147400  63.8266510  53.5005070  39.9201720
  64.2823460  52.7194450  40.2340340  64.1659030  54.2111890  40.4642900
  68.5743320  42.4303920  50.2526160  67.9587590  42.9383590  49.7241620
  68.2539740  41.5302250  50.1952100  51.5769060  49.2721530  47.0792460
  51.7400100  48.8026890  46.2611830  52.0421510  48.7645090  47.7441300
  60.6357640  41.2695810  47.7188350  60.1737010  41.4778830  48.5308290
  60.2335750  40.4555160  47.4159020  65.6362150  42.4904760  48.8485010
  64.7855740  42.1910510  49.1694080  65.4763940  42.7346770  47.9368830
  62.7311860  43.9906510  50.9483800  63.0565270  43.1570260  50.6086030
  63.5192190  44.5135030  51.0962130  58.3863730  38.9474620  43.9742630
  58.6836060  39.8537450  43.8934650  58.9349290  38.4593400  43.3602200
  63.3699810  43.5324230  38.4424930  62.7708700  44.2560030  38.2588550
  63.9179420  43.4701010  37.6601380  58.5801260  44.4246440  50.5094550
  58.4844860  43.4841170  50.3594950  59.4233240  44.6461510  50.1142620
  61.9764680  42.1687770  40.4728210  62.3694250  42.4859970  39.6596900
  62.3381530  41.2899650  40.5872730  53.7111800  40.8360110  48.6628330
  53.3175190  41.6835320  48.8701110  53.0230200  40.1986480  48.8536970
  60.2856850  40.9195080  51.7325070  59.5955170  40.7267280  52.3671160
  61.0289150  41.2029720  52.2649370  62.5619820  44.7593520  44.5678990
  61.8300940  45.2680330  44.9169090  62.1644160  43.9423500  44.2667770
  58.9997210  41.4347720  42.9731480  59.0033270  40.9937670  42.1236020
  59.8948330  41.7565050  43.0803300  63.0245730  40.2127200  43.9801930
  63.0418470  40.6635850  44.8243780  62.7761310  39.3132840  44.1935370
  66.4516480  37.6259380  49.8188310  66.7762250  36.8949040  50.3446290
  66.4872990  37.3073020  48.9169300  53.1508040  48.6472960  49.2388270
  52.7662830  48.0066630  49.8371230  53.4620230  49.3509080  49.8083000
  59.3005180  45.4949500  44.7196890  59.6675310  45.0208070  45.4658230
  59.1110240  46.3691070  45.0605230  57.0904550  44.5358140  47.0381100
  56.7861620  45.4150120  47.2631460  58.0451010  44.5957930  47.0738540
  55.6186340  48.7419130  37.6347950  54.8448600  48.2016750  37.4746670
  56.3480970  48.2225740  37.2965710  66.3774320  47.7384490  43.4274340
  67.0973440  48.2339780  43.0370450  66.1756140  47.0602380  42.7828210
  61.8384260  39.1322450  37.5703730  61.0248870  38.6335620  37.4949040
  61.6446210  39.9720700  37.1540080  61.7593120  47.8093550  49.3143340
  61.6930430  46.8889220  49.0600930  61.1298260  47.9068990  50.0287980
  64.5532650  43.5042100  35.8665890  65.4412270  43.8159330  35.6917230
  64.5237740  42.6314350  35.4746470  55.6623740  48.4099510  41.2726760
  56.1802410  47.6067770  41.2183650  55.2107760  48.3478650  42.1143590
  60.5493240  49.6765790  36.5454060  60.8908940  50.4208020  36.0497380
  59.7205950  49.9896910  36.9078890  53.1468280  45.3760880  48.1852460
  52.7883220  46.0414730  48.7725800  52.8522840  44.5444430  48.5565080
  56.3481400  45.8345120  51.0692010  56.0481540  45.9802300  50.1719830
  57.1192640  45.2750410  50.9765400  61.6909850  50.6314120  49.0647140
  61.7054390  49.6995080  48.8466050  60.9834950  50.7173880  49.7036910
  66.8246920  44.8153940  35.3345750  66.7410640  45.2468160  34.4842190
  67.5441110  45.2752290  35.7672570  67.9021060  47.2721460  48.4115720
  67.1769250  47.8650240  48.2145110  68.4296520  47.2645000  47.6129090
  67.8534170  51.6696200  38.0627880  67.2110330  51.0151820  38.3371600
  67.4664830  52.0751290  37.2868550  63.4320650  48.9981630  41.9099570
  63.7844470  48.4009760  41.2500940  62.5482980  48.6725860  42.0807820
  59.5183930  49.7579320  39.3169980  60.2055060  50.3048530  39.6977570
  58.7316350  50.3020050  39.3519590  58.8211140  46.7625350  38.9295340
  59.2773920  47.5730600  39.1555530  58.4699350  46.4448490  39.7613830
  61.1243750  52.2731690  46.1587640  61.7685970  52.4791070  46.8361060
  61.4873190  51.5120090  45.7058490  62.3975830  50.2764040  44.8765090
  63.0398060  49.5757200  44.9897260  62.9225180  51.0562480  44.6961980
  66.2431550  50.5612660  34.6004230  66.0169130  49.8443100  35.1928870
  65.8527750  50.3125100  33.7625980  64.1713450  51.0758940  48.0801150
  64.5069690  51.6625630  48.7579070  63.2513790  50.9451650  48.3098940
  52.0247580  54.5879520  35.3748690  52.3845220  55.1868860  34.7205960
  51.8839920  55.1339410  36.1483720  51.7216850  38.8654120  48.8624560
  51.0075370  39.0651040  49.4677170  52.1411890  38.0893690  49.2339360
  65.8247800  48.4784600  36.2618390  65.5369500  48.9397290  37.0496270
  66.6199970  48.0182370  36.5302610  52.0089440  52.8534380  49.8491090
  52.1180560  51.9129120  49.7086480  51.3570000  53.1189130  49.2004820
  60.0002030  51.1250270  51.2489210  59.6798900  50.4059510  51.7934900
  59.3260390  51.8005340  51.3225270  58.0416200  51.9710720  36.1922360
  58.0326300  52.7040410  35.5766870  57.1214560  51.7242300  36.2849320
  53.6422840  47.1925610  36.9369120  53.0350790  47.9324510  36.9464420
  54.1172190  47.2824970  36.1107320  63.2155630  41.3576430  46.6126010
  63.5836450  40.5371640  46.9405580  62.3553830  41.4178320  47.0281660
  66.5817660  40.3133370  37.4213570  65.9530820  40.4179040  36.7071800
  66.0869580  40.5330150  38.2107450  61.0275800  52.0338960  34.8547550
  61.1287780  51.8302950  33.9249530  60.1277540  51.7797240  35.0595330
  58.5501690  42.5919320  38.8371450  57.8417840  43.0605660  39.2785060
  58.8346170  41.9341330  39.4716640  60.1757620  44.0116020  46.8363980
  60.6742870  44.4861840  47.5015830  60.3180570  43.0879540  47.0434010
  62.5817120  39.3169980  40.2767240  62.4584900  39.3356110  39.3276750
  63.5301680  39.3648920  40.3965640  59.6693910  54.5525280  39.5495220
  59.9235410  54.5146670  38.6274590  58.7206390  54.4258610  39.5423470
  67.3824480  40.2283980  47.6792370  66.8798080  40.9689380  48.0186180
  68.1981140  40.6167980  47.3629160  65.6746490  45.4717160  41.1253730
  64.7336630  45.4867390  41.3001420  65.9890560  44.6853120  41.5714030
  55.6528130  47.1536760  34.6857690  56.4191400  47.0418120  35.2483120
  55.7302820  46.4574730  34.0334460  67.6772070  52.6426010  42.8007990
  67.8019490  53.4657180  43.2731800  68.5437630  52.4316740  42.4532140
  55.1489600  54.7357220  42.4725120  55.8852080  54.1872680  42.7433690
  55.5330520  55.6013230  42.3331110  52.0335080  50.8030790  38.3466630
  51.1074860  51.0451930  38.3372040  52.4991510  51.6305050  38.2251380
  54.1547880  53.9203290  51.6610700  54.9560610  54.2415340  52.0746100
  53.6399700  53.5598870  52.3830610  58.2591910  53.9087530  34.2950690
  59.0520520  54.1976360  33.8432480  57.7396260  53.4779700  33.6163170
  62.9912510  50.0283160  51.6086110  62.3850670  50.0514760  50.8681860
  62.6866620  49.2966200  52.1453360  64.4212880  53.7563450  50.2195520
  65.3734630  53.6721470  50.1695760  64.2741100  54.4205160  50.8929310
  67.3122080  53.1357660  35.7187430  67.0263590  52.7222800  34.9041610
  67.1141630  54.0645370  35.5987950  51.8745690  46.4076750  50.6046750
  52.3784710  45.8284030  51.1762980  51.1353110  46.6916980  51.1423120
  58.7769310  49.1290940  34.1593040  58.6719950  48.5143290  34.8854420
  58.6093530  48.6056830  33.3756050  58.9283630  47.8147740  50.1382270
  58.1629300  48.3832740  50.0536940  59.1099590  47.5223950  49.2450500
  62.0172040  48.1910970  34.7635030  61.4682140  48.6380270  35.4077770
  62.6391300  47.6860220  35.2872700  66.0706980  49.5453070  50.6957290
  66.8116450  49.8828830  50.1924750  65.3079660  49.7145130  50.1427060
  53.9068770  44.5506340  51.4996820  53.9474110  44.2520210  52.4082050
  54.7614270  44.9513950  51.3404340  57.6847160  47.1501890  36.6600330
  58.1063580  46.9841760  37.5031720  57.8098000  46.3402120  36.1655470
  55.8474580  43.1298440  49.4671310  55.3171040  42.6389390  48.8394650
  56.5162650  43.5582640  48.9329240  64.7452640  47.5967900  49.2312500
  65.1593660  47.7512980  50.0802920  63.8103640  47.7223120  49.3938280
  65.2174810  44.9364060  51.2351650  65.7995580  44.1816380  51.1472130
  65.3936580  45.4671500  50.4583130  56.3346880  40.0960810  49.5468600
  56.2403750  39.4781560  48.8219470  55.7544270  40.8227100  49.3198510
  59.1008320  38.6534050  46.5795990  58.6525620  38.6758310  45.7341540
  58.4673520  38.2553070  47.1766290  59.5067870  47.5488380  47.2008430
  59.9255980  48.3921110  47.0284670  58.5876500  47.6860420  46.9715210
  61.8431770  45.2804560  48.5846270  61.9627980  44.6845700  49.3241110
  62.7025770  45.3174250  48.1647570  64.1819670  45.8341750  47.1608780
  63.6554890  46.3584370  46.5573920  64.5251010  46.4669140  47.7918510
  57.3575290  53.8541390  48.3166160  56.8196380  54.5787450  47.9974860
  57.6109250  53.3771730  47.5263500  58.6100540  41.8225910  49.8422090
  59.2000230  41.5141760  50.5299910  57.7920780  41.3505660  49.9981990
  63.4293970  41.4391720  50.0755110  62.7409490  40.7773260  50.0105100
  64.1499990  40.9929990  50.5203570  64.0594370  38.0343350  36.1345370
  64.3396660  37.1911250  36.4904790  63.2860100  38.2666460  36.6484120
  60.2137500  55.0892600  48.5752810  60.1396200  55.9927740  48.8825180
  59.3116340  54.7704500  48.5474880  60.7622830  54.2551110  36.1979170
  61.6573620  54.5936080  36.2197930  60.7940460  53.5330520  35.5703450
  54.4018990  49.6278160  34.4266170  54.8393860  50.1707830  35.0823750
  54.8866720  48.8025110  34.4362510  51.6164790  52.4167190  41.8786430
  51.9467800  51.5488250  41.6465070  52.0455790  52.6225710  42.7091390
  56.2126710  50.7476200  39.5388400  55.9122250  50.6241170  40.4392310
  56.1064200  49.8884790  39.1304130  52.1055000  53.2837780  44.6168060
  51.6685990  53.4638580  45.4492210  52.6732680  54.0412400  44.4749780
  67.7417180  52.7854780  48.9045370  67.1419170  52.8447340  48.1609290
  67.8711080  51.8459760  49.0342220  68.9818630  50.5272600  34.2415080
  68.1511590  50.5949250  34.7122310  69.1590460  51.4176720  33.9381940
  68.4375090  47.2720080  36.7449280  69.1994000  47.8416730  36.8508970
  68.4529460  46.7047280  37.5157590  69.4435060  48.1270180  41.5891210
  69.8143890  47.3437500  41.1827180  70.0836990  48.8159280  41.4108510
  66.4268820  49.5106760  47.0021530  65.6128660  49.9403920  47.2647320
  66.8343020  50.1225170  46.3890580  68.4894260  47.5654450  33.9021800
  68.7643100  48.4733330  33.7741020  68.3005000  47.5016980  34.8383790
  64.8869870  40.5899300  35.1975430  65.3054750  40.4030280  34.3572090
  64.5805930  39.7378350  35.5078360  68.3859600  45.5023440  38.8951230
  68.0103200  44.7351370  38.4632520  67.6562720  45.8846140  39.3826160
  52.9755360  46.1810580  45.5160280  53.3428400  46.0937980  46.3956300
  52.4066180  45.4177130  45.4167140  67.7759220  44.6494960  48.5290750
  67.5445310  44.4207710  47.6288700  68.0363770  45.5694510  48.4835640
  52.5271360  43.0919670  49.4218700  51.6327410  43.0586430  49.7612410
  53.0668910  43.2906460  50.1869950  66.2147290  39.8751390  51.3070450
  67.0917470  39.8834790  51.6904450  66.2268130  39.1382230  50.6962800
  67.6610560  43.7280930  42.1958470  68.1848040  43.2343580  41.5648640
  68.2469980  43.8631290  42.9406040  67.8400280  43.8120800  45.7178020
  66.8902990  43.7784340  45.8323010  68.0213290  44.7220910  45.4827790
  67.1510530  42.9854280  38.1350880  67.6469650  42.7525150  38.9199760
  66.9526600  42.1466120  37.7188520  68.5797690  41.6215230  40.6688560
  68.4696970  41.4671270  41.6070830  69.3405280  41.0936170  40.4263970
  66.9263410  37.5609360  47.1271560  67.5635630  38.1743500  47.4930750
  67.0738300  37.5970020  46.1820790  69.4687960  39.4523150  33.9094700
  70.3937270  39.3204330  33.7012990  69.4463750  39.5315970  34.8631150
  69.5426450  40.2233810  36.5351410  68.7477950  40.1578930  37.0644320
  69.7469730  41.1584450  36.5236760  66.4844870  54.2625360  40.5289800
  67.0803940  53.9409930  39.8524220  66.7423020  53.7897180  41.3203070
  52.7843070  37.5223670  46.5127240  52.4357890  37.9787490  47.2785420
  52.4530770  36.6280800  46.5949670  54.3907440  50.6943270  50.6780430
  54.3477070  50.3236180  51.5594890  54.5218450  51.6320840  50.8182250
  58.0913470  52.2502860  46.2790150  57.8504830  52.5177420  45.3920670
  59.0316110  52.4208590  46.3341010  60.2967890  38.7135550  50.0346660
  60.2356780  39.3057380  50.7842070  61.2368270  38.6061510  49.8896920
  62.9342450  38.3705610  49.6738950  63.5482860  38.6884900  49.0120030
  63.4792010  37.8854200  50.2934810  69.3517630  54.2697240  47.0800790
  68.8575910  54.6666110  46.3627920  68.7430920  53.6446450  47.4738070
  53.4563710  37.0499870  49.7878010  54.0046700  36.8687920  49.0244120
  53.5219020  36.2593980  50.3234320  54.2295470  53.6405520  47.7978210
  53.6355790  53.5090220  48.5368250  54.2219310  52.8043660  47.3320310
  63.6750490  36.9337750  46.0008240  62.8010330  37.2672860  45.7981170
  63.5661240  36.4610930  46.8260110  64.5822470  39.1408620  47.3849960
  64.2535830  38.3260380  47.0051690  65.5304770  39.0978430  47.2615650
  67.0357080  54.9120660  44.3587530  66.5760050  55.6636470  43.9845550
  66.4069540  54.1927130  44.3002330  53.8607700  51.0063900  46.7486250
  53.1341760  50.3869190  46.6812200  53.9216850  51.4004510  45.8784330
  57.4652800  53.2208900  43.5335660  57.9817820  52.6096260  43.0083920
  58.1150180  53.7237680  44.0246670  60.2048300  54.1117390  44.3604640
  60.4926110  53.8571690  43.4837650  60.7171520  53.5594750  44.9510210
  61.4225310  37.8507590  44.9401150  60.6397100  38.3253090  45.2197910
  61.1288240  36.9462420  44.8314330  65.9746380  38.5530690  42.9850240
  66.4154470  38.4975790  42.1371840  65.7053970  39.4688700  43.0560420
  67.8384950  38.1845930  40.9959060  67.7773350  37.2407150  40.8490080
  68.6176980  38.2926020  41.5412520  52.1437700  54.3238290  39.9583010
  51.9759740  53.6908970  40.6564900  51.2772210  54.5297690  39.6077200
  59.3079530  40.2694340  40.4517180  58.4954040  39.8951230  40.1113060
  59.8121170  39.5139420  40.7538370  63.8104510  36.9336790  41.6900250
  64.4133880  37.5057000  42.1648770  63.0697500  37.4976230  41.4674150
  66.9539110  37.3358350  36.9640530  67.1489740  38.2341800  37.2307960
  66.1668980  37.1045430  37.4573480  53.7500400  53.0171520  37.4033150
  53.2248020  53.3979550  36.6995110  53.6744980  53.6422290  38.1242860
  57.3328710  38.4194260  39.0562230  56.7031450  37.7181570  39.2232360
  56.7933850  39.1798390  38.8395390  60.2720660  55.0333490  51.7272840
  61.1987970  54.7977760  51.7708800  60.2571090  55.8605490  51.2458870
  68.5065720  54.5759060  38.7247090  68.6817910  53.8896800  38.0808010
  67.8087290  55.1006110  38.3323760  57.4584270  37.6978240  51.4914720
  57.1768540  38.2011840  50.7275540  57.8403970  36.8999990  51.1256850
  56.3493370  54.9653900  36.2782400  57.0812190  54.6813180  35.7306290
  56.6087040  54.7267180  37.1681780  55.5108160  51.0818630  36.2828730
  54.8817040  51.5503730  36.8314560  55.6255990  50.2367850  36.7174920
  64.0599730  37.1131820  52.0695190  63.9465180  37.4326430  52.9646710
  64.8769470  37.5144330  51.7732470  66.8398220  54.2603350  51.5513880
  67.6323540  53.7652580  51.3439840  67.1331370  54.9393490  52.1589490
  62.9657880  45.1324290  22.4329930  62.8851930  44.2178900  22.1621640
  62.5522300  45.6291360  21.7269640  61.5690080  42.3930880  24.5478290
  61.9454900  41.5202760  24.4351960  61.4709590  42.7289580  23.6568730
  55.6995090  40.7656510  20.0095730  55.8061840  41.6660240  20.3164490
  54.7887450  40.7174480  19.7190380  65.3514200  39.8881320  21.4806630
  66.1723820  39.3977890  21.5232110  65.3848280  40.4778980  22.2338470
  69.6413750  41.9048070  28.0450260  68.9365920  42.2929780  27.5265370
  69.9071670  42.5998360  28.6471190  65.5875680  41.8281700  24.2534170
  64.8831250  42.1166590  24.8337280  65.9487840  42.6381810  23.8933730
  51.5793210  49.1717280  17.4813860  51.2021190  49.6604380  16.7498760
  51.8366280  49.8442560  18.1120390  67.2038460  51.4456830  26.5161650
  66.5201980  52.1155940  26.5078320  67.7432750  51.6437480  25.7506510
  68.6562600  41.2736490  24.6443380  67.7087510  41.3075470  24.7758810
  68.9812590  42.0875440  25.0292740  59.1882140  37.5733670  22.9399370
  59.4957120  37.0180560  22.2234870  58.2582840  37.7078130  22.7572360
  66.0342620  50.0117180  20.3197000  65.9238950  49.0691510  20.4446420
  66.0310870  50.3732820  21.2059760  64.1382640  48.1930800  26.5589440
  64.5551430  47.9790910  25.7242900  64.8622460  48.4503590  27.1298060
  61.5762900  45.6382500  19.6759490  60.6492180  45.5719880  19.9047960
  61.7287720  46.5762630  19.5614730  61.5631980  41.9099500  16.6726650
  60.6235650  42.0713460  16.7579110  61.8815240  42.6285180  16.1262640
  68.0844740  46.5918020  26.6505680  67.2563370  46.6611110  26.1755810
  68.6795220  47.1772330  26.1821510  65.6060190  47.2002800  20.1794740
  64.9872610  46.8622350  19.5321040  65.5884640  46.5562560  20.8873930
  65.0486750  43.3787340  27.5960550  64.6357930  44.2041050  27.8500540
  64.3162700  42.7932380  27.4036910  65.7386850  53.4246670  28.2841530
  65.2617410  54.2318860  28.0914140  65.0548640  52.7725000  28.4367740
  56.7419670  49.5896490  31.2726230  55.8448200  49.8136460  31.5199630
  56.7672540  49.7131430  30.3237630  63.7824890  46.4389610  17.1867490
  64.2218170  45.6012040  17.0405310  64.4953310  47.0719010  17.2731630
  57.3671240  52.4031510  32.0568750  57.3386670  52.8074460  31.1897180
  57.2036210  51.4741870  31.8940350  67.3642030  37.6932420  15.5008530
  67.0514690  37.7859250  16.4007600  68.1254500  38.2713450  15.4505960
  53.8824170  45.0592220  19.9585870  53.7621770  45.7854310  19.3467140
  53.5725060  44.2895130  19.4813780  69.3186060  53.1858610  33.3532920
  69.7945780  53.6641500  34.0322000  69.9393220  53.1176100  32.6278420
  68.7219310  50.3771460  30.5132930  68.8482370  50.1383340  29.5950110
  68.7640690  49.5456000  30.9855010  64.2616580  51.8742360  17.0709740
  63.5681740  51.8719650  16.4112020  65.0039440  51.4501680  16.6403910
  68.5743320  42.4303920  31.4782670  67.9587590  42.9383590  30.9498130
  68.2539740  41.5302250  31.4208610  56.3487830  38.4027290  23.3409540
  55.9055980  39.1836830  23.0094060  56.9072820  38.7257180  24.0480480
  65.6362150  42.4904760  30.0741520  64.7855740  42.1910510  30.3950590
  65.4763940  42.7346770  29.1625340  62.7311860  43.9906510  32.1740310
  63.0565270  43.1570260  31.8342540  63.5192190  44.5135030  32.3218640
  58.3863730  38.9474620  25.1999140  58.6836060  39.8537450  25.1191160
  58.9349290  38.4593400  24.5858710  56.1402050  43.5260860  21.0690790
  55.9142970  43.3098030  21.9737410  55.3594580  43.9589320  20.7236760
  63.3699810  43.5324230  19.6681440  62.7708700  44.2560030  19.4845060
  63.9179420  43.4701010  18.8857890  61.9764680  42.1687770  21.6984720
  62.3694250  42.4859970  20.8853410  62.3381530  41.2899650  21.8129240
  60.2856850  40.9195080  32.9581580  59.5955170  40.7267280  33.5927670
  61.0289150  41.2029720  33.4905880  58.9997210  41.4347720  24.1987990
  59.0033270  40.9937670  23.3492530  59.8948330  41.7565050  24.3059810
  54.8499590  41.3174210  23.1582200  54.5099640  41.7949440  23.9149250
  54.0876910  40.8639330  22.7983300  63.0245730  40.2127200  25.2058440
  63.0418470  40.6635850  26.0500290  62.7761310  39.3132840  25.4191880
  58.0738860  44.7460940  16.5878050  57.5055760  44.2979190  15.9613960
  58.7827860  45.1053720  16.0543200  66.4516480  37.6259380  31.0444820
  66.7762250  36.8949040  31.5702800  66.4872990  37.3073020  30.1425810
  52.1645670  40.2393190  22.0746870  51.8792590  39.8748860  22.9125490
  52.1024530  39.5073650  21.4610010  55.6186340  48.7419130  18.8604460
  54.8448600  48.2016750  18.7003180  56.3480970  48.2225740  18.5222220
  66.3774320  47.7384490  24.6530850  67.0973440  48.2339780  24.2626960
  66.1756140  47.0602380  24.0084720  61.8384260  39.1322450  18.7960240
  61.0248870  38.6335620  18.7205550  61.6446210  39.9720700  18.3796590
  64.5532650  43.5042100  17.0922400  65.4412270  43.8159330  16.9173740
  64.5237740  42.6314350  16.7002980  60.5493240  49.6765790  17.7710570
  60.8908940  50.4208020  17.2753890  59.7205950  49.9896910  18.1335400
  66.8246920  44.8153940  16.5602260  66.7410640  45.2468160  15.7098700
  67.5441110  45.2752290  16.9929080  67.9021060  47.2721460  29.6372230
  67.1769250  47.8650240  29.4401620  68.4296520  47.2645000  28.8385600
  67.8534170  51.6696200  19.2884390  67.2110330  51.0151820  19.5628110
  67.4664830  52.0751290  18.5125060  51.6576330  45.3752140  16.0343570
  52.5271180  45.6576940  16.3179490  51.1666650  46.1888010  15.9192380
  54.7222920  37.1063000  20.6274370  54.5937550  37.0980900  21.5759290
  53.8984940  37.4446090  20.2765380  66.2431550  50.5612660  15.8260740
  66.0169130  49.8443100  16.4185380  65.8527750  50.3125100  14.9882490
  64.1713450  51.0758940  29.3057660  64.5069690  51.6625630  29.9835580
  63.2513790  50.9451650  29.5355450  65.8247800  48.4784600  17.4874900
  65.5369500  48.9397290  18.2752780  66.6199970  48.0182370  17.7559120
  52.0089440  52.8534380  31.0747600  52.1180560  51.9129120  30.9342990
  51.3570000  53.1189130  30.4261330  58.0416200  51.9710720  17.4178870
  58.0326300  52.7040410  16.8023380  57.1214560  51.7242300  17.5105830
  53.6422840  47.1925610  18.1625630  53.0350790  47.9324510  18.1720930
  54.1172190  47.2824970  17.3363830  63.2155630  41.3576430  27.8382520
  63.5836450  40.5371640  28.1662090  62.3553830  41.4178320  28.2538170
  66.5817660  40.3133370  18.6470080  65.9530820  40.4179040  17.9328310
  66.0869580  40.5330150  19.4363960  61.0275800  52.0338960  16.0804060
  61.1287780  51.8302950  15.1506040  60.1277540  51.7797240  16.2851840
  58.5501690  42.5919320  20.0627960  57.8417840  43.0605660  20.5041570
  58.8346170  41.9341330  20.6973150  62.5817120  39.3169980  21.5023750
  62.4584900  39.3356110  20.5533260  63.5301680  39.3648920  21.6222150
  67.3824480  40.2283980  28.9048880  66.8798080  40.9689380  29.2442690
  68.1981140  40.6167980  28.5885670  65.6746490  45.4717160  22.3510240
  64.7336630  45.4867390  22.5257930  65.9890560  44.6853120  22.7970540
  55.6528130  47.1536760  15.9114200  56.4191400  47.0418120  16.4739630
  55.7302820  46.4574730  15.2590970  67.6772070  52.6426010  24.0264500
  67.8019490  53.4657180  24.4988310  68.5437630  52.4316740  23.6788650
  54.1547880  53.9203290  32.8867210  54.9560610  54.2415340  33.3002610
  53.6399700  53.5598870  33.6087120  58.2591910  53.9087530  15.5207200
  59.0520520  54.1976360  15.0688990  57.7396260  53.4779700  14.8419680
  64.4212880  53.7563450  31.4452030  65.3734630  53.6721470  31.3952270
  64.2741100  54.4205160  32.1185820  67.3122080  53.1357660  16.9443940
  67.0263590  52.7222800  16.1298120  67.1141630  54.0645370  16.8244460
  58.7769310  49.1290940  15.3849550  58.6719950  48.5143290  16.1110930
  58.6093530  48.6056830  14.6012560  62.0172040  48.1910970  15.9891540
  61.4682140  48.6380270  16.6334280  62.6391300  47.6860220  16.5129210
  66.0706980  49.5453070  31.9213800  66.8116450  49.8828830  31.4181260
  65.3079660  49.7145130  31.3683570  57.6847160  47.1501890  17.8856840
  58.1063580  46.9841760  18.7288230  57.8098000  46.3402120  17.3911980
  60.1974800  46.1739500  15.1333940  60.7180460  45.4588520  14.7675090
  60.8443200  46.8125370  15.4334450  65.2174810  44.9364060  32.4608160
  65.7995580  44.1816380  32.3728640  65.3936580  45.4671500  31.6839640
  59.1008320  38.6534050  27.8052500  58.6525620  38.6758310  26.9598050
  58.4673520  38.2553070  28.4022800  57.3575290  53.8541390  29.5422670
  56.8196380  54.5787450  29.2231370  57.6109250  53.3771730  28.7520010
  63.4293970  41.4391720  31.3011620  62.7409490  40.7773260  31.2361610
  64.1499990  40.9929990  31.7460080  64.0594370  38.0343350  17.3601880
  64.3396660  37.1911250  17.7161300  63.2860100  38.2666460  17.8740630
  54.4018990  49.6278160  15.6522680  54.8393860  50.1707830  16.3080260
  54.8866720  48.8025110  15.6619020  67.7417180  52.7854780  30.1301880
  67.1419170  52.8447340  29.3865800  67.8711080  51.8459760  30.2598730
  68.9818630  50.5272600  15.4671590  68.1511590  50.5949250  15.9378820
  69.1590460  51.4176720  15.1638450  68.4375090  47.2720080  17.9705790
  69.1994000  47.8416730  18.0765480  68.4529460  46.7047280  18.7414100
  51.9379430  45.7958010  22.2013450  51.2828270  45.5269650  21.5573150
  52.7757380  45.6862490  21.7515430  69.4435060  48.1270180  22.8147720
  69.8143890  47.3437500  22.4083690  70.0836990  48.8159280  22.6365020
  66.4268820  49.5106760  28.2278040  65.6128660  49.9403920  28.4903830
  66.8343020  50.1225170  27.6147090  68.4894260  47.5654450  15.1278310
  68.7643100  48.4733330  14.9997530  68.3005000  47.5016980  16.0640300
  64.8869870  40.5899300  16.4231940  65.3054750  40.4030280  15.5828600
  64.5805930  39.7378350  16.7334870  68.3859600  45.5023440  20.1207740
  68.0103200  44.7351370  19.6889030  67.6562720  45.8846140  20.6082670
  67.7759220  44.6494960  29.7547260  67.5445310  44.4207710  28.8545210
  68.0363770  45.5694510  29.7092150  66.2147290  39.8751390  32.5326960
  67.0917470  39.8834790  32.9160960  66.2268130  39.1382230  31.9219310
  51.1517510  43.0056940  18.1438780  50.2481590  43.2687140  17.9690440
  51.6358130  43.2768110  17.3638740  67.6610560  43.7280930  23.4214980
  68.1848040  43.2343580  22.7905150  68.2469980  43.8631290  24.1662550
  67.8400280  43.8120800  26.9434530  66.8902990  43.7784340  27.0579520
  68.0213290  44.7220910  26.7084300  67.1510530  42.9854280  19.3607390
  67.6469650  42.7525150  20.1456270  66.9526600  42.1466120  18.9445030
  53.0311070  37.3668000  24.9958430  53.6787260  36.8165380  24.5553590
  53.4512910  37.6211150  25.8174240  68.5797690  41.6215230  21.8945070
  68.4696970  41.4671270  22.8327340  69.3405280  41.0936170  21.6520480
  66.9263410  37.5609360  28.3528070  67.5635630  38.1743500  28.7187260
  67.0738300  37.5970020  27.4077300  69.4687960  39.4523150  15.1351210
  70.3937270  39.3204330  14.9269500  69.4463750  39.5315970  16.0887660
  69.5426450  40.2233810  17.7607920  68.7477950  40.1578930  18.2900830
  69.7469730  41.1584450  17.7493270  54.3907440  50.6943270  31.9036940
  54.3477070  50.3236180  32.7851400  54.5218450  51.6320840  32.0438760
  60.2967890  38.7135550  31.2603170  60.2356780  39.3057380  32.0098580
  61.2368270  38.6061510  31.1153430  62.9342450  38.3705610  30.8995460
  63.5482860  38.6884900  30.2376540  63.4792010  37.8854200  31.5191320
  69.3517630  54.2697240  28.3057300  68.8575910  54.6666110  27.5884430
  68.7430920  53.6446450  28.6994580  63.6750490  36.9337750  27.2264750
  62.8010330  37.2672860  27.0237680  63.5661240  36.4610930  28.0516620
  64.5822470  39.1408620  28.6106470  64.2535830  38.3260380  28.2308200
  65.5304770  39.0978430  28.4872160  67.0357080  54.9120660  25.5844040
  66.5760050  55.6636470  25.2102060  66.4069540  54.1927130  25.5258840
  61.4225310  37.8507590  26.1657660  60.6397100  38.3253090  26.4454420
  61.1288240  36.9462420  26.0570840  65.9746380  38.5530690  24.2106750
  66.4154470  38.4975790  23.3628350  65.7053970  39.4688700  24.2816930
  67.8384950  38.1845930  22.2215570  67.7773350  37.2407150  22.0746590
  68.6176980  38.2926020  22.7669030  59.3079530  40.2694340  21.6773690
  58.4954040  39.8951230  21.3369570  59.8121170  39.5139420  21.9794880
  63.8104510  36.9336790  22.9156760  64.4133880  37.5057000  23.3905280
  63.0697500  37.4976230  22.6930660  66.9539110  37.3358350  18.1897040
  67.1489740  38.2341800  18.4564470  66.1668980  37.1045430  18.6829990
  57.3328710  38.4194260  20.2818740  56.7031450  37.7181570  20.4488870
  56.7933850  39.1798390  20.0651900  60.2720660  55.0333490  32.9529350
  61.1987970  54.7977760  32.9965310  60.2571090  55.8605490  32.4715380
  68.5065720  54.5759060  19.9503600  68.6817910  53.8896800  19.3064520
  67.8087290  55.1006110  19.5580270  55.5108160  51.0818630  17.5085240
  54.8817040  51.5503730  18.0571070  55.6255990  50.2367850  17.9431430
  64.0599730  37.1131820  33.2951700  63.9465180  37.4326430  34.1903220
  64.8769470  37.5144330  32.9988980  66.8398220  54.2603350  32.7770390
  67.6323540  53.7652580  32.5696350  67.1331370  54.9393490  33.3846000
  62.9657880  45.1324290   3.6586440  62.8851930  44.2178900   3.3878150
  62.5522300  45.6291360   2.9526150  61.0975920  46.9103310   5.5395710
  60.3218020  46.4303750   5.8294280  61.7488850  46.2308960   5.3651870
  55.1141750  47.2223120   6.4171470  54.2826630  46.9671830   6.8167980
  55.7222730  47.2933890   7.1529390  65.1183350  51.3163500   4.3194840
  64.6564880  50.5450740   4.6482010  65.9308900  51.3429570   4.8247290
  55.0943010  51.2563210   6.6129490  55.3971050  50.3660950   6.4339710
  55.8386600  51.8133430   6.3851740  51.4866710  44.7830660   6.0853560
  52.0582820  44.0152860   6.0857200  51.4868250  45.0819420   5.1760170
  61.3446660  53.6021510   3.9398830  60.7258100  54.0579010   3.3693270
  62.1998440  53.7572970   3.5388530  60.5384910  49.5860500   5.5465870
  60.4693190  48.6450440   5.3855000  61.3004770  49.6761910   6.1188440
  52.7291580  40.1915020   7.8722490  52.5494420  39.2940770   8.1525250
  52.3271660  40.7386890   8.5469440  61.5690080  42.3930880   5.7734800
  61.9454900  41.5202760   5.6608470  61.4709590  42.7289580   4.8825240
  65.3514200  39.8881320   2.7063140  66.1723820  39.3977890   2.7488620
  65.3848280  40.4778980   3.4594980  53.3478250  42.6875520   6.4804830
  54.0288360  42.9513890   7.0992230  53.0326300  41.8476390   6.8142840
  57.5402820  43.7342880   5.5677420  58.0481040  44.2323850   6.2082440
  58.0716060  42.9578080   5.3916780  69.6413750  41.9048070   9.2706770
  68.9365920  42.2929780   8.7521880  69.9071670  42.5998360   9.8727700
  55.8238920  38.3741440   9.8340840  55.8257360  38.8913830   9.0286740
  54.9943230  37.8971620   9.8110770  57.0741770  48.0136620   8.0114340
  56.7411150  48.6405540   8.6535410  57.2508450  48.5398500   7.2316010
  65.5875680  41.8281700   5.4790680  64.8831250  42.1166590   6.0593790
  65.9487840  42.6381810   5.1190240  55.5054250  40.0851400   7.8411290
  55.8471060  40.9293450   7.5465160  54.5670060  40.2335140   7.9576630
  56.2860870  49.9817420   9.8263520  56.9034870  50.6568500   9.5447970
  55.4253990  50.3905400   9.7351020  67.2038460  51.4456830   7.7418160
  66.5201980  52.1155940   7.7334830  67.7432750  51.6437480   6.9763020
  68.6562600  41.2736490   5.8699890  67.7087510  41.3075470   6.0015320
  68.9812590  42.0875440   6.2549250  59.1882140  37.5733670   4.1655880
  59.4957120  37.0180560   3.4491380  58.2582840  37.7078130   3.9828870
  64.7397200  53.2900960   6.4563340  64.7524360  52.8863250   5.5885600
  64.1872420  54.0648250   6.3524770  64.1382640  48.1930800   7.7845950
  64.5551430  47.9790910   6.9499410  64.8622460  48.4503590   8.3554570
  68.0844740  46.5918020   7.8762190  67.2563370  46.6611110   7.4012320
  68.6795220  47.1772330   7.4078020  65.0486750  43.3787340   8.8217060
  64.6357930  44.2041050   9.0757050  64.3162700  42.7932380   8.6293420
  57.1819540  46.1647240   3.6835730  56.7776540  45.4524490   3.1881630
  57.2682660  45.8200480   4.5723770  57.6501240  49.8514800   5.8474940
  57.3529530  49.2460270   5.1682720  58.6001060  49.8892110   5.7364300
  55.8948160  42.9390450   7.4634770  56.4462750  43.0485790   6.6888020
  56.4091670  43.3128050   8.1790000  65.7386850  53.4246670   9.5098040
  65.2617410  54.2318860   9.3170650  65.0548640  52.7725000   9.6624250
  56.7419670  49.5896490  12.4982740  55.8448200  49.8136460  12.7456140
  56.7672540  49.7131430  11.5494140  55.5690890  46.4609810  11.0740110
  55.4298660  47.3332610  11.4427510  54.6872250  46.1182620  10.9288050
  61.8920270  51.3785680   2.3805240  62.3316180  52.1210010   1.9660630
  61.8307160  51.6212250   3.3044200  57.3671240  52.4031510  13.2825260
  57.3386670  52.8074460  12.4153690  57.2036210  51.4741870  13.1196860
  69.3186060  53.1858610  14.5789430  69.7945780  53.6641500  15.2578510
  69.9393220  53.1176100  13.8534930  51.5209540  48.2307360   6.9911020
  51.5989960  48.3656130   6.0466740  52.1351220  47.5223250   7.1839140
  52.7657170  49.9307550   3.4017200  52.3585250  50.0722140   2.5470800
  53.6570180  49.6467710   3.1988410  68.7219310  50.3771460  11.7389440
  68.8482370  50.1383340  10.8206620  68.7640690  49.5456000  12.2111520
  62.5836050  54.0799460  10.3084250  63.0980720  53.9907470  11.1106680
  61.7405130  54.4259160  10.6012160  63.8266510  53.5005070   2.3714740
  64.2823460  52.7194450   2.6853360  64.1659030  54.2111890   2.9155920
  68.5743320  42.4303920  12.7039180  67.9587590  42.9383590  12.1754640
  68.2539740  41.5302250  12.6465120  51.5769060  49.2721530   9.5305480
  51.7400100  48.8026890   8.7124850  52.0421510  48.7645090  10.1954320
  56.3487830  38.4027290   4.5666050  55.9055980  39.1836830   4.2350570
  56.9072820  38.7257180   5.2736990  60.6357640  41.2695810  10.1701370
  60.1737010  41.4778830  10.9821310  60.2335750  40.4555160   9.8672040
  65.6362150  42.4904760  11.2998030  64.7855740  42.1910510  11.6207100
  65.4763940  42.7346770  10.3881850  62.7311860  43.9906510  13.3996820
  63.0565270  43.1570260  13.0599050  63.5192190  44.5135030  13.5475150
  58.3863730  38.9474620   6.4255650  58.6836060  39.8537450   6.3447670
  58.9349290  38.4593400   5.8115220  56.1402050  43.5260860   2.2947300
  55.9142970  43.3098030   3.1993920  55.3594580  43.9589320   1.9493270
  58.5801260  44.4246440  12.9607570  58.4844860  43.4841170  12.8107970
  59.4233240  44.6461510  12.5655640  61.9764680  42.1687770   2.9241230
  62.3694250  42.4859970   2.1109920  62.3381530  41.2899650   3.0385750
  53.7111800  40.8360110  11.1141350  53.3175190  41.6835320  11.3214130
  53.0230200  40.1986480  11.3049990  51.0128850  38.7588570   5.1471430
  50.7241900  39.3291430   5.8596410  51.7574610  38.2793020   5.5102660
  62.5619820  44.7593520   7.0192010  61.8300940  45.2680330   7.3682110
  62.1644160  43.9423500   6.7180790  58.9997210  41.4347720   5.4244500
  59.0033270  40.9937670   4.5749040  59.8948330  41.7565050   5.5316320
  54.8499590  41.3174210   4.3838710  54.5099640  41.7949440   5.1405760
  54.0876910  40.8639330   4.0239810  63.0245730  40.2127200   6.4314950
  63.0418470  40.6635850   7.2756800  62.7761310  39.3132840   6.6448390
  66.4516480  37.6259380  12.2701330  66.7762250  36.8949040  12.7959310
  66.4872990  37.3073020  11.3682320  53.1508040  48.6472960  11.6901290
  52.7662830  48.0066630  12.2884250  53.4620230  49.3509080  12.2596020
  59.3005180  45.4949500   7.1709910  59.6675310  45.0208070   7.9171250
  59.1110240  46.3691070   7.5118250  52.1645670  40.2393190   3.3003380
  51.8792590  39.8748860   4.1382000  52.1024530  39.5073650   2.6866520
  57.0904550  44.5358140   9.4894120  56.7861620  45.4150120   9.7144480
  58.0451010  44.5957930   9.5251560  66.3774320  47.7384490   5.8787360
  67.0973440  48.2339780   5.4883470  66.1756140  47.0602380   5.2341230
  61.7593120  47.8093550  11.7656360  61.6930430  46.8889220  11.5113950
  61.1298260  47.9068990  12.4801000  55.6623740  48.4099510   3.7239780
  56.1802410  47.6067770   3.6696670  55.2107760  48.3478650   4.5656610
  53.1468280  45.3760880  10.6365480  52.7883220  46.0414730  11.2238820
  52.8522840  44.5444430  11.0078100  56.3481400  45.8345120  13.5205030
  56.0481540  45.9802300  12.6232850  57.1192640  45.2750410  13.4278420
  61.6909850  50.6314120  11.5160160  61.7054390  49.6995080  11.2979070
  60.9834950  50.7173880  12.1549930  67.9021060  47.2721460  10.8628740
  67.1769250  47.8650240  10.6658130  68.4296520  47.2645000  10.0642110
  63.4320650  48.9981630   4.3612590  63.7844470  48.4009760   3.7013960
  62.5482980  48.6725860   4.5320840  59.5183930  49.7579320   1.7683000
  60.2055060  50.3048530   2.1490590  58.7316350  50.3020050   1.8032610
  61.1243750  52.2731690   8.6100660  61.7685970  52.4791070   9.2874080
  61.4873190  51.5120090   8.1571510  62.3975830  50.2764040   7.3278110
  63.0398060  49.5757200   7.4410280  62.9225180  51.0562480   7.1475000
  64.1713450  51.0758940  10.5314170  64.5069690  51.6625630  11.2092090
  63.2513790  50.9451650  10.7611960  51.7216850  38.8654120  11.3137580
  51.0075370  39.0651040  11.9190190  52.1411890  38.0893690  11.6852380
  52.0089440  52.8534380  12.3004110  52.1180560  51.9129120  12.1599500
  51.3570000  53.1189130  11.6517840  60.0002030  51.1250270  13.7002230
  59.6798900  50.4059510  14.2447920  59.3260390  51.8005340  13.7738290
  63.2155630  41.3576430   9.0639030  63.5836450  40.5371640   9.3918600
  62.3553830  41.4178320   9.4794680  60.1757620  44.0116020   9.2877000
  60.6742870  44.4861840   9.9528850  60.3180570  43.0879540   9.4947030
  62.5817120  39.3169980   2.7280260  62.4584900  39.3356110   1.7789770
  63.5301680  39.3648920   2.8478660  67.3824480  40.2283980  10.1305390
  66.8798080  40.9689380  10.4699200  68.1981140  40.6167980   9.8142180
  65.6746490  45.4717160   3.5766750  64.7336630  45.4867390   3.7514440
  65.9890560  44.6853120   4.0227050  67.6772070  52.6426010   5.2521010
  67.8019490  53.4657180   5.7244820  68.5437630  52.4316740   4.9045160
  55.1489600  54.7357220   4.9238140  55.8852080  54.1872680   5.1946710
  55.5330520  55.6013230   4.7844130  54.1547880  53.9203290  14.1123720
  54.9560610  54.2415340  14.5259120  53.6399700  53.5598870  14.8343630
  62.9912510  50.0283160  14.0599130  62.3850670  50.0514760  13.3194880
  62.6866620  49.2966200  14.5966380  64.4212880  53.7563450  12.6708540
  65.3734630  53.6721470  12.6208780  64.2741100  54.4205160  13.3442330
  51.8745690  46.4076750  13.0559770  52.3784710  45.8284030  13.6276000
  51.1353110  46.6916980  13.5936140  58.9283630  47.8147740  12.5895290
  58.1629300  48.3832740  12.5049960  59.1099590  47.5223950  11.6963520
  66.0706980  49.5453070  13.1470310  66.8116450  49.8828830  12.6437770
  65.3079660  49.7145130  12.5940080  55.8474580  43.1298440  11.9184330
  55.3171040  42.6389390  11.2907670  56.5162650  43.5582640  11.3842260
  64.7452640  47.5967900  11.6825520  65.1593660  47.7512980  12.5315940
  63.8103640  47.7223120  11.8451300  65.2174810  44.9364060  13.6864670
  65.7995580  44.1816380  13.5985150  65.3936580  45.4671500  12.9096150
  59.1008320  38.6534050   9.0309010  58.6525620  38.6758310   8.1854560
  58.4673520  38.2553070   9.6279310  59.5067870  47.5488380   9.6521450
  59.9255980  48.3921110   9.4797690  58.5876500  47.6860420   9.4228230
  61.8431770  45.2804560  11.0359290  61.9627980  44.6845700  11.7754130
  62.7025770  45.3174250  10.6160590  64.1819670  45.8341750   9.6121800
  63.6554890  46.3584370   9.0086940  64.5251010  46.4669140  10.2431530
  57.3575290  53.8541390  10.7679180  56.8196380  54.5787450  10.4487880
  57.6109250  53.3771730   9.9776520  58.6100540  41.8225910  12.2935110
  59.2000230  41.5141760  12.9812930  57.7920780  41.3505660  12.4495010
  63.4293970  41.4391720  12.5268130  62.7409490  40.7773260  12.4618120
  64.1499990  40.9929990  12.9716590  60.2137500  55.0892600  11.0265830
  60.1396200  55.9927740  11.3338200  59.3116340  54.7704500  10.9987900
  51.6164790  52.4167190   4.3299450  51.9467800  51.5488250   4.0978090
  52.0455790  52.6225710   5.1604410  52.1055000  53.2837780   7.0681080
  51.6685990  53.4638580   7.9005230  52.6732680  54.0412400   6.9262800
  67.7417180  52.7854780  11.3558390  67.1419170  52.8447340  10.6122310
  67.8711080  51.8459760  11.4855240  51.9379430  45.7958010   3.4269960
  51.2828270  45.5269650   2.7829660  52.7757380  45.6862490   2.9771940
  69.4435060  48.1270180   4.0404230  69.8143890  47.3437500   3.6340200
  70.0836990  48.8159280   3.8621530  66.4268820  49.5106760   9.4534550
  65.6128660  49.9403920   9.7160340  66.8343020  50.1225170   8.8403600
  52.9755360  46.1810580   7.9673300  53.3428400  46.0937980   8.8469320
  52.4066180  45.4177130   7.8680160  67.7759220  44.6494960  10.9803770
  67.5445310  44.4207710  10.0801720  68.0363770  45.5694510  10.9348660
  52.5271360  43.0919670  11.8731720  51.6327410  43.0586430  12.2125430
  53.0668910  43.2906460  12.6382970  66.2147290  39.8751390  13.7583470
  67.0917470  39.8834790  14.1417470  66.2268130  39.1382230  13.1475820
  67.6610560  43.7280930   4.6471490  68.1848040  43.2343580   4.0161660
  68.2469980  43.8631290   5.3919060  67.8400280  43.8120800   8.1691040
  66.8902990  43.7784340   8.2836030  68.0213290  44.7220910   7.9340810
  53.0311070  37.3668000   6.2214940  53.6787260  36.8165380   5.7810100
  53.4512910  37.6211150   7.0430750  68.5797690  41.6215230   3.1201580
  68.4696970  41.4671270   4.0583850  69.3405280  41.0936170   2.8776990
  66.9263410  37.5609360   9.5784580  67.5635630  38.1743500   9.9443770
  67.0738300  37.5970020   8.6333810  66.4844870  54.2625360   2.9802820
  67.0803940  53.9409930   2.3037240  66.7423020  53.7897180   3.7716090
  52.7843070  37.5223670   8.9640260  52.4357890  37.9787490   9.7298440
  52.4530770  36.6280800   9.0462690  54.3907440  50.6943270  13.1293450
  54.3477070  50.3236180  14.0107910  54.5218450  51.6320840  13.2695270
  58.0913470  52.2502860   8.7303170  57.8504830  52.5177420   7.8433690
  59.0316110  52.4208590   8.7854030  60.2967890  38.7135550  12.4859680
  60.2356780  39.3057380  13.2355090  61.2368270  38.6061510  12.3409940
  62.9342450  38.3705610  12.1251970  63.5482860  38.6884900  11.4633050
  63.4792010  37.8854200  12.7447830  69.3517630  54.2697240   9.5313810
  68.8575910  54.6666110   8.8140940  68.7430920  53.6446450   9.9251090
  54.2295470  53.6405520  10.2491230  53.6355790  53.5090220  10.9881270
  54.2219310  52.8043660   9.7833330  63.6750490  36.9337750   8.4521260
  62.8010330  37.2672860   8.2494190  63.5661240  36.4610930   9.2773130
  64.5822470  39.1408620   9.8362980  64.2535830  38.3260380   9.4564710
  65.5304770  39.0978430   9.7128670  67.0357080  54.9120660   6.8100550
  66.5760050  55.6636470   6.4358570  66.4069540  54.1927130   6.7515350
  53.8607700  51.0063900   9.1999270  53.1341760  50.3869190   9.1325220
  53.9216850  51.4004510   8.3297350  57.4652800  53.2208900   5.9848680
  57.9817820  52.6096260   5.4596940  58.1150180  53.7237680   6.4759690
  60.2048300  54.1117390   6.8117660  60.4926110  53.8571690   5.9350670
  60.7171520  53.5594750   7.4023230  61.4225310  37.8507590   7.3914170
  60.6397100  38.3253090   7.6710930  61.1288240  36.9462420   7.2827350
  65.9746380  38.5530690   5.4363260  66.4154470  38.4975790   4.5884860
  65.7053970  39.4688700   5.5073440  67.8384950  38.1845930   3.4472080
  67.7773350  37.2407150   3.3003100  68.6176980  38.2926020   3.9925540
  52.1437700  54.3238290   2.4096030  51.9759740  53.6908970   3.1077920
  51.2772210  54.5297690   2.0590220  59.3079530  40.2694340   2.9030200
  58.4954040  39.8951230   2.5626080  59.8121170  39.5139420   3.2051390
  63.8104510  36.9336790   4.1413270  64.4133880  37.5057000   4.6161790
  63.0697500  37.4976230   3.9187170  60.2720660  55.0333490  14.1785860
  61.1987970  54.7977760  14.2221820  60.2571090  55.8605490  13.6971890
  64.0599730  37.1131820  14.5208210  63.9465180  37.4326430  15.4159730
  64.8769470  37.5144330  14.2245490  66.8398220  54.2603350  14.0026900
  67.6323540  53.7652580  13.7952860  67.1331370  54.9393490  14.6102510
  62.9657880  26.3580800  59.9816910  62.8851930  25.4435410  59.7108620
  62.5522300  26.8547870  59.2756620  61.0975920  28.1359820  61.8626180
  60.3218020  27.6560260  62.1524750  61.7488850  27.4565470  61.6882340
  55.1141750  28.4479630  62.7401940  54.2826630  28.1928340  63.1398450
  55.7222730  28.5190400  63.4759860  65.1183350  32.5420010  60.6425310
  64.6564880  31.7707250  60.9712480  65.9308900  32.5686080  61.1477760
  55.0943010  32.4819720  62.9359960  55.3971050  31.5917460  62.7570180
  55.8386600  33.0389940  62.7082210  53.5233700  23.4081520  56.5244330
  52.6350400  23.7497490  56.4224210  53.8074890  23.2081840  55.6325160
  51.4866710  26.0087170  62.4084030  52.0582820  25.2409370  62.4087670
  51.4868250  26.3075930  61.4990640  61.3446660  34.8278020  60.2629300
  60.7258100  35.2835520  59.6923740  62.1998440  34.9829480  59.8619000
  60.5384910  30.8117010  61.8696340  60.4693190  29.8706950  61.7085470
  61.3004770  30.9018420  62.4418910  52.7291580  21.4171530  64.1952960
  52.5494420  20.5197280  64.4755720  52.3271660  21.9643400  64.8699910
  61.5690080  23.6187390  62.0965270  61.9454900  22.7459270  61.9838940
  61.4709590  23.9546090  61.2055710  55.6995090  21.9913020  57.5582710
  55.8061840  22.8916750  57.8651470  54.7887450  21.9430990  57.2677360
  65.3514200  21.1137830  59.0293610  66.1723820  20.6234400  59.0719090
  65.3848280  21.7035490  59.7825450  53.3478250  23.9132030  62.8035300
  54.0288360  24.1770400  63.4222700  53.0326300  23.0732900  63.1373310
  57.5402820  24.9599390  61.8907890  58.0481040  25.4580360  62.5312910
  58.0716060  24.1834590  61.7147250  62.2110010  29.7117260  57.6561210
  61.5927280  30.1766710  57.0923930  62.7233260  30.4044740  58.0730720
  57.0741770  29.2393130  64.3344810  56.7411150  29.8662050  64.9765880
  57.2508450  29.7655010  63.5546480  65.5875680  23.0538210  61.8021150
  64.8831250  23.3423100  62.3824260  65.9487840  23.8638320  61.4420710
  55.5054250  21.3107910  64.1641760  55.8471060  22.1549960  63.8695630
  54.5670060  21.4591650  64.2807100  51.5793210  30.3973790  55.0300840
  51.2021190  30.8860890  54.2985740  51.8366280  31.0699070  55.6607370
  67.2038460  32.6713340  64.0648630  66.5201980  33.3412450  64.0565300
  67.7432750  32.8693990  63.2993490  68.6562600  22.4993000  62.1930360
  67.7087510  22.5331980  62.3245790  68.9812590  23.3131950  62.5779720
  59.1882140  18.7990180  60.4886350  59.4957120  18.2437070  59.7721850
  58.2582840  18.9334640  60.3059340  64.7397200  34.5157470  62.7793810
  64.7524360  34.1119760  61.9116070  64.1872420  35.2904760  62.6755240
  66.0342620  31.2373690  57.8683980  65.9238950  30.2948020  57.9933400
  66.0310870  31.5989330  58.7546740  64.1382640  29.4187310  64.1076420
  64.5551430  29.2047420  63.2729880  64.8622460  29.6760100  64.6785040
  61.5762900  26.8639010  57.2246470  60.6492180  26.7976390  57.4534940
  61.7287720  27.8019140  57.1101710  61.5631980  23.1356010  54.2213630
  60.6235650  23.2969970  54.3066090  61.8815240  23.8541690  53.6749620
  68.0844740  27.8174530  64.1992660  67.2563370  27.8867620  63.7242790
  68.6795220  28.4028840  63.7308490  65.6060190  28.4259310  57.7281720
  64.9872610  28.0878860  57.0808020  65.5884640  27.7819070  58.4360910
  57.1819540  27.3903750  60.0066200  56.7776540  26.6781000  59.5112100
  57.2682660  27.0456990  60.8954240  57.6501240  31.0771310  62.1705410
  57.3529530  30.4716780  61.4913190  58.6001060  31.1148620  62.0594770
  55.8948160  24.1646960  63.7865240  56.4462750  24.2742300  63.0118490
  56.4091670  24.5384560  64.5020470  63.7824890  27.6646120  54.7354470
  64.2218170  26.8268550  54.5892290  64.4953310  28.2975520  54.8218610
  61.8920270  32.6042190  58.7035710  62.3316180  33.3466520  58.2891100
  61.8307160  32.8468760  59.6274670  67.3642030  18.9188930  53.0495510
  67.0514690  19.0115760  53.9494580  68.1254500  19.4969960  52.9992940
  53.8824170  26.2848730  57.5072850  53.7621770  27.0110820  56.8954120
  53.5725060  25.5151640  57.0300760  51.5209540  29.4563870  63.3141490
  51.5989960  29.5912640  62.3697210  52.1351220  28.7479760  63.5069610
  52.7657170  31.1564060  59.7247670  52.3585250  31.2978650  58.8701270
  53.6570180  30.8724220  59.5218880  64.5590450  35.5911310  56.0598720
  64.3991590  35.3014250  56.9580550  64.3937160  34.8151440  55.5243950
  57.0378830  35.3709840  57.8370340  56.8621310  34.4545380  57.6238140
  56.1834570  35.7297130  58.0768140  64.2616580  33.0998870  54.6196720
  63.5681740  33.0976160  53.9599000  65.0039440  32.6758190  54.1890890
  63.8266510  34.7261580  58.6945210  64.2823460  33.9450960  59.0083830
  64.1659030  35.4368400  59.2386390  56.3487830  19.6283800  60.8896520
  55.9055980  20.4093340  60.5581040  56.9072820  19.9513690  61.5967460
  59.4646650  19.2494500  55.7702350  58.8400830  19.2454370  56.4955660
  59.3776770  18.3825460  55.3738320  58.3863730  20.1731130  62.7486120
  58.6836060  21.0793960  62.6678140  58.9349290  19.6849910  62.1345690
  56.1402050  24.7517370  58.6177770  55.9142970  24.5354540  59.5224390
  55.3594580  25.1845830  58.2723740  63.3699810  24.7580740  57.2168420
  62.7708700  25.4816540  57.0332040  63.9179420  24.6957520  56.4344870
  61.9764680  23.3944280  59.2471700  62.3694250  23.7116480  58.4340390
  62.3381530  22.5156160  59.3616220  51.0128850  19.9845080  61.4701900
  50.7241900  20.5547940  62.1826880  51.7574610  19.5049530  61.8333130
  51.1999080  23.9265200  52.6804620  51.1173750  24.8695960  52.8219610
  50.8482140  23.7840110  51.8016970  62.5619820  25.9850030  63.3422480
  61.8300940  26.4936840  63.6912580  62.1644160  25.1680010  63.0411260
  58.9997210  22.6604230  61.7474970  59.0033270  22.2194180  60.8979510
  59.8948330  22.9821560  61.8546790  54.8499590  22.5430720  60.7069180
  54.5099640  23.0205950  61.4636230  54.0876910  22.0895840  60.3470280
  59.0617360  23.6616310  54.7381730  59.1830180  23.6202790  55.6867550
  58.6765870  24.5240460  54.5828460  63.0245730  21.4383710  62.7545420
  63.0418470  21.8892360  63.5987270  62.7761310  20.5389350  62.9678860
  58.0738860  25.9717450  54.1365030  57.5055760  25.5235700  53.5100940
  58.7827860  26.3310230  53.6030180  59.3005180  26.7206010  63.4940380
  59.6675310  26.2464580  64.2401720  59.1110240  27.5947580  63.8348720
  52.1645670  21.4649700  59.6233850  51.8792590  21.1005370  60.4612470
  52.1024530  20.7330160  59.0096990  55.6186340  29.9675640  56.4091440
  54.8448600  29.4273260  56.2490160  56.3480970  29.4482250  56.0709200
  66.3774320  28.9641000  62.2017830  67.0973440  29.4596290  61.8113940
  66.1756140  28.2858890  61.5571700  61.8384260  20.3578960  56.3447220
  61.0248870  19.8592130  56.2692530  61.6446210  21.1977210  55.9283570
  64.5532650  24.7298610  54.6409380  65.4412270  25.0415840  54.4660720
  64.5237740  23.8570860  54.2489960  55.6623740  29.6356020  60.0470250
  56.1802410  28.8324280  59.9927140  55.2107760  29.5735160  60.8887080
  60.5493240  30.9022300  55.3197550  60.8908940  31.6464530  54.8240870
  59.7205950  31.2153420  55.6822380  66.8246920  26.0410450  54.1089240
  66.7410640  26.4724670  53.2585680  67.5441110  26.5008800  54.5416060
  67.8534170  32.8952710  56.8371370  67.2110330  32.2408330  57.1115090
  67.4664830  33.3007800  56.0612040  63.4320650  30.2238140  60.6843060
  63.7844470  29.6266270  60.0244430  62.5482980  29.8982370  60.8551310
  59.5183930  30.9835830  58.0913470  60.2055060  31.5305040  58.4721060
  58.7316350  31.5276560  58.1263080  51.6576330  26.6008650  53.5830550
  52.5271180  26.8833450  53.8666470  51.1666650  27.4144520  53.4679360
  58.8211140  27.9881860  57.7038830  59.2773920  28.7987110  57.9299020
  58.4699350  27.6705000  58.5357320  54.7222920  18.3319510  58.1761350
  54.5937550  18.3237410  59.1246270  53.8984940  18.6702600  57.8252360
  62.3975830  31.5020550  63.6508580  63.0398060  30.8013710  63.7640750
  62.9225180  32.2818990  63.4705470  66.2431550  31.7869170  53.3747720
  66.0169130  31.0699610  53.9672360  65.8527750  31.5381610  52.5369470
  52.0247580  35.8136030  54.1492180  52.3845220  36.4125370  53.4949450
  51.8839920  36.3595920  54.9227210  65.8247800  29.7041110  55.0361880
  65.5369500  30.1653800  55.8239760  66.6199970  29.2438880  55.3046100
  58.0416200  33.1967230  54.9665850  58.0326300  33.9296920  54.3510360
  57.1214560  32.9498810  55.0592810  53.6422840  28.4182120  55.7112610
  53.0350790  29.1581020  55.7207910  54.1172190  28.5081480  54.8850810
  66.5817660  21.5389880  56.1957060  65.9530820  21.6435550  55.4815290
  66.0869580  21.7586660  56.9850940  61.0275800  33.2595470  53.6291040
  61.1287780  33.0559460  52.6993020  60.1277540  33.0053750  53.8338820
  58.5501690  23.8175830  57.6114940  57.8417840  24.2862170  58.0528550
  58.8346170  23.1597840  58.2460130  62.5817120  20.5426490  59.0510730
  62.4584900  20.5612620  58.1020240  63.5301680  20.5905430  59.1709130
  59.6693910  35.7781790  58.3238710  59.9235410  35.7403180  57.4018080
  58.7206390  35.6515120  58.3166960  56.7536710  22.1260910  54.9865650
  57.6027240  22.5631060  54.9205840  56.3867980  22.4381170  55.8137710
  65.6746490  26.6973670  59.8997220  64.7336630  26.7123900  60.0744910
  65.9890560  25.9109630  60.3457520  55.6528130  28.3793270  53.4601180
  56.4191400  28.2674630  54.0226610  55.7302820  27.6831240  52.8077950
  54.3474890  25.8118340  54.1434070  54.4278480  24.8645850  54.2551470
  55.2394640  26.1425220  54.2494730  67.6772070  33.8682520  61.5751480
  67.8019490  34.6913690  62.0475290  68.5437630  33.6573250  61.2275630
  55.1489600  35.9613730  61.2468610  55.8852080  35.4129190  61.5177180
  55.5330520  36.8269740  61.1074600  52.0335080  32.0287300  57.1210120
  51.1074860  32.2708440  57.1115530  52.4991510  32.8561560  56.9994870
  58.2591910  35.1344040  53.0694180  59.0520520  35.4232870  52.6175970
  57.7396260  34.7036210  52.3906660  67.3122080  34.3614170  54.4930920
  67.0263590  33.9479310  53.6785100  67.1141630  35.2901880  54.3731440
  58.7769310  30.3547450  52.9336530  58.6719950  29.7399800  53.6597910
  58.6093530  29.8313340  52.1499540  62.0172040  29.4167480  53.5378520
  61.4682140  29.8636780  54.1821260  62.6391300  28.9116730  54.0616190
  57.6847160  28.3758400  55.4343820  58.1063580  28.2098270  56.2775210
  57.8098000  27.5658630  54.9398960  60.1974800  27.3996010  52.6820920
  60.7180460  26.6845030  52.3162070  60.8443200  28.0381880  52.9821430
  56.5806060  24.4491630  52.3801980  56.3795120  23.5858990  52.7415320
  56.4098110  24.3624990  51.4423580  64.0594370  19.2599860  54.9088860
  64.3396660  18.4167760  55.2648280  63.2860100  19.4922970  55.4227610
  55.3788860  21.5492250  52.3679860  55.6814760  21.5559680  51.4599010
  56.1183450  21.1990110  52.8647520  58.5973790  20.4926870  53.3536060
  58.2495790  19.8150860  52.7738510  58.7986560  20.0316380  54.1679450
  60.7622830  35.4807620  54.9722660  61.6573620  35.8192590  54.9941420
  60.7940460  34.7587030  54.3446940  54.4018990  30.8534670  53.2009660
  54.8393860  31.3964340  53.8567240  54.8866720  30.0281620  53.2106000
  51.6164790  33.6423700  60.6529920  51.9467800  32.7744760  60.4208560
  52.0455790  33.8482220  61.4834880  56.2126710  31.9732710  58.3131890
  55.9122250  31.8497680  59.2135800  56.1064200  31.1141300  57.9047620
  52.1055000  34.5094290  63.3911550  51.6685990  34.6895090  64.2235700
  52.6732680  35.2668910  63.2493270  68.9818630  31.7529110  53.0158570
  68.1511590  31.8205760  53.4865800  69.1590460  32.6433230  52.7125430
  68.4375090  28.4976590  55.5192770  69.1994000  29.0673240  55.6252460
  68.4529460  27.9303790  56.2901080  51.9379430  27.0214520  59.7500430
  51.2828270  26.7526160  59.1060130  52.7757380  26.9119000  59.3002410
  69.4435060  29.3526690  60.3634700  69.8143890  28.5694010  59.9570670
  70.0836990  30.0415790  60.1852000  68.4894260  28.7910960  52.6765290
  68.7643100  29.6989840  52.5484510  68.3005000  28.7273490  53.6127280
  64.8869870  21.8155810  53.9718920  65.3054750  21.6286790  53.1315580
  64.5805930  20.9634860  54.2821850  68.3859600  26.7279950  57.6694720
  68.0103200  25.9607880  57.2376010  67.6562720  27.1102650  58.1569650
  52.9755360  27.4067090  64.2903770  53.3428400  27.3194490  65.1699790
  52.4066180  26.6433640  64.1910630  51.1517510  24.2313450  55.6925760
  50.2481590  24.4943650  55.5177420  51.6358130  24.5024620  54.9125720
  67.6610560  24.9537440  60.9701960  68.1848040  24.4600090  60.3392130
  68.2469980  25.0887800  61.7149530  67.8400280  25.0377310  64.4921510
  66.8902990  25.0040850  64.6066500  68.0213290  25.9477420  64.2571280
  53.6944720  23.2878990  53.6020140  54.4036420  22.8662210  53.1167420
  52.9784660  23.3554220  52.9703490  53.3418880  19.3418320  52.6422790
  54.0647010  19.8827260  52.9604010  53.6143400  19.0681740  51.7664330
  67.1510530  24.2110790  56.9094370  67.6469650  23.9781660  57.6943250
  66.9526600  23.3722630  56.4932010  53.0311070  18.5924510  62.5445410
  53.6787260  18.0421890  62.1040570  53.4512910  18.8467660  63.3661220
  68.5797690  22.8471740  59.4432050  68.4696970  22.6927780  60.3814320
  69.3405280  22.3192680  59.2007460  69.4687960  20.6779660  52.6838190
  70.3937270  20.5460840  52.4756480  69.4463750  20.7572480  53.6374640
  69.5426450  21.4490320  55.3094900  68.7477950  21.3835440  55.8387810
  69.7469730  22.3840960  55.2980250  66.4844870  35.4881870  59.3033290
  67.0803940  35.1666440  58.6267710  66.7423020  35.0153690  60.0946560
  58.0913470  33.4759370  65.0533640  57.8504830  33.7433930  64.1664160
  59.0316110  33.6465100  65.1084500  67.0357080  36.1377170  63.1331020
  66.5760050  36.8892980  62.7589040  66.4069540  35.4183640  63.0745820
  57.4652800  34.4465410  62.3079150  57.9817820  33.8352770  61.7827410
  58.1150180  34.9494190  62.7990160  60.2048300  35.3373900  63.1348130
  60.4926110  35.0828200  62.2581140  60.7171520  34.7851260  63.7253700
  61.4225310  19.0764100  63.7144640  60.6397100  19.5509600  63.9941400
  61.1288240  18.1718930  63.6057820  65.9746380  19.7787200  61.7593730
  66.4154470  19.7232300  60.9115330  65.7053970  20.6945210  61.8303910
  67.8384950  19.4102440  59.7702550  67.7773350  18.4663660  59.6233570
  68.6176980  19.5182530  60.3156010  52.1437700  35.5494800  58.7326500
  51.9759740  34.9165480  59.4308390  51.2772210  35.7554200  58.3820690
  52.7665720  19.3811580  56.2358360  53.5245080  19.4940460  55.6622390
  52.3042890  20.2180780  56.1901790  59.3079530  21.4950850  59.2260670
  58.4954040  21.1207740  58.8856550  59.8121170  20.7395930  59.5281860
  63.8104510  18.1593300  60.4643740  64.4133880  18.7313510  60.9392260
  63.0697500  18.7232740  60.2417640  66.9539110  18.5614860  55.7384020
  67.1489740  19.4598310  56.0051450  66.1668980  18.3301940  56.2316970
  53.7500400  34.2428030  56.1776640  53.2248020  34.6236060  55.4738600
  53.6744980  34.8678800  56.8986350  55.1390870  19.9075630  54.7760330
  55.6683630  19.1205430  54.6468280  55.7719190  20.5866820  55.0095860
  57.3328710  19.6450770  57.8305720  56.7031450  18.9438080  57.9975850
  56.7933850  20.4054900  57.6138880  68.5065720  35.8015570  57.4990580
  68.6817910  35.1153310  56.8551500  67.8087290  36.3262620  57.1067250
  56.3493370  36.1910410  55.0525890  57.0812190  35.9069690  54.5049780
  56.6087040  35.9523690  55.9425270  55.5108160  32.3075140  55.0572220
  54.8817040  32.7760240  55.6058050  55.6255990  31.4624360  55.4918410
  65.1183350  32.5420010  41.8681820  64.6564880  31.7707250  42.1968990
  65.9308900  32.5686080  42.3734270  61.3446660  34.8278020  41.4885810
  60.7258100  35.2835520  40.9180250  62.1998440  34.9829480  41.0875510
  52.7291580  21.4171530  45.4209470  52.5494420  20.5197280  45.7012230
  52.3271660  21.9643400  46.0956420  69.6413750  23.1304580  46.8193750
  68.9365920  23.5186290  46.3008860  69.9071670  23.8254870  47.4214680
  55.8238920  19.5997950  47.3827820  55.8257360  20.1170340  46.5773720
  54.9943230  19.1228130  47.3597750  55.5054250  21.3107910  45.3898270
  55.8471060  22.1549960  45.0952140  54.5670060  21.4591650  45.5063610
  56.2860870  31.2073930  47.3750500  56.9034870  31.8825010  47.0934950
  55.4253990  31.6161910  47.2838000  67.2038460  32.6713340  45.2905140
  66.5201980  33.3412450  45.2821810  67.7432750  32.8693990  44.5250000
  68.6562600  22.4993000  43.4186870  67.7087510  22.5331980  43.5502300
  68.9812590  23.3131950  43.8036230  59.1882140  18.7990180  41.7142860
  59.4957120  18.2437070  40.9978360  58.2582840  18.9334640  41.5315850
  64.7397200  34.5157470  44.0050320  64.7524360  34.1119760  43.1372580
  64.1872420  35.2904760  43.9011750  64.1382640  29.4187310  45.3332930
  64.5551430  29.2047420  44.4986390  64.8622460  29.6760100  45.9041550
  68.0844740  27.8174530  45.4249170  67.2563370  27.8867620  44.9499300
  68.6795220  28.4028840  44.9565000  65.0486750  24.6043850  46.3704040
  64.6357930  25.4297560  46.6244030  64.3162700  24.0188890  46.1780400
  55.8948160  24.1646960  45.0121750  56.4462750  24.2742300  44.2375000
  56.4091670  24.5384560  45.7276980  65.7386850  34.6503180  47.0585020
  65.2617410  35.4575370  46.8657630  65.0548640  33.9981510  47.2111230
  56.7419670  30.8153000  50.0469720  55.8448200  31.0392970  50.2943120
  56.7672540  30.9387940  49.0981120  55.5690890  27.6866320  48.6227090
  55.4298660  28.5589120  48.9914490  54.6872250  27.3439130  48.4775030
  57.3671240  33.6288020  50.8312240  57.3386670  34.0330970  49.9640670
  57.2036210  32.6998380  50.6683840  67.3642030  18.9188930  34.2752020
  67.0514690  19.0115760  35.1751090  68.1254500  19.4969960  34.2249450
  69.3186060  34.4115120  52.1276410  69.7945780  34.8898010  52.8065490
  69.9393220  34.3432610  51.4021910  68.7219310  31.6027970  49.2876420
  68.8482370  31.3639850  48.3693600  68.7640690  30.7712510  49.7598500
  62.5836050  35.3055970  47.8571230  63.0980720  35.2163980  48.6593660
  61.7405130  35.6515670  48.1499140  64.5590450  35.5911310  37.2855230
  64.3991590  35.3014250  38.1837060  64.3937160  34.8151440  36.7500460
  63.8266510  34.7261580  39.9201720  64.2823460  33.9450960  40.2340340
  64.1659030  35.4368400  40.4642900  68.5743320  23.6560430  50.2526160
  67.9587590  24.1640100  49.7241620  68.2539740  22.7558760  50.1952100
  51.5769060  30.4978040  47.0792460  51.7400100  30.0283400  46.2611830
  52.0421510  29.9901600  47.7441300  56.3487830  19.6283800  42.1153030
  55.9055980  20.4093340  41.7837550  56.9072820  19.9513690  42.8223970
  60.6357640  22.4952320  47.7188350  60.1737010  22.7035340  48.5308290
  60.2335750  21.6811670  47.4159020  65.6362150  23.7161270  48.8485010
  64.7855740  23.4167020  49.1694080  65.4763940  23.9603280  47.9368830
  62.7311860  25.2163020  50.9483800  63.0565270  24.3826770  50.6086030
  63.5192190  25.7391540  51.0962130  59.4646650  19.2494500  36.9958860
  58.8400830  19.2454370  37.7212170  59.3776770  18.3825460  36.5994830
  58.3863730  20.1731130  43.9742630  58.6836060  21.0793960  43.8934650
  58.9349290  19.6849910  43.3602200  58.5801260  25.6502950  50.5094550
  58.4844860  24.7097680  50.3594950  59.4233240  25.8718020  50.1142620
  53.7111800  22.0616620  48.6628330  53.3175190  22.9091830  48.8701110
  53.0230200  21.4242990  48.8536970  60.2856850  22.1451590  51.7325070
  59.5955170  21.9523790  52.3671160  61.0289150  22.4286230  52.2649370
  51.0128850  19.9845080  42.6958410  50.7241900  20.5547940  43.4083390
  51.7574610  19.5049530  43.0589640  58.9997210  22.6604230  42.9731480
  59.0033270  22.2194180  42.1236020  59.8948330  22.9821560  43.0803300
  54.8499590  22.5430720  41.9325690  54.5099640  23.0205950  42.6892740
  54.0876910  22.0895840  41.5726790  66.4516480  18.8515890  49.8188310
  66.7762250  18.1205550  50.3446290  66.4872990  18.5329530  48.9169300
  53.1508040  29.8729470  49.2388270  52.7662830  29.2323140  49.8371230
  53.4620230  30.5765590  49.8083000  52.1645670  21.4649700  40.8490360
  51.8792590  21.1005370  41.6868980  52.1024530  20.7330160  40.2353500
  57.0904550  25.7614650  47.0381100  56.7861620  26.6406630  47.2631460
  58.0451010  25.8214440  47.0738540  66.3774320  28.9641000  43.4274340
  67.0973440  29.4596290  43.0370450  66.1756140  28.2858890  42.7828210
  61.8384260  20.3578960  37.5703730  61.0248870  19.8592130  37.4949040
  61.6446210  21.1977210  37.1540080  61.7593120  29.0350060  49.3143340
  61.6930430  28.1145730  49.0600930  61.1298260  29.1325500  50.0287980
  53.1468280  26.6017390  48.1852460  52.7883220  27.2671240  48.7725800
  52.8522840  25.7700940  48.5565080  56.3481400  27.0601630  51.0692010
  56.0481540  27.2058810  50.1719830  57.1192640  26.5006920  50.9765400
  61.6909850  31.8570630  49.0647140  61.7054390  30.9251590  48.8466050
  60.9834950  31.9430390  49.7036910  67.9021060  28.4977970  48.4115720
  67.1769250  29.0906750  48.2145110  68.4296520  28.4901510  47.6129090
  67.8534170  32.8952710  38.0627880  67.2110330  32.2408330  38.3371600
  67.4664830  33.3007800  37.2868550  61.1243750  33.4988200  46.1587640
  61.7685970  33.7047580  46.8361060  61.4873190  32.7376600  45.7058490
  54.7222920  18.3319510  39.4017860  54.5937550  18.3237410  40.3502780
  53.8984940  18.6702600  39.0508870  62.3975830  31.5020550  44.8765090
  63.0398060  30.8013710  44.9897260  62.9225180  32.2818990  44.6961980
  64.1713450  32.3015450  48.0801150  64.5069690  32.8882140  48.7579070
  63.2513790  32.1708160  48.3098940  51.7216850  20.0910630  48.8624560
  51.0075370  20.2907550  49.4677170  52.1411890  19.3150200  49.2339360
  52.0089440  34.0790890  49.8491090  52.1180560  33.1385630  49.7086480
  51.3570000  34.3445640  49.2004820  60.0002030  32.3506780  51.2489210
  59.6798900  31.6316020  51.7934900  59.3260390  33.0261850  51.3225270
  63.2155630  22.5832940  46.6126010  63.5836450  21.7628150  46.9405580
  62.3553830  22.6434830  47.0281660  66.5817660  21.5389880  37.4213570
  65.9530820  21.6435550  36.7071800  66.0869580  21.7586660  38.2107450
  60.1757620  25.2372530  46.8363980  60.6742870  25.7118350  47.5015830
  60.3180570  24.3136050  47.0434010  62.5817120  20.5426490  40.2767240
  62.4584900  20.5612620  39.3276750  63.5301680  20.5905430  40.3965640
  67.3824480  21.4540490  47.6792370  66.8798080  22.1945890  48.0186180
  68.1981140  21.8424490  47.3629160  67.6772070  33.8682520  42.8007990
  67.8019490  34.6913690  43.2731800  68.5437630  33.6573250  42.4532140
  54.1547880  35.1459800  51.6610700  54.9560610  35.4671850  52.0746100
  53.6399700  34.7855380  52.3830610  62.9912510  31.2539670  51.6086110
  62.3850670  31.2771270  50.8681860  62.6866620  30.5222710  52.1453360
  64.4212880  34.9819960  50.2195520  65.3734630  34.8977980  50.1695760
  64.2741100  35.6461670  50.8929310  67.3122080  34.3614170  35.7187430
  67.0263590  33.9479310  34.9041610  67.1141630  35.2901880  35.5987950
  51.8745690  27.6333260  50.6046750  52.3784710  27.0540540  51.1762980
  51.1353110  27.9173490  51.1423120  58.9283630  29.0404250  50.1382270
  58.1629300  29.6089250  50.0536940  59.1099590  28.7480460  49.2450500
  66.0706980  30.7709580  50.6957290  66.8116450  31.1085340  50.1924750
  65.3079660  30.9401640  50.1427060  53.9068770  25.7762850  51.4996820
  53.9474110  25.4776720  52.4082050  54.7614270  26.1770460  51.3404340
  55.8474580  24.3554950  49.4671310  55.3171040  23.8645900  48.8394650
  56.5162650  24.7839150  48.9329240  64.7452640  28.8224410  49.2312500
  65.1593660  28.9769490  50.0802920  63.8103640  28.9479630  49.3938280
  65.2174810  26.1620570  51.2351650  65.7995580  25.4072890  51.1472130
  65.3936580  26.6928010  50.4583130  56.3346880  21.3217320  49.5468600
  56.2403750  20.7038070  48.8219470  55.7544270  22.0483610  49.3198510
  59.1008320  19.8790560  46.5795990  58.6525620  19.9014820  45.7341540
  58.4673520  19.4809580  47.1766290  59.5067870  28.7744890  47.2008430
  59.9255980  29.6177620  47.0284670  58.5876500  28.9116930  46.9715210
  61.8431770  26.5061070  48.5846270  61.9627980  25.9102210  49.3241110
  62.7025770  26.5430760  48.1647570  64.1819670  27.0598260  47.1608780
  63.6554890  27.5840880  46.5573920  64.5251010  27.6925650  47.7918510
  57.3575290  35.0797900  48.3166160  56.8196380  35.8043960  47.9974860
  57.6109250  34.6028240  47.5263500  58.6100540  23.0482420  49.8422090
  59.2000230  22.7398270  50.5299910  57.7920780  22.5762170  49.9981990
  63.4293970  22.6648230  50.0755110  62.7409490  22.0029770  50.0105100
  64.1499990  22.2186500  50.5203570  64.0594370  19.2599860  36.1345370
  64.3396660  18.4167760  36.4904790  63.2860100  19.4922970  36.6484120
  60.2137500  36.3149110  48.5752810  60.1396200  37.2184250  48.8825180
  59.3116340  35.9961010  48.5474880  67.7417180  34.0111290  48.9045370
  67.1419170  34.0703850  48.1609290  67.8711080  33.0716270  49.0342220
  68.9818630  31.7529110  34.2415080  68.1511590  31.8205760  34.7122310
  69.1590460  32.6433230  33.9381940  69.4435060  29.3526690  41.5891210
  69.8143890  28.5694010  41.1827180  70.0836990  30.0415790  41.4108510
  66.4268820  30.7363270  47.0021530  65.6128660  31.1660430  47.2647320
  66.8343020  31.3481680  46.3890580  64.8869870  21.8155810  35.1975430
  65.3054750  21.6286790  34.3572090  64.5805930  20.9634860  35.5078360
  68.3859600  26.7279950  38.8951230  68.0103200  25.9607880  38.4632520
  67.6562720  27.1102650  39.3826160  67.7759220  25.8751470  48.5290750
  67.5445310  25.6464220  47.6288700  68.0363770  26.7951020  48.4835640
  52.5271360  24.3176180  49.4218700  51.6327410  24.2842940  49.7612410
  53.0668910  24.5162970  50.1869950  66.2147290  21.1007900  51.3070450
  67.0917470  21.1091300  51.6904450  66.2268130  20.3638740  50.6962800
  67.6610560  24.9537440  42.1958470  68.1848040  24.4600090  41.5648640
  68.2469980  25.0887800  42.9406040  67.8400280  25.0377310  45.7178020
  66.8902990  25.0040850  45.8323010  68.0213290  25.9477420  45.4827790
  67.1510530  24.2110790  38.1350880  67.6469650  23.9781660  38.9199760
  66.9526600  23.3722630  37.7188520  53.0311070  18.5924510  43.7701920
  53.6787260  18.0421890  43.3297080  53.4512910  18.8467660  44.5917730
  68.5797690  22.8471740  40.6688560  68.4696970  22.6927780  41.6070830
  69.3405280  22.3192680  40.4263970  66.9263410  18.7865870  47.1271560
  67.5635630  19.4000010  47.4930750  67.0738300  18.8226530  46.1820790
  69.4687960  20.6779660  33.9094700  70.3937270  20.5460840  33.7012990
  69.4463750  20.7572480  34.8631150  69.5426450  21.4490320  36.5351410
  68.7477950  21.3835440  37.0644320  69.7469730  22.3840960  36.5236760
  66.4844870  35.4881870  40.5289800  67.0803940  35.1666440  39.8524220
  66.7423020  35.0153690  41.3203070  52.7843070  18.7480180  46.5127240
  52.4357890  19.2044000  47.2785420  52.4530770  17.8537310  46.5949670
  54.3907440  31.9199780  50.6780430  54.3477070  31.5492690  51.5594890
  54.5218450  32.8577350  50.8182250  58.0913470  33.4759370  46.2790150
  57.8504830  33.7433930  45.3920670  59.0316110  33.6465100  46.3341010
  60.2967890  19.9392060  50.0346660  60.2356780  20.5313890  50.7842070
  61.2368270  19.8318020  49.8896920  62.9342450  19.5962120  49.6738950
  63.5482860  19.9141410  49.0120030  63.4792010  19.1110710  50.2934810
  69.3517630  35.4953750  47.0800790  68.8575910  35.8922620  46.3627920
  68.7430920  34.8702960  47.4738070  53.4563710  18.2756380  49.7878010
  54.0046700  18.0944430  49.0244120  53.5219020  17.4850490  50.3234320
  54.2295470  34.8662030  47.7978210  53.6355790  34.7346730  48.5368250
  54.2219310  34.0300170  47.3320310  63.6750490  18.1594260  46.0008240
  62.8010330  18.4929370  45.7981170  63.5661240  17.6867440  46.8260110
  64.5822470  20.3665130  47.3849960  64.2535830  19.5516890  47.0051690
  65.5304770  20.3234940  47.2615650  67.0357080  36.1377170  44.3587530
  66.5760050  36.8892980  43.9845550  66.4069540  35.4183640  44.3002330
  53.8607700  32.2320410  46.7486250  53.1341760  31.6125700  46.6812200
  53.9216850  32.6261020  45.8784330  57.4652800  34.4465410  43.5335660
  57.9817820  33.8352770  43.0083920  58.1150180  34.9494190  44.0246670
  60.2048300  35.3373900  44.3604640  60.4926110  35.0828200  43.4837650
  60.7171520  34.7851260  44.9510210  61.4225310  19.0764100  44.9401150
  60.6397100  19.5509600  45.2197910  61.1288240  18.1718930  44.8314330
  65.9746380  19.7787200  42.9850240  66.4154470  19.7232300  42.1371840
  65.7053970  20.6945210  43.0560420  67.8384950  19.4102440  40.9959060
  67.7773350  18.4663660  40.8490080  68.6176980  19.5182530  41.5412520
  52.7665720  19.3811580  37.4614870  53.5245080  19.4940460  36.8878900
  52.3042890  20.2180780  37.4158300  59.3079530  21.4950850  40.4517180
  58.4954040  21.1207740  40.1113060  59.8121170  20.7395930  40.7538370
  63.8104510  18.1593300  41.6900250  64.4133880  18.7313510  42.1648770
  63.0697500  18.7232740  41.4674150  66.9539110  18.5614860  36.9640530
  67.1489740  19.4598310  37.2307960  66.1668980  18.3301940  37.4573480
  57.3328710  19.6450770  39.0562230  56.7031450  18.9438080  39.2232360
  56.7933850  20.4054900  38.8395390  60.2720660  36.2590000  51.7272840
  61.1987970  36.0234270  51.7708800  60.2571090  37.0862000  51.2458870
  68.5065720  35.8015570  38.7247090  68.6817910  35.1153310  38.0808010
  67.8087290  36.3262620  38.3323760  57.4584270  18.9234750  51.4914720
  57.1768540  19.4268350  50.7275540  57.8403970  18.1256500  51.1256850
  64.0599730  18.3388330  52.0695190  63.9465180  18.6582940  52.9646710
  64.8769470  18.7400840  51.7732470  66.8398220  35.4859860  51.5513880
  67.6323540  34.9909090  51.3439840  67.1331370  36.1650000  52.1589490
  62.9657880  26.3580800  22.4329930  62.8851930  25.4435410  22.1621640
  62.5522300  26.8547870  21.7269640  61.0975920  28.1359820  24.3139200
  60.3218020  27.6560260  24.6037770  61.7488850  27.4565470  24.1395360
  65.1183350  32.5420010  23.0938330  64.6564880  31.7707250  23.4225500
  65.9308900  32.5686080  23.5990780  53.5233700  23.4081520  18.9757350
  52.6350400  23.7497490  18.8737230  53.8074890  23.2081840  18.0838180
  61.3446660  34.8278020  22.7142320  60.7258100  35.2835520  22.1436760
  62.1998440  34.9829480  22.3132020  60.5384910  30.8117010  24.3209360
  60.4693190  29.8706950  24.1598490  61.3004770  30.9018420  24.8931930
  52.7291580  21.4171530  26.6465980  52.5494420  20.5197280  26.9268740
  52.3271660  21.9643400  27.3212930  61.5690080  23.6187390  24.5478290
  61.9454900  22.7459270  24.4351960  61.4709590  23.9546090  23.6568730
  55.6995090  21.9913020  20.0095730  55.8061840  22.8916750  20.3164490
  54.7887450  21.9430990  19.7190380  65.3514200  21.1137830  21.4806630
  66.1723820  20.6234400  21.5232110  65.3848280  21.7035490  22.2338470
  53.3478250  23.9132030  25.2548320  54.0288360  24.1770400  25.8735720
  53.0326300  23.0732900  25.5886330  57.5402820  24.9599390  24.3420910
  58.0481040  25.4580360  24.9825930  58.0716060  24.1834590  24.1660270
  69.6413750  23.1304580  28.0450260  68.9365920  23.5186290  27.5265370
  69.9071670  23.8254870  28.6471190  55.8238920  19.5997950  28.6084330
  55.8257360  20.1170340  27.8030230  54.9943230  19.1228130  28.5854260
  62.2110010  29.7117260  20.1074230  61.5927280  30.1766710  19.5436950
  62.7233260  30.4044740  20.5243740  65.5875680  23.0538210  24.2534170
  64.8831250  23.3423100  24.8337280  65.9487840  23.8638320  23.8933730
  55.5054250  21.3107910  26.6154780  55.8471060  22.1549960  26.3208650
  54.5670060  21.4591650  26.7320120  51.5793210  30.3973790  17.4813860
  51.2021190  30.8860890  16.7498760  51.8366280  31.0699070  18.1120390
  67.2038460  32.6713340  26.5161650  66.5201980  33.3412450  26.5078320
  67.7432750  32.8693990  25.7506510  68.6562600  22.4993000  24.6443380
  67.7087510  22.5331980  24.7758810  68.9812590  23.3131950  25.0292740
  59.1882140  18.7990180  22.9399370  59.4957120  18.2437070  22.2234870
  58.2582840  18.9334640  22.7572360  64.7397200  34.5157470  25.2306830
  64.7524360  34.1119760  24.3629090  64.1872420  35.2904760  25.1268260
  66.0342620  31.2373690  20.3197000  65.9238950  30.2948020  20.4446420
  66.0310870  31.5989330  21.2059760  61.5762900  26.8639010  19.6759490
  60.6492180  26.7976390  19.9047960  61.7287720  27.8019140  19.5614730
  61.5631980  23.1356010  16.6726650  60.6235650  23.2969970  16.7579110
  61.8815240  23.8541690  16.1262640  65.6060190  28.4259310  20.1794740
  64.9872610  28.0878860  19.5321040  65.5884640  27.7819070  20.8873930
  65.0486750  24.6043850  27.5960550  64.6357930  25.4297560  27.8500540
  64.3162700  24.0188890  27.4036910  57.1819540  27.3903750  22.4579220
  56.7776540  26.6781000  21.9625120  57.2682660  27.0456990  23.3467260
  57.6501240  31.0771310  24.6218430  57.3529530  30.4716780  23.9426210
  58.6001060  31.1148620  24.5107790  55.8948160  24.1646960  26.2378260
  56.4462750  24.2742300  25.4631510  56.4091670  24.5384560  26.9533490
  65.7386850  34.6503180  28.2841530  65.2617410  35.4575370  28.0914140
  65.0548640  33.9981510  28.4367740  63.7824890  27.6646120  17.1867490
  64.2218170  26.8268550  17.0405310  64.4953310  28.2975520  17.2731630
  61.8920270  32.6042190  21.1548730  62.3316180  33.3466520  20.7404120
  61.8307160  32.8468760  22.0787690  67.3642030  18.9188930  15.5008530
  67.0514690  19.0115760  16.4007600  68.1254500  19.4969960  15.4505960
  53.8824170  26.2848730  19.9585870  53.7621770  27.0110820  19.3467140
  53.5725060  25.5151640  19.4813780  69.3186060  34.4115120  33.3532920
  69.7945780  34.8898010  34.0322000  69.9393220  34.3432610  32.6278420
  62.5836050  35.3055970  29.0827740  63.0980720  35.2163980  29.8850170
  61.7405130  35.6515670  29.3755650  64.5590450  35.5911310  18.5111740
  64.3991590  35.3014250  19.4093570  64.3937160  34.8151440  17.9756970
  57.0378830  35.3709840  20.2883360  56.8621310  34.4545380  20.0751160
  56.1834570  35.7297130  20.5281160  64.2616580  33.0998870  17.0709740
  63.5681740  33.0976160  16.4112020  65.0039440  32.6758190  16.6403910
  63.8266510  34.7261580  21.1458230  64.2823460  33.9450960  21.4596850
  64.1659030  35.4368400  21.6899410  68.5743320  23.6560430  31.4782670
  67.9587590  24.1640100  30.9498130  68.2539740  22.7558760  31.4208610
  56.3487830  19.6283800  23.3409540  55.9055980  20.4093340  23.0094060
  56.9072820  19.9513690  24.0480480  60.6357640  22.4952320  28.9444860
  60.1737010  22.7035340  29.7564800  60.2335750  21.6811670  28.6415530
  65.6362150  23.7161270  30.0741520  64.7855740  23.4167020  30.3950590
  65.4763940  23.9603280  29.1625340  59.4646650  19.2494500  18.2215370
  58.8400830  19.2454370  18.9468680  59.3776770  18.3825460  17.8251340
  58.3863730  20.1731130  25.1999140  58.6836060  21.0793960  25.1191160
  58.9349290  19.6849910  24.5858710  56.1402050  24.7517370  21.0690790
  55.9142970  24.5354540  21.9737410  55.3594580  25.1845830  20.7236760
  63.3699810  24.7580740  19.6681440  62.7708700  25.4816540  19.4845060
  63.9179420  24.6957520  18.8857890  61.9764680  23.3944280  21.6984720
  62.3694250  23.7116480  20.8853410  62.3381530  22.5156160  21.8129240
  60.2856850  22.1451590  32.9581580  59.5955170  21.9523790  33.5927670
  61.0289150  22.4286230  33.4905880  51.0128850  19.9845080  23.9214920
  50.7241900  20.5547940  24.6339900  51.7574610  19.5049530  24.2846150
  51.1999080  23.9265200  15.1317640  51.1173750  24.8695960  15.2732630
  50.8482140  23.7840110  14.2529990  62.5619820  25.9850030  25.7935500
  61.8300940  26.4936840  26.1425600  62.1644160  25.1680010  25.4924280
  58.9997210  22.6604230  24.1987990  59.0033270  22.2194180  23.3492530
  59.8948330  22.9821560  24.3059810  54.8499590  22.5430720  23.1582200
  54.5099640  23.0205950  23.9149250  54.0876910  22.0895840  22.7983300
  59.0617360  23.6616310  17.1894750  59.1830180  23.6202790  18.1380570
  58.6765870  24.5240460  17.0341480  63.0245730  21.4383710  25.2058440
  63.0418470  21.8892360  26.0500290  62.7761310  20.5389350  25.4191880
  58.0738860  25.9717450  16.5878050  57.5055760  25.5235700  15.9613960
  58.7827860  26.3310230  16.0543200  66.4516480  18.8515890  31.0444820
  66.7762250  18.1205550  31.5702800  66.4872990  18.5329530  30.1425810
  59.3005180  26.7206010  25.9453400  59.6675310  26.2464580  26.6914740
  59.1110240  27.5947580  26.2861740  52.1645670  21.4649700  22.0746870
  51.8792590  21.1005370  22.9125490  52.1024530  20.7330160  21.4610010
  55.6186340  29.9675640  18.8604460  54.8448600  29.4273260  18.7003180
  56.3480970  29.4482250  18.5222220  66.3774320  28.9641000  24.6530850
  67.0973440  29.4596290  24.2626960  66.1756140  28.2858890  24.0084720
  61.8384260  20.3578960  18.7960240  61.0248870  19.8592130  18.7205550
  61.6446210  21.1977210  18.3796590  64.5532650  24.7298610  17.0922400
  65.4412270  25.0415840  16.9173740  64.5237740  23.8570860  16.7002980
  60.5493240  30.9022300  17.7710570  60.8908940  31.6464530  17.2753890
  59.7205950  31.2153420  18.1335400  66.8246920  26.0410450  16.5602260
  66.7410640  26.4724670  15.7098700  67.5441110  26.5008800  16.9929080
  67.8534170  32.8952710  19.2884390  67.2110330  32.2408330  19.5628110
  67.4664830  33.3007800  18.5125060  63.4320650  30.2238140  23.1356080
  63.7844470  29.6266270  22.4757450  62.5482980  29.8982370  23.3064330
  59.5183930  30.9835830  20.5426490  60.2055060  31.5305040  20.9234080
  58.7316350  31.5276560  20.5776100  51.6576330  26.6008650  16.0343570
  52.5271180  26.8833450  16.3179490  51.1666650  27.4144520  15.9192380
  58.8211140  27.9881860  20.1551850  59.2773920  28.7987110  20.3812040
  58.4699350  27.6705000  20.9870340  61.1243750  33.4988200  27.3844150
  61.7685970  33.7047580  28.0617570  61.4873190  32.7376600  26.9315000
  54.7222920  18.3319510  20.6274370  54.5937550  18.3237410  21.5759290
  53.8984940  18.6702600  20.2765380  62.3975830  31.5020550  26.1021600
  63.0398060  30.8013710  26.2153770  62.9225180  32.2818990  25.9218490
  66.2431550  31.7869170  15.8260740  66.0169130  31.0699610  16.4185380
  65.8527750  31.5381610  14.9882490  65.8247800  29.7041110  17.4874900
  65.5369500  30.1653800  18.2752780  66.6199970  29.2438880  17.7559120
  58.0416200  33.1967230  17.4178870  58.0326300  33.9296920  16.8023380
  57.1214560  32.9498810  17.5105830  53.6422840  28.4182120  18.1625630
  53.0350790  29.1581020  18.1720930  54.1172190  28.5081480  17.3363830
  63.2155630  22.5832940  27.8382520  63.5836450  21.7628150  28.1662090
  62.3553830  22.6434830  28.2538170  66.5817660  21.5389880  18.6470080
  65.9530820  21.6435550  17.9328310  66.0869580  21.7586660  19.4363960
  61.0275800  33.2595470  16.0804060  61.1287780  33.0559460  15.1506040
  60.1277540  33.0053750  16.2851840  58.5501690  23.8175830  20.0627960
  57.8417840  24.2862170  20.5041570  58.8346170  23.1597840  20.6973150
  60.1757620  25.2372530  28.0620490  60.6742870  25.7118350  28.7272340
  60.3180570  24.3136050  28.2690520  62.5817120  20.5426490  21.5023750
  62.4584900  20.5612620  20.5533260  63.5301680  20.5905430  21.6222150
  59.6693910  35.7781790  20.7751730  59.9235410  35.7403180  19.8531100
  58.7206390  35.6515120  20.7679980  56.7536710  22.1260910  17.4378670
  57.6027240  22.5631060  17.3718860  56.3867980  22.4381170  18.2650730
  67.3824480  21.4540490  28.9048880  66.8798080  22.1945890  29.2442690
  68.1981140  21.8424490  28.5885670  65.6746490  26.6973670  22.3510240
  64.7336630  26.7123900  22.5257930  65.9890560  25.9109630  22.7970540
  55.6528130  28.3793270  15.9114200  56.4191400  28.2674630  16.4739630
  55.7302820  27.6831240  15.2590970  54.3474890  25.8118340  16.5947090
  54.4278480  24.8645850  16.7064490  55.2394640  26.1425220  16.7007750
  67.6772070  33.8682520  24.0264500  67.8019490  34.6913690  24.4988310
  68.5437630  33.6573250  23.6788650  55.1489600  35.9613730  23.6981630
  55.8852080  35.4129190  23.9690200  55.5330520  36.8269740  23.5587620
  52.0335080  32.0287300  19.5723140  51.1074860  32.2708440  19.5628550
  52.4991510  32.8561560  19.4507890  64.4212880  34.9819960  31.4452030
  65.3734630  34.8977980  31.3952270  64.2741100  35.6461670  32.1185820
  67.3122080  34.3614170  16.9443940  67.0263590  33.9479310  16.1298120
  67.1141630  35.2901880  16.8244460  58.7769310  30.3547450  15.3849550
  58.6719950  29.7399800  16.1110930  58.6093530  29.8313340  14.6012560
  62.0172040  29.4167480  15.9891540  61.4682140  29.8636780  16.6334280
  62.6391300  28.9116730  16.5129210  57.6847160  28.3758400  17.8856840
  58.1063580  28.2098270  18.7288230  57.8098000  27.5658630  17.3911980
  60.1974800  27.3996010  15.1333940  60.7180460  26.6845030  14.7675090
  60.8443200  28.0381880  15.4334450  59.1008320  19.8790560  27.8052500
  58.6525620  19.9014820  26.9598050  58.4673520  19.4809580  28.4022800
  56.5806060  24.4491630  14.8315000  56.3795120  23.5858990  15.1928340
  56.4098110  24.3624990  13.8936600  58.6100540  23.0482420  31.0678600
  59.2000230  22.7398270  31.7556420  57.7920780  22.5762170  31.2238500
  63.4293970  22.6648230  31.3011620  62.7409490  22.0029770  31.2361610
  64.1499990  22.2186500  31.7460080  64.0594370  19.2599860  17.3601880
  64.3396660  18.4167760  17.7161300  63.2860100  19.4922970  17.8740630
  55.3788860  21.5492250  14.8192880  55.6814760  21.5559680  13.9112030
  56.1183450  21.1990110  15.3160540  58.5973790  20.4926870  15.8049080
  58.2495790  19.8150860  15.2251530  58.7986560  20.0316380  16.6192470
  60.7622830  35.4807620  17.4235680  61.6573620  35.8192590  17.4454440
  60.7940460  34.7587030  16.7959960  54.4018990  30.8534670  15.6522680
  54.8393860  31.3964340  16.3080260  54.8866720  30.0281620  15.6619020
  56.2126710  31.9732710  20.7644910  55.9122250  31.8497680  21.6648820
  56.1064200  31.1141300  20.3560640  67.7417180  34.0111290  30.1301880
  67.1419170  34.0703850  29.3865800  67.8711080  33.0716270  30.2598730
  68.9818630  31.7529110  15.4671590  68.1511590  31.8205760  15.9378820
  69.1590460  32.6433230  15.1638450  68.4375090  28.4976590  17.9705790
  69.1994000  29.0673240  18.0765480  68.4529460  27.9303790  18.7414100
  69.4435060  29.3526690  22.8147720  69.8143890  28.5694010  22.4083690
  70.0836990  30.0415790  22.6365020  68.4894260  28.7910960  15.1278310
  68.7643100  29.6989840  14.9997530  68.3005000  28.7273490  16.0640300
  64.8869870  21.8155810  16.4231940  65.3054750  21.6286790  15.5828600
  64.5805930  20.9634860  16.7334870  68.3859600  26.7279950  20.1207740
  68.0103200  25.9607880  19.6889030  67.6562720  27.1102650  20.6082670
  66.2147290  21.1007900  32.5326960  67.0917470  21.1091300  32.9160960
  66.2268130  20.3638740  31.9219310  51.1517510  24.2313450  18.1438780
  50.2481590  24.4943650  17.9690440  51.6358130  24.5024620  17.3638740
  67.6610560  24.9537440  23.4214980  68.1848040  24.4600090  22.7905150
  68.2469980  25.0887800  24.1662550  53.6944720  23.2878990  16.0533160
  54.4036420  22.8662210  15.5680440  52.9784660  23.3554220  15.4216510
  53.3418880  19.3418320  15.0935810  54.0647010  19.8827260  15.4117030
  53.6143400  19.0681740  14.2177350  67.1510530  24.2110790  19.3607390
  67.6469650  23.9781660  20.1456270  66.9526600  23.3722630  18.9445030
  53.0311070  18.5924510  24.9958430  53.6787260  18.0421890  24.5553590
  53.4512910  18.8467660  25.8174240  68.5797690  22.8471740  21.8945070
  68.4696970  22.6927780  22.8327340  69.3405280  22.3192680  21.6520480
  66.9263410  18.7865870  28.3528070  67.5635630  19.4000010  28.7187260
  67.0738300  18.8226530  27.4077300  69.4687960  20.6779660  15.1351210
  70.3937270  20.5460840  14.9269500  69.4463750  20.7572480  16.0887660
  69.5426450  21.4490320  17.7607920  68.7477950  21.3835440  18.2900830
  69.7469730  22.3840960  17.7493270  66.4844870  35.4881870  21.7546310
  67.0803940  35.1666440  21.0780730  66.7423020  35.0153690  22.5459580
  52.7843070  18.7480180  27.7383750  52.4357890  19.2044000  28.5041930
  52.4530770  17.8537310  27.8206180  60.2967890  19.9392060  31.2603170
  60.2356780  20.5313890  32.0098580  61.2368270  19.8318020  31.1153430
  62.9342450  19.5962120  30.8995460  63.5482860  19.9141410  30.2376540
  63.4792010  19.1110710  31.5191320  69.3517630  35.4953750  28.3057300
  68.8575910  35.8922620  27.5884430  68.7430920  34.8702960  28.6994580
  63.6750490  18.1594260  27.2264750  62.8010330  18.4929370  27.0237680
  63.5661240  17.6867440  28.0516620  64.5822470  20.3665130  28.6106470
  64.2535830  19.5516890  28.2308200  65.5304770  20.3234940  28.4872160
  67.0357080  36.1377170  25.5844040  66.5760050  36.8892980  25.2102060
  66.4069540  35.4183640  25.5258840  57.4652800  34.4465410  24.7592170
  57.9817820  33.8352770  24.2340430  58.1150180  34.9494190  25.2503180
  60.2048300  35.3373900  25.5861150  60.4926110  35.0828200  24.7094160
  60.7171520  34.7851260  26.1766720  61.4225310  19.0764100  26.1657660
  60.6397100  19.5509600  26.4454420  61.1288240  18.1718930  26.0570840
  65.9746380  19.7787200  24.2106750  66.4154470  19.7232300  23.3628350
  65.7053970  20.6945210  24.2816930  67.8384950  19.4102440  22.2215570
  67.7773350  18.4663660  22.0746590  68.6176980  19.5182530  22.7669030
  52.1437700  35.5494800  21.1839520  51.9759740  34.9165480  21.8821410
  51.2772210  35.7554200  20.8333710  52.7665720  19.3811580  18.6871380
  53.5245080  19.4940460  18.1135410  52.3042890  20.2180780  18.6414810
  59.3079530  21.4950850  21.6773690  58.4954040  21.1207740  21.3369570
  59.8121170  20.7395930  21.9794880  63.8104510  18.1593300  22.9156760
  64.4133880  18.7313510  23.3905280  63.0697500  18.7232740  22.6930660
  66.9539110  18.5614860  18.1897040  67.1489740  19.4598310  18.4564470
  66.1668980  18.3301940  18.6829990  53.7500400  34.2428030  18.6289660
  53.2248020  34.6236060  17.9251620  53.6744980  34.8678800  19.3499370
  55.1390870  19.9075630  17.2273350  55.6683630  19.1205430  17.0981300
  55.7719190  20.5866820  17.4608880  57.3328710  19.6450770  20.2818740
  56.7031450  18.9438080  20.4488870  56.7933850  20.4054900  20.0651900
  68.5065720  35.8015570  19.9503600  68.6817910  35.1153310  19.3064520
  67.8087290  36.3262620  19.5580270  57.4584270  18.9234750  32.7171230
  57.1768540  19.4268350  31.9532050  57.8403970  18.1256500  32.3513360
  55.5108160  32.3075140  17.5085240  54.8817040  32.7760240  18.0571070
  55.6255990  31.4624360  17.9431430  64.0599730  18.3388330  33.2951700
  63.9465180  18.6582940  34.1903220  64.8769470  18.7400840  32.9988980
  66.8398220  35.4859860  32.7770390  67.6323540  34.9909090  32.5696350
  67.1331370  36.1650000  33.3846000  62.9657880  26.3580800   3.6586440
  62.8851930  25.4435410   3.3878150  62.5522300  26.8547870   2.9526150
  61.0975920  28.1359820   5.5395710  60.3218020  27.6560260   5.8294280
  61.7488850  27.4565470   5.3651870  55.1141750  28.4479630   6.4171470
  54.2826630  28.1928340   6.8167980  55.7222730  28.5190400   7.1529390
  65.1183350  32.5420010   4.3194840  64.6564880  31.7707250   4.6482010
  65.9308900  32.5686080   4.8247290  55.0943010  32.4819720   6.6129490
  55.3971050  31.5917460   6.4339710  55.8386600  33.0389940   6.3851740
  51.4866710  26.0087170   6.0853560  52.0582820  25.2409370   6.0857200
  51.4868250  26.3075930   5.1760170  61.3446660  34.8278020   3.9398830
  60.7258100  35.2835520   3.3693270  62.1998440  34.9829480   3.5388530
  60.5384910  30.8117010   5.5465870  60.4693190  29.8706950   5.3855000
  61.3004770  30.9018420   6.1188440  52.7291580  21.4171530   7.8722490
  52.5494420  20.5197280   8.1525250  52.3271660  21.9643400   8.5469440
  61.5690080  23.6187390   5.7734800  61.9454900  22.7459270   5.6608470
  61.4709590  23.9546090   4.8825240  65.3514200  21.1137830   2.7063140
  66.1723820  20.6234400   2.7488620  65.3848280  21.7035490   3.4594980
  53.3478250  23.9132030   6.4804830  54.0288360  24.1770400   7.0992230
  53.0326300  23.0732900   6.8142840  57.5402820  24.9599390   5.5677420
  58.0481040  25.4580360   6.2082440  58.0716060  24.1834590   5.3916780
  69.6413750  23.1304580   9.2706770  68.9365920  23.5186290   8.7521880
  69.9071670  23.8254870   9.8727700  55.8238920  19.5997950   9.8340840
  55.8257360  20.1170340   9.0286740  54.9943230  19.1228130   9.8110770
  57.0741770  29.2393130   8.0114340  56.7411150  29.8662050   8.6535410
  57.2508450  29.7655010   7.2316010  65.5875680  23.0538210   5.4790680
  64.8831250  23.3423100   6.0593790  65.9487840  23.8638320   5.1190240
  55.5054250  21.3107910   7.8411290  55.8471060  22.1549960   7.5465160
  54.5670060  21.4591650   7.9576630  56.2860870  31.2073930   9.8263520
  56.9034870  31.8825010   9.5447970  55.4253990  31.6161910   9.7351020
  67.2038460  32.6713340   7.7418160  66.5201980  33.3412450   7.7334830
  67.7432750  32.8693990   6.9763020  68.6562600  22.4993000   5.8699890
  67.7087510  22.5331980   6.0015320  68.9812590  23.3131950   6.2549250
  59.1882140  18.7990180   4.1655880  59.4957120  18.2437070   3.4491380
  58.2582840  18.9334640   3.9828870  64.7397200  34.5157470   6.4563340
  64.7524360  34.1119760   5.5885600  64.1872420  35.2904760   6.3524770
  64.1382640  29.4187310   7.7845950  64.5551430  29.2047420   6.9499410
  64.8622460  29.6760100   8.3554570  68.0844740  27.8174530   7.8762190
  67.2563370  27.8867620   7.4012320  68.6795220  28.4028840   7.4078020
  65.0486750  24.6043850   8.8217060  64.6357930  25.4297560   9.0757050
  64.3162700  24.0188890   8.6293420  57.1819540  27.3903750   3.6835730
  56.7776540  26.6781000   3.1881630  57.2682660  27.0456990   4.5723770
  57.6501240  31.0771310   5.8474940  57.3529530  30.4716780   5.1682720
  58.6001060  31.1148620   5.7364300  55.8948160  24.1646960   7.4634770
  56.4462750  24.2742300   6.6888020  56.4091670  24.5384560   8.1790000
  65.7386850  34.6503180   9.5098040  65.2617410  35.4575370   9.3170650
  65.0548640  33.9981510   9.6624250  56.7419670  30.8153000  12.4982740
  55.8448200  31.0392970  12.7456140  56.7672540  30.9387940  11.5494140
  55.5690890  27.6866320  11.0740110  55.4298660  28.5589120  11.4427510
  54.6872250  27.3439130  10.9288050  61.8920270  32.6042190   2.3805240
  62.3316180  33.3466520   1.9660630  61.8307160  32.8468760   3.3044200
  57.3671240  33.6288020  13.2825260  57.3386670  34.0330970  12.4153690
  57.2036210  32.6998380  13.1196860  69.3186060  34.4115120  14.5789430
  69.7945780  34.8898010  15.2578510  69.9393220  34.3432610  13.8534930
  51.5209540  29.4563870   6.9911020  51.5989960  29.5912640   6.0466740
  52.1351220  28.7479760   7.1839140  52.7657170  31.1564060   3.4017200
  52.3585250  31.2978650   2.5470800  53.6570180  30.8724220   3.1988410
  68.7219310  31.6027970  11.7389440  68.8482370  31.3639850  10.8206620
  68.7640690  30.7712510  12.2111520  62.5836050  35.3055970  10.3084250
  63.0980720  35.2163980  11.1106680  61.7405130  35.6515670  10.6012160
  63.8266510  34.7261580   2.3714740  64.2823460  33.9450960   2.6853360
  64.1659030  35.4368400   2.9155920  68.5743320  23.6560430  12.7039180
  67.9587590  24.1640100  12.1754640  68.2539740  22.7558760  12.6465120
  51.5769060  30.4978040   9.5305480  51.7400100  30.0283400   8.7124850
  52.0421510  29.9901600  10.1954320  56.3487830  19.6283800   4.5666050
  55.9055980  20.4093340   4.2350570  56.9072820  19.9513690   5.2736990
  60.6357640  22.4952320  10.1701370  60.1737010  22.7035340  10.9821310
  60.2335750  21.6811670   9.8672040  65.6362150  23.7161270  11.2998030
  64.7855740  23.4167020  11.6207100  65.4763940  23.9603280  10.3881850
  62.7311860  25.2163020  13.3996820  63.0565270  24.3826770  13.0599050
  63.5192190  25.7391540  13.5475150  58.3863730  20.1731130   6.4255650
  58.6836060  21.0793960   6.3447670  58.9349290  19.6849910   5.8115220
  56.1402050  24.7517370   2.2947300  55.9142970  24.5354540   3.1993920
  55.3594580  25.1845830   1.9493270  58.5801260  25.6502950  12.9607570
  58.4844860  24.7097680  12.8107970  59.4233240  25.8718020  12.5655640
  61.9764680  23.3944280   2.9241230  62.3694250  23.7116480   2.1109920
  62.3381530  22.5156160   3.0385750  53.7111800  22.0616620  11.1141350
  53.3175190  22.9091830  11.3214130  53.0230200  21.4242990  11.3049990
  60.2856850  22.1451590  14.1838090  59.5955170  21.9523790  14.8184180
  61.0289150  22.4286230  14.7162390  51.0128850  19.9845080   5.1471430
  50.7241900  20.5547940   5.8596410  51.7574610  19.5049530   5.5102660
  62.5619820  25.9850030   7.0192010  61.8300940  26.4936840   7.3682110
  62.1644160  25.1680010   6.7180790  58.9997210  22.6604230   5.4244500
  59.0033270  22.2194180   4.5749040  59.8948330  22.9821560   5.5316320
  54.8499590  22.5430720   4.3838710  54.5099640  23.0205950   5.1405760
  54.0876910  22.0895840   4.0239810  63.0245730  21.4383710   6.4314950
  63.0418470  21.8892360   7.2756800  62.7761310  20.5389350   6.6448390
  66.4516480  18.8515890  12.2701330  66.7762250  18.1205550  12.7959310
  66.4872990  18.5329530  11.3682320  53.1508040  29.8729470  11.6901290
  52.7662830  29.2323140  12.2884250  53.4620230  30.5765590  12.2596020
  59.3005180  26.7206010   7.1709910  59.6675310  26.2464580   7.9171250
  59.1110240  27.5947580   7.5118250  52.1645670  21.4649700   3.3003380
  51.8792590  21.1005370   4.1382000  52.1024530  20.7330160   2.6866520
  57.0904550  25.7614650   9.4894120  56.7861620  26.6406630   9.7144480
  58.0451010  25.8214440   9.5251560  66.3774320  28.9641000   5.8787360
  67.0973440  29.4596290   5.4883470  66.1756140  28.2858890   5.2341230
  61.7593120  29.0350060  11.7656360  61.6930430  28.1145730  11.5113950
  61.1298260  29.1325500  12.4801000  55.6623740  29.6356020   3.7239780
  56.1802410  28.8324280   3.6696670  55.2107760  29.5735160   4.5656610
  53.1468280  26.6017390  10.6365480  52.7883220  27.2671240  11.2238820
  52.8522840  25.7700940  11.0078100  56.3481400  27.0601630  13.5205030
  56.0481540  27.2058810  12.6232850  57.1192640  26.5006920  13.4278420
  61.6909850  31.8570630  11.5160160  61.7054390  30.9251590  11.2979070
  60.9834950  31.9430390  12.1549930  67.9021060  28.4977970  10.8628740
  67.1769250  29.0906750  10.6658130  68.4296520  28.4901510  10.0642110
  63.4320650  30.2238140   4.3612590  63.7844470  29.6266270   3.7013960
  62.5482980  29.8982370   4.5320840  59.5183930  30.9835830   1.7683000
  60.2055060  31.5305040   2.1490590  58.7316350  31.5276560   1.8032610
  61.1243750  33.4988200   8.6100660  61.7685970  33.7047580   9.2874080
  61.4873190  32.7376600   8.1571510  62.3975830  31.5020550   7.3278110
  63.0398060  30.8013710   7.4410280  62.9225180  32.2818990   7.1475000
  64.1713450  32.3015450  10.5314170  64.5069690  32.8882140  11.2092090
  63.2513790  32.1708160  10.7611960  51.7216850  20.0910630  11.3137580
  51.0075370  20.2907550  11.9190190  52.1411890  19.3150200  11.6852380
  52.0089440  34.0790890  12.3004110  52.1180560  33.1385630  12.1599500
  51.3570000  34.3445640  11.6517840  60.0002030  32.3506780  13.7002230
  59.6798900  31.6316020  14.2447920  59.3260390  33.0261850  13.7738290
  63.2155630  22.5832940   9.0639030  63.5836450  21.7628150   9.3918600
  62.3553830  22.6434830   9.4794680  60.1757620  25.2372530   9.2877000
  60.6742870  25.7118350   9.9528850  60.3180570  24.3136050   9.4947030
  62.5817120  20.5426490   2.7280260  62.4584900  20.5612620   1.7789770
  63.5301680  20.5905430   2.8478660  67.3824480  21.4540490  10.1305390
  66.8798080  22.1945890  10.4699200  68.1981140  21.8424490   9.8142180
  65.6746490  26.6973670   3.5766750  64.7336630  26.7123900   3.7514440
  65.9890560  25.9109630   4.0227050  67.6772070  33.8682520   5.2521010
  67.8019490  34.6913690   5.7244820  68.5437630  33.6573250   4.9045160
  55.1489600  35.9613730   4.9238140  55.8852080  35.4129190   5.1946710
  55.5330520  36.8269740   4.7844130  62.9912510  31.2539670  14.0599130
  62.3850670  31.2771270  13.3194880  62.6866620  30.5222710  14.5966380
  64.4212880  34.9819960  12.6708540  65.3734630  34.8977980  12.6208780
  64.2741100  35.6461670  13.3442330  51.8745690  27.6333260  13.0559770
  52.3784710  27.0540540  13.6276000  51.1353110  27.9173490  13.5936140
  58.9283630  29.0404250  12.5895290  58.1629300  29.6089250  12.5049960
  59.1099590  28.7480460  11.6963520  66.0706980  30.7709580  13.1470310
  66.8116450  31.1085340  12.6437770  65.3079660  30.9401640  12.5940080
  53.9068770  25.7762850  13.9509840  53.9474110  25.4776720  14.8595070
  54.7614270  26.1770460  13.7917360  55.8474580  24.3554950  11.9184330
  55.3171040  23.8645900  11.2907670  56.5162650  24.7839150  11.3842260
  64.7452640  28.8224410  11.6825520  65.1593660  28.9769490  12.5315940
  63.8103640  28.9479630  11.8451300  65.2174810  26.1620570  13.6864670
  65.7995580  25.4072890  13.5985150  65.3936580  26.6928010  12.9096150
  56.3346880  21.3217320  11.9981620  56.2403750  20.7038070  11.2732490
  55.7544270  22.0483610  11.7711530  59.1008320  19.8790560   9.0309010
  58.6525620  19.9014820   8.1854560  58.4673520  19.4809580   9.6279310
  59.5067870  28.7744890   9.6521450  59.9255980  29.6177620   9.4797690
  58.5876500  28.9116930   9.4228230  61.8431770  26.5061070  11.0359290
  61.9627980  25.9102210  11.7754130  62.7025770  26.5430760  10.6160590
  64.1819670  27.0598260   9.6121800  63.6554890  27.5840880   9.0086940
  64.5251010  27.6925650  10.2431530  57.3575290  35.0797900  10.7679180
  56.8196380  35.8043960  10.4487880  57.6109250  34.6028240   9.9776520
  58.6100540  23.0482420  12.2935110  59.2000230  22.7398270  12.9812930
  57.7920780  22.5762170  12.4495010  63.4293970  22.6648230  12.5268130
  62.7409490  22.0029770  12.4618120  64.1499990  22.2186500  12.9716590
  60.2137500  36.3149110  11.0265830  60.1396200  37.2184250  11.3338200
  59.3116340  35.9961010  10.9987900  51.6164790  33.6423700   4.3299450
  51.9467800  32.7744760   4.0978090  52.0455790  33.8482220   5.1604410
  52.1055000  34.5094290   7.0681080  51.6685990  34.6895090   7.9005230
  52.6732680  35.2668910   6.9262800  67.7417180  34.0111290  11.3558390
  67.1419170  34.0703850  10.6122310  67.8711080  33.0716270  11.4855240
  51.9379430  27.0214520   3.4269960  51.2828270  26.7526160   2.7829660
  52.7757380  26.9119000   2.9771940  69.4435060  29.3526690   4.0404230
  69.8143890  28.5694010   3.6340200  70.0836990  30.0415790   3.8621530
  66.4268820  30.7363270   9.4534550  65.6128660  31.1660430   9.7160340
  66.8343020  31.3481680   8.8403600  52.9755360  27.4067090   7.9673300
  53.3428400  27.3194490   8.8469320  52.4066180  26.6433640   7.8680160
  67.7759220  25.8751470  10.9803770  67.5445310  25.6464220  10.0801720
  68.0363770  26.7951020  10.9348660  52.5271360  24.3176180  11.8731720
  51.6327410  24.2842940  12.2125430  53.0668910  24.5162970  12.6382970
  66.2147290  21.1007900  13.7583470  67.0917470  21.1091300  14.1417470
  66.2268130  20.3638740  13.1475820  67.6610560  24.9537440   4.6471490
  68.1848040  24.4600090   4.0161660  68.2469980  25.0887800   5.3919060
  67.8400280  25.0377310   8.1691040  66.8902990  25.0040850   8.2836030
  68.0213290  25.9477420   7.9340810  53.0311070  18.5924510   6.2214940
  53.6787260  18.0421890   5.7810100  53.4512910  18.8467660   7.0430750
  68.5797690  22.8471740   3.1201580  68.4696970  22.6927780   4.0583850
  69.3405280  22.3192680   2.8776990  66.9263410  18.7865870   9.5784580
  67.5635630  19.4000010   9.9443770  67.0738300  18.8226530   8.6333810
  66.4844870  35.4881870   2.9802820  67.0803940  35.1666440   2.3037240
  66.7423020  35.0153690   3.7716090  52.7843070  18.7480180   8.9640260
  52.4357890  19.2044000   9.7298440  52.4530770  17.8537310   9.0462690
  54.3907440  31.9199780  13.1293450  54.3477070  31.5492690  14.0107910
  54.5218450  32.8577350  13.2695270  58.0913470  33.4759370   8.7303170
  57.8504830  33.7433930   7.8433690  59.0316110  33.6465100   8.7854030
  60.2967890  19.9392060  12.4859680  60.2356780  20.5313890  13.2355090
  61.2368270  19.8318020  12.3409940  62.9342450  19.5962120  12.1251970
  63.5482860  19.9141410  11.4633050  63.4792010  19.1110710  12.7447830
  69.3517630  35.4953750   9.5313810  68.8575910  35.8922620   8.8140940
  68.7430920  34.8702960   9.9251090  53.4563710  18.2756380  12.2391030
  54.0046700  18.0944430  11.4757140  53.5219020  17.4850490  12.7747340
  54.2295470  34.8662030  10.2491230  53.6355790  34.7346730  10.9881270
  54.2219310  34.0300170   9.7833330  63.6750490  18.1594260   8.4521260
  62.8010330  18.4929370   8.2494190  63.5661240  17.6867440   9.2773130
  64.5822470  20.3665130   9.8362980  64.2535830  19.5516890   9.4564710
  65.5304770  20.3234940   9.7128670  67.0357080  36.1377170   6.8100550
  66.5760050  36.8892980   6.4358570  66.4069540  35.4183640   6.7515350
  53.8607700  32.2320410   9.1999270  53.1341760  31.6125700   9.1325220
  53.9216850  32.6261020   8.3297350  57.4652800  34.4465410   5.9848680
  57.9817820  33.8352770   5.4596940  58.1150180  34.9494190   6.4759690
  60.2048300  35.3373900   6.8117660  60.4926110  35.0828200   5.9350670
  60.7171520  34.7851260   7.4023230  61.4225310  19.0764100   7.3914170
  60.6397100  19.5509600   7.6710930  61.1288240  18.1718930   7.2827350
  65.9746380  19.7787200   5.4363260  66.4154470  19.7232300   4.5884860
  65.7053970  20.6945210   5.5073440  67.8384950  19.4102440   3.4472080
  67.7773350  18.4663660   3.3003100  68.6176980  19.5182530   3.9925540
  52.1437700  35.5494800   2.4096030  51.9759740  34.9165480   3.1077920
  51.2772210  35.7554200   2.0590220  59.3079530  21.4950850   2.9030200
  58.4954040  21.1207740   2.5626080  59.8121170  20.7395930   3.2051390
  63.8104510  18.1593300   4.1413270  64.4133880  18.7313510   4.6161790
  63.0697500  18.7232740   3.9187170  57.4584270  18.9234750  13.9427740
  57.1768540  19.4268350  13.1788560  57.8403970  18.1256500  13.5769870
  64.0599730  18.3388330  14.5208210  63.9465180  18.6582940  15.4159730
  64.8769470  18.7400840  14.2245490  66.8398220  35.4859860  14.0026900
  67.6323540  34.9909090  13.7952860  67.1331370  36.1650000  14.6102510
  62.9657880   7.5837310  59.9816910  62.8851930   6.6691920  59.7108620
  62.5522300   8.0804380  59.2756620  61.0975920   9.3616330  61.8626180
  60.3218020   8.8816770  62.1524750  61.7488850   8.6821980  61.6882340
  55.1141750   9.6736140  62.7401940  54.2826630   9.4184850  63.1398450
  55.7222730   9.7446910  63.4759860  65.1183350  13.7676520  60.6425310
  64.6564880  12.9963760  60.9712480  65.9308900  13.7942590  61.1477760
  55.0943010  13.7076230  62.9359960  55.3971050  12.8173970  62.7570180
  55.8386600  14.2646450  62.7082210  53.5233700   4.6338030  56.5244330
  52.6350400   4.9754000  56.4224210  53.8074890   4.4338350  55.6325160
  51.4866710   7.2343680  62.4084030  52.0582820   6.4665880  62.4087670
  51.4868250   7.5332440  61.4990640  61.3446660  16.0534530  60.2629300
  60.7258100  16.5092030  59.6923740  62.1998440  16.2085990  59.8619000
  60.5384910  12.0373520  61.8696340  60.4693190  11.0963460  61.7085470
  61.3004770  12.1274930  62.4418910  52.7291580   2.6428040  64.1952960
  52.5494420   1.7453790  64.4755720  52.3271660   3.1899910  64.8699910
  61.5690080   4.8443900  62.0965270  61.9454900   3.9715780  61.9838940
  61.4709590   5.1802600  61.2055710  55.6995090   3.2169530  57.5582710
  55.8061840   4.1173260  57.8651470  54.7887450   3.1687500  57.2677360
  65.3514200   2.3394340  59.0293610  66.1723820   1.8490910  59.0719090
  65.3848280   2.9292000  59.7825450  53.3478250   5.1388540  62.8035300
  54.0288360   5.4026910  63.4222700  53.0326300   4.2989410  63.1373310
  57.5402820   6.1855900  61.8907890  58.0481040   6.6836870  62.5312910
  58.0716060   5.4091100  61.7147250  62.2110010  10.9373770  57.6561210
  61.5927280  11.4023220  57.0923930  62.7233260  11.6301250  58.0730720
  57.0741770  10.4649640  64.3344810  56.7411150  11.0918560  64.9765880
  57.2508450  10.9911520  63.5546480  65.5875680   4.2794720  61.8021150
  64.8831250   4.5679610  62.3824260  65.9487840   5.0894830  61.4420710
  55.5054250   2.5364420  64.1641760  55.8471060   3.3806470  63.8695630
  54.5670060   2.6848160  64.2807100  51.5793210  11.6230300  55.0300840
  51.2021190  12.1117400  54.2985740  51.8366280  12.2955580  55.6607370
  67.2038460  13.8969850  64.0648630  66.5201980  14.5668960  64.0565300
  67.7432750  14.0950500  63.2993490  68.6562600   3.7249510  62.1930360
  67.7087510   3.7588490  62.3245790  68.9812590   4.5388460  62.5779720
  64.7397200  15.7413980  62.7793810  64.7524360  15.3376270  61.9116070
  64.1872420  16.5161270  62.6755240  66.0342620  12.4630200  57.8683980
  65.9238950  11.5204530  57.9933400  66.0310870  12.8245840  58.7546740
  64.1382640  10.6443820  64.1076420  64.5551430  10.4303930  63.2729880
  64.8622460  10.9016610  64.6785040  61.5762900   8.0895520  57.2246470
  60.6492180   8.0232900  57.4534940  61.7287720   9.0275650  57.1101710
  61.5631980   4.3612520  54.2213630  60.6235650   4.5226480  54.3066090
  61.8815240   5.0798200  53.6749620  68.0844740   9.0431040  64.1992660
  67.2563370   9.1124130  63.7242790  68.6795220   9.6285350  63.7308490
  65.6060190   9.6515820  57.7281720  64.9872610   9.3135370  57.0808020
  65.5884640   9.0075580  58.4360910  57.1819540   8.6160260  60.0066200
  56.7776540   7.9037510  59.5112100  57.2682660   8.2713500  60.8954240
  57.6501240  12.3027820  62.1705410  57.3529530  11.6973290  61.4913190
  58.6001060  12.3405130  62.0594770  55.8948160   5.3903470  63.7865240
  56.4462750   5.4998810  63.0118490  56.4091670   5.7641070  64.5020470
  63.7824890   8.8902630  54.7354470  64.2218170   8.0525060  54.5892290
  64.4953310   9.5232030  54.8218610  61.8920270  13.8298700  58.7035710
  62.3316180  14.5723030  58.2891100  61.8307160  14.0725270  59.6274670
  53.8824170   7.5105240  57.5072850  53.7621770   8.2367330  56.8954120
  53.5725060   6.7408150  57.0300760  51.5209540  10.6820380  63.3141490
  51.5989960  10.8169150  62.3697210  52.1351220   9.9736270  63.5069610
  52.7657170  12.3820570  59.7247670  52.3585250  12.5235160  58.8701270
  53.6570180  12.0980730  59.5218880  64.5590450  16.8167820  56.0598720
  64.3991590  16.5270760  56.9580550  64.3937160  16.0407950  55.5243950
  57.0378830  16.5966350  57.8370340  56.8621310  15.6801890  57.6238140
  56.1834570  16.9553640  58.0768140  64.2616580  14.3255380  54.6196720
  63.5681740  14.3232670  53.9599000  65.0039440  13.9014700  54.1890890
  63.8266510  15.9518090  58.6945210  64.2823460  15.1707470  59.0083830
  64.1659030  16.6624910  59.2386390  56.1402050   5.9773880  58.6177770
  55.9142970   5.7611050  59.5224390  55.3594580   6.4102340  58.2723740
  63.3699810   5.9837250  57.2168420  62.7708700   6.7073050  57.0332040
  63.9179420   5.9214030  56.4344870  61.9764680   4.6200790  59.2471700
  62.3694250   4.9372990  58.4340390  62.3381530   3.7412670  59.3616220
  51.1999080   5.1521710  52.6804620  51.1173750   6.0952470  52.8219610
  50.8482140   5.0096620  51.8016970  62.5619820   7.2106540  63.3422480
  61.8300940   7.7193350  63.6912580  62.1644160   6.3936520  63.0411260
  58.9997210   3.8860740  61.7474970  59.0033270   3.4450690  60.8979510
  59.8948330   4.2078070  61.8546790  54.8499590   3.7687230  60.7069180
  54.5099640   4.2462460  61.4636230  54.0876910   3.3152350  60.3470280
  59.0617360   4.8872820  54.7381730  59.1830180   4.8459300  55.6867550
  58.6765870   5.7496970  54.5828460  63.0245730   2.6640220  62.7545420
  63.0418470   3.1148870  63.5987270  62.7761310   1.7645860  62.9678860
  58.0738860   7.1973960  54.1365030  57.5055760   6.7492210  53.5100940
  58.7827860   7.5566740  53.6030180  59.3005180   7.9462520  63.4940380
  59.6675310   7.4721090  64.2401720  59.1110240   8.8204090  63.8348720
  52.1645670   2.6906210  59.6233850  51.8792590   2.3261880  60.4612470
  52.1024530   1.9586670  59.0096990  55.6186340  11.1932150  56.4091440
  54.8448600  10.6529770  56.2490160  56.3480970  10.6738760  56.0709200
  66.3774320  10.1897510  62.2017830  67.0973440  10.6852800  61.8113940
  66.1756140   9.5115400  61.5571700  64.5532650   5.9555120  54.6409380
  65.4412270   6.2672350  54.4660720  64.5237740   5.0827370  54.2489960
  55.6623740  10.8612530  60.0470250  56.1802410  10.0580790  59.9927140
  55.2107760  10.7991670  60.8887080  60.5493240  12.1278810  55.3197550
  60.8908940  12.8721040  54.8240870  59.7205950  12.4409930  55.6822380
  66.8246920   7.2666960  54.1089240  66.7410640   7.6981180  53.2585680
  67.5441110   7.7265310  54.5416060  67.8534170  14.1209220  56.8371370
  67.2110330  13.4664840  57.1115090  67.4664830  14.5264310  56.0612040
  63.4320650  11.4494650  60.6843060  63.7844470  10.8522780  60.0244430
  62.5482980  11.1238880  60.8551310  59.5183930  12.2092340  58.0913470
  60.2055060  12.7561550  58.4721060  58.7316350  12.7533070  58.1263080
  51.6576330   7.8265160  53.5830550  52.5271180   8.1089960  53.8666470
  51.1666650   8.6401030  53.4679360  58.8211140   9.2138370  57.7038830
  59.2773920  10.0243620  57.9299020  58.4699350   8.8961510  58.5357320
  62.3975830  12.7277060  63.6508580  63.0398060  12.0270220  63.7640750
  62.9225180  13.5075500  63.4705470  66.2431550  13.0125680  53.3747720
  66.0169130  12.2956120  53.9672360  65.8527750  12.7638120  52.5369470
  52.0247580  17.0392540  54.1492180  52.3845220  17.6381880  53.4949450
  51.8839920  17.5852430  54.9227210  65.8247800  10.9297620  55.0361880
  65.5369500  11.3910310  55.8239760  66.6199970  10.4695390  55.3046100
  58.0416200  14.4223740  54.9665850  58.0326300  15.1553430  54.3510360
  57.1214560  14.1755320  55.0592810  53.6422840   9.6438630  55.7112610
  53.0350790  10.3837530  55.7207910  54.1172190   9.7337990  54.8850810
  66.5817660   2.7646390  56.1957060  65.9530820   2.8692060  55.4815290
  66.0869580   2.9843170  56.9850940  61.0275800  14.4851980  53.6291040
  61.1287780  14.2815970  52.6993020  60.1277540  14.2310260  53.8338820
  58.5501690   5.0432340  57.6114940  57.8417840   5.5118680  58.0528550
  58.8346170   4.3854350  58.2460130  62.5817120   1.7683000  59.0510730
  62.4584900   1.7869130  58.1020240  63.5301680   1.8161940  59.1709130
  59.6693910  17.0038300  58.3238710  59.9235410  16.9659690  57.4018080
  58.7206390  16.8771630  58.3166960  56.7536710   3.3517420  54.9865650
  57.6027240   3.7887570  54.9205840  56.3867980   3.6637680  55.8137710
  65.6746490   7.9230180  59.8997220  64.7336630   7.9380410  60.0744910
  65.9890560   7.1366140  60.3457520  55.6528130   9.6049780  53.4601180
  56.4191400   9.4931140  54.0226610  55.7302820   8.9087750  52.8077950
  54.3474890   7.0374850  54.1434070  54.4278480   6.0902360  54.2551470
  55.2394640   7.3681730  54.2494730  67.6772070  15.0939030  61.5751480
  67.8019490  15.9170200  62.0475290  68.5437630  14.8829760  61.2275630
  55.1489600  17.1870240  61.2468610  55.8852080  16.6385700  61.5177180
  55.5330520  18.0526250  61.1074600  52.0335080  13.2543810  57.1210120
  51.1074860  13.4964950  57.1115530  52.4991510  14.0818070  56.9994870
  58.2591910  16.3600550  53.0694180  59.0520520  16.6489380  52.6175970
  57.7396260  15.9292720  52.3906660  67.3122080  15.5870680  54.4930920
  67.0263590  15.1735820  53.6785100  67.1141630  16.5158390  54.3731440
  58.7769310  11.5803960  52.9336530  58.6719950  10.9656310  53.6597910
  58.6093530  11.0569850  52.1499540  62.0172040  10.6423990  53.5378520
  61.4682140  11.0893290  54.1821260  62.6391300  10.1373240  54.0616190
  57.6847160   9.6014910  55.4343820  58.1063580   9.4354780  56.2775210
  57.8098000   8.7915140  54.9398960  60.1974800   8.6252520  52.6820920
  60.7180460   7.9101540  52.3162070  60.8443200   9.2638390  52.9821430
  56.5806060   5.6748140  52.3801980  56.3795120   4.8115500  52.7415320
  56.4098110   5.5881500  51.4423580  55.3788860   2.7748760  52.3679860
  55.6814760   2.7816190  51.4599010  56.1183450   2.4246620  52.8647520
  60.7622830  16.7064130  54.9722660  61.6573620  17.0449100  54.9941420
  60.7940460  15.9843540  54.3446940  54.4018990  12.0791180  53.2009660
  54.8393860  12.6220850  53.8567240  54.8866720  11.2538130  53.2106000
  51.6164790  14.8680210  60.6529920  51.9467800  14.0001270  60.4208560
  52.0455790  15.0738730  61.4834880  56.2126710  13.1989220  58.3131890
  55.9122250  13.0754190  59.2135800  56.1064200  12.3397810  57.9047620
  52.1055000  15.7350800  63.3911550  51.6685990  15.9151600  64.2235700
  52.6732680  16.4925420  63.2493270  68.9818630  12.9785620  53.0158570
  68.1511590  13.0462270  53.4865800  69.1590460  13.8689740  52.7125430
  68.4375090   9.7233100  55.5192770  69.1994000  10.2929750  55.6252460
  68.4529460   9.1560300  56.2901080  51.9379430   8.2471030  59.7500430
  51.2828270   7.9782670  59.1060130  52.7757380   8.1375510  59.3002410
  69.4435060  10.5783200  60.3634700  69.8143890   9.7950520  59.9570670
  70.0836990  11.2672300  60.1852000  68.4894260  10.0167470  52.6765290
  68.7643100  10.9246350  52.5484510  68.3005000   9.9530000  53.6127280
  64.8869870   3.0412320  53.9718920  65.3054750   2.8543300  53.1315580
  64.5805930   2.1891370  54.2821850  68.3859600   7.9536460  57.6694720
  68.0103200   7.1864390  57.2376010  67.6562720   8.3359160  58.1569650
  52.9755360   8.6323600  64.2903770  53.3428400   8.5451000  65.1699790
  52.4066180   7.8690150  64.1910630  51.1517510   5.4569960  55.6925760
  50.2481590   5.7200160  55.5177420  51.6358130   5.7281130  54.9125720
  67.6610560   6.1793950  60.9701960  68.1848040   5.6856600  60.3392130
  68.2469980   6.3144310  61.7149530  67.8400280   6.2633820  64.4921510
  66.8902990   6.2297360  64.6066500  68.0213290   7.1733930  64.2571280
  53.6944720   4.5135500  53.6020140  54.4036420   4.0918720  53.1167420
  52.9784660   4.5810730  52.9703490  67.1510530   5.4367300  56.9094370
  67.6469650   5.2038170  57.6943250  66.9526600   4.5979140  56.4932010
  68.5797690   4.0728250  59.4432050  68.4696970   3.9184290  60.3814320
  69.3405280   3.5449190  59.2007460  69.4687960   1.9036170  52.6838190
  70.3937270   1.7717350  52.4756480  69.4463750   1.9828990  53.6374640
  69.5426450   2.6746830  55.3094900  68.7477950   2.6091950  55.8387810
  69.7469730   3.6097470  55.2980250  66.4844870  16.7138380  59.3033290
  67.0803940  16.3922950  58.6267710  66.7423020  16.2410200  60.0946560
  58.0913470  14.7015880  65.0533640  57.8504830  14.9690440  64.1664160
  59.0316110  14.8721610  65.1084500  67.0357080  17.3633680  63.1331020
  66.5760050  18.1149490  62.7589040  66.4069540  16.6440150  63.0745820
  57.4652800  15.6721920  62.3079150  57.9817820  15.0609280  61.7827410
  58.1150180  16.1750700  62.7990160  60.2048300  16.5630410  63.1348130
  60.4926110  16.3084710  62.2581140  60.7171520  16.0107770  63.7253700
  52.1437700  16.7751310  58.7326500  51.9759740  16.1421990  59.4308390
  51.2772210  16.9810710  58.3820690  59.3079530   2.7207360  59.2260670
  58.4954040   2.3464250  58.8856550  59.8121170   1.9652440  59.5281860
  53.7500400  15.4684540  56.1776640  53.2248020  15.8492570  55.4738600
  53.6744980  16.0935310  56.8986350  68.5065720  17.0272080  57.4990580
  68.6817910  16.3409820  56.8551500  67.8087290  17.5519130  57.1067250
  56.3493370  17.4166920  55.0525890  57.0812190  17.1326200  54.5049780
  56.6087040  17.1780200  55.9425270  55.5108160  13.5331650  55.0572220
  54.8817040  14.0016750  55.6058050  55.6255990  12.6880870  55.4918410
  62.9657880   7.5837310  41.2073420  62.8851930   6.6691920  40.9365130
  62.5522300   8.0804380  40.5013130  61.0975920   9.3616330  43.0882690
  60.3218020   8.8816770  43.3781260  61.7488850   8.6821980  42.9138850
  55.1141750   9.6736140  43.9658450  54.2826630   9.4184850  44.3654960
  55.7222730   9.7446910  44.7016370  65.1183350  13.7676520  41.8681820
  64.6564880  12.9963760  42.1968990  65.9308900  13.7942590  42.3734270
  55.0943010  13.7076230  44.1616470  55.3971050  12.8173970  43.9826690
  55.8386600  14.2646450  43.9338720  53.5233700   4.6338030  37.7500840
  52.6350400   4.9754000  37.6480720  53.8074890   4.4338350  36.8581670
  51.4866710   7.2343680  43.6340540  52.0582820   6.4665880  43.6344180
  51.4868250   7.5332440  42.7247150  61.3446660  16.0534530  41.4885810
  60.7258100  16.5092030  40.9180250  62.1998440  16.2085990  41.0875510
  60.5384910  12.0373520  43.0952850  60.4693190  11.0963460  42.9341980
  61.3004770  12.1274930  43.6675420  52.7291580   2.6428040  45.4209470
  52.5494420   1.7453790  45.7012230  52.3271660   3.1899910  46.0956420
  61.5690080   4.8443900  43.3221780  61.9454900   3.9715780  43.2095450
  61.4709590   5.1802600  42.4312220  55.6995090   3.2169530  38.7839220
  55.8061840   4.1173260  39.0907980  54.7887450   3.1687500  38.4933870
  65.3514200   2.3394340  40.2550120  66.1723820   1.8490910  40.2975600
  65.3848280   2.9292000  41.0081960  53.3478250   5.1388540  44.0291810
  54.0288360   5.4026910  44.6479210  53.0326300   4.2989410  44.3629820
  57.5402820   6.1855900  43.1164400  58.0481040   6.6836870  43.7569420
  58.0716060   5.4091100  42.9403760  69.6413750   4.3561090  46.8193750
  68.9365920   4.7442800  46.3008860  69.9071670   5.0511380  47.4214680
  62.2110010  10.9373770  38.8817720  61.5927280  11.4023220  38.3180440
  62.7233260  11.6301250  39.2987230  57.0741770  10.4649640  45.5601320
  56.7411150  11.0918560  46.2022390  57.2508450  10.9911520  44.7802990
  65.5875680   4.2794720  43.0277660  64.8831250   4.5679610  43.6080770
  65.9487840   5.0894830  42.6677220  55.5054250   2.5364420  45.3898270
  55.8471060   3.3806470  45.0952140  54.5670060   2.6848160  45.5063610
  56.2860870  12.4330440  47.3750500  56.9034870  13.1081520  47.0934950
  55.4253990  12.8418420  47.2838000  51.5793210  11.6230300  36.2557350
  51.2021190  12.1117400  35.5242250  51.8366280  12.2955580  36.8863880
  67.2038460  13.8969850  45.2905140  66.5201980  14.5668960  45.2821810
  67.7432750  14.0950500  44.5250000  68.6562600   3.7249510  43.4186870
  67.7087510   3.7588490  43.5502300  68.9812590   4.5388460  43.8036230
  64.7397200  15.7413980  44.0050320  64.7524360  15.3376270  43.1372580
  64.1872420  16.5161270  43.9011750  66.0342620  12.4630200  39.0940490
  65.9238950  11.5204530  39.2189910  66.0310870  12.8245840  39.9803250
  64.1382640  10.6443820  45.3332930  64.5551430  10.4303930  44.4986390
  64.8622460  10.9016610  45.9041550  61.5762900   8.0895520  38.4502980
  60.6492180   8.0232900  38.6791450  61.7287720   9.0275650  38.3358220
  61.5631980   4.3612520  35.4470140  60.6235650   4.5226480  35.5322600
  61.8815240   5.0798200  34.9006130  68.0844740   9.0431040  45.4249170
  67.2563370   9.1124130  44.9499300  68.6795220   9.6285350  44.9565000
  65.6060190   9.6515820  38.9538230  64.9872610   9.3135370  38.3064530
  65.5884640   9.0075580  39.6617420  65.0486750   5.8300360  46.3704040
  64.6357930   6.6554070  46.6244030  64.3162700   5.2445400  46.1780400
  57.1819540   8.6160260  41.2322710  56.7776540   7.9037510  40.7368610
  57.2682660   8.2713500  42.1210750  57.6501240  12.3027820  43.3961920
  57.3529530  11.6973290  42.7169700  58.6001060  12.3405130  43.2851280
  55.8948160   5.3903470  45.0121750  56.4462750   5.4998810  44.2375000
  56.4091670   5.7641070  45.7276980  65.7386850  15.8759690  47.0585020
  65.2617410  16.6831880  46.8657630  65.0548640  15.2238020  47.2111230
  56.7419670  12.0409510  50.0469720  55.8448200  12.2649480  50.2943120
  56.7672540  12.1644450  49.0981120  63.7824890   8.8902630  35.9610980
  64.2218170   8.0525060  35.8148800  64.4953310   9.5232030  36.0475120
  55.5690890   8.9122830  48.6227090  55.4298660   9.7845630  48.9914490
  54.6872250   8.5695640  48.4775030  61.8920270  13.8298700  39.9292220
  62.3316180  14.5723030  39.5147610  61.8307160  14.0725270  40.8531180
  57.3671240  14.8544530  50.8312240  57.3386670  15.2587480  49.9640670
  57.2036210  13.9254890  50.6683840  53.8824170   7.5105240  38.7329360
  53.7621770   8.2367330  38.1210630  53.5725060   6.7408150  38.2557270
  69.3186060  15.6371630  52.1276410  69.7945780  16.1154520  52.8065490
  69.9393220  15.5689120  51.4021910  51.5209540  10.6820380  44.5398000
  51.5989960  10.8169150  43.5953720  52.1351220   9.9736270  44.7326120
  52.7657170  12.3820570  40.9504180  52.3585250  12.5235160  40.0957780
  53.6570180  12.0980730  40.7475390  68.7219310  12.8284480  49.2876420
  68.8482370  12.5896360  48.3693600  68.7640690  11.9969020  49.7598500
  62.5836050  16.5312480  47.8571230  63.0980720  16.4420490  48.6593660
  61.7405130  16.8772180  48.1499140  64.5590450  16.8167820  37.2855230
  64.3991590  16.5270760  38.1837060  64.3937160  16.0407950  36.7500460
  57.0378830  16.5966350  39.0626850  56.8621310  15.6801890  38.8494650
  56.1834570  16.9553640  39.3024650  64.2616580  14.3255380  35.8453230
  63.5681740  14.3232670  35.1855510  65.0039440  13.9014700  35.4147400
  63.8266510  15.9518090  39.9201720  64.2823460  15.1707470  40.2340340
  64.1659030  16.6624910  40.4642900  68.5743320   4.8816940  50.2526160
  67.9587590   5.3896610  49.7241620  68.2539740   3.9815270  50.1952100
  51.5769060  11.7234550  47.0792460  51.7400100  11.2539910  46.2611830
  52.0421510  11.2158110  47.7441300  60.6357640   3.7208830  47.7188350
  60.1737010   3.9291850  48.5308290  60.2335750   2.9068180  47.4159020
  65.6362150   4.9417780  48.8485010  64.7855740   4.6423530  49.1694080
  65.4763940   5.1859790  47.9368830  62.7311860   6.4419530  50.9483800
  63.0565270   5.6083280  50.6086030  63.5192190   6.9648050  51.0962130
  56.1402050   5.9773880  39.8434280  55.9142970   5.7611050  40.7480900
  55.3594580   6.4102340  39.4980250  63.3699810   5.9837250  38.4424930
  62.7708700   6.7073050  38.2588550  63.9179420   5.9214030  37.6601380
  58.5801260   6.8759460  50.5094550  58.4844860   5.9354190  50.3594950
  59.4233240   7.0974530  50.1142620  61.9764680   4.6200790  40.4728210
  62.3694250   4.9372990  39.6596900  62.3381530   3.7412670  40.5872730
  53.7111800   3.2873130  48.6628330  53.3175190   4.1348340  48.8701110
  53.0230200   2.6499500  48.8536970  60.2856850   3.3708100  51.7325070
  59.5955170   3.1780300  52.3671160  61.0289150   3.6542740  52.2649370
  51.1999080   5.1521710  33.9061130  51.1173750   6.0952470  34.0476120
  50.8482140   5.0096620  33.0273480  62.5619820   7.2106540  44.5678990
  61.8300940   7.7193350  44.9169090  62.1644160   6.3936520  44.2667770
  58.9997210   3.8860740  42.9731480  59.0033270   3.4450690  42.1236020
  59.8948330   4.2078070  43.0803300  54.8499590   3.7687230  41.9325690
  54.5099640   4.2462460  42.6892740  54.0876910   3.3152350  41.5726790
  59.0617360   4.8872820  35.9638240  59.1830180   4.8459300  36.9124060
  58.6765870   5.7496970  35.8084970  63.0245730   2.6640220  43.9801930
  63.0418470   3.1148870  44.8243780  62.7761310   1.7645860  44.1935370
  58.0738860   7.1973960  35.3621540  57.5055760   6.7492210  34.7357450
  58.7827860   7.5566740  34.8286690  53.1508040  11.0985980  49.2388270
  52.7662830  10.4579650  49.8371230  53.4620230  11.8022100  49.8083000
  59.3005180   7.9462520  44.7196890  59.6675310   7.4721090  45.4658230
  59.1110240   8.8204090  45.0605230  52.1645670   2.6906210  40.8490360
  51.8792590   2.3261880  41.6868980  52.1024530   1.9586670  40.2353500
  57.0904550   6.9871160  47.0381100  56.7861620   7.8663140  47.2631460
  58.0451010   7.0470950  47.0738540  55.6186340  11.1932150  37.6347950
  54.8448600  10.6529770  37.4746670  56.3480970  10.6738760  37.2965710
  66.3774320  10.1897510  43.4274340  67.0973440  10.6852800  43.0370450
  66.1756140   9.5115400  42.7828210  61.7593120  10.2606570  49.3143340
  61.6930430   9.3402240  49.0600930  61.1298260  10.3582010  50.0287980
  64.5532650   5.9555120  35.8665890  65.4412270   6.2672350  35.6917230
  64.5237740   5.0827370  35.4746470  55.6623740  10.8612530  41.2726760
  56.1802410  10.0580790  41.2183650  55.2107760  10.7991670  42.1143590
  60.5493240  12.1278810  36.5454060  60.8908940  12.8721040  36.0497380
  59.7205950  12.4409930  36.9078890  53.1468280   7.8273900  48.1852460
  52.7883220   8.4927750  48.7725800  52.8522840   6.9957450  48.5565080
  56.3481400   8.2858140  51.0692010  56.0481540   8.4315320  50.1719830
  57.1192640   7.7263430  50.9765400  61.6909850  13.0827140  49.0647140
  61.7054390  12.1508100  48.8466050  60.9834950  13.1686900  49.7036910
  66.8246920   7.2666960  35.3345750  66.7410640   7.6981180  34.4842190
  67.5441110   7.7265310  35.7672570  67.9021060   9.7234480  48.4115720
  67.1769250  10.3163260  48.2145110  68.4296520   9.7158020  47.6129090
  67.8534170  14.1209220  38.0627880  67.2110330  13.4664840  38.3371600
  67.4664830  14.5264310  37.2868550  63.4320650  11.4494650  41.9099570
  63.7844470  10.8522780  41.2500940  62.5482980  11.1238880  42.0807820
  59.5183930  12.2092340  39.3169980  60.2055060  12.7561550  39.6977570
  58.7316350  12.7533070  39.3519590  51.6576330   7.8265160  34.8087060
  52.5271180   8.1089960  35.0922980  51.1666650   8.6401030  34.6935870
  58.8211140   9.2138370  38.9295340  59.2773920  10.0243620  39.1555530
  58.4699350   8.8961510  39.7613830  61.1243750  14.7244710  46.1587640
  61.7685970  14.9304090  46.8361060  61.4873190  13.9633110  45.7058490
  62.3975830  12.7277060  44.8765090  63.0398060  12.0270220  44.9897260
  62.9225180  13.5075500  44.6961980  66.2431550  13.0125680  34.6004230
  66.0169130  12.2956120  35.1928870  65.8527750  12.7638120  33.7625980
  64.1713450  13.5271960  48.0801150  64.5069690  14.1138650  48.7579070
  63.2513790  13.3964670  48.3098940  52.0247580  17.0392540  35.3748690
  52.3845220  17.6381880  34.7205960  51.8839920  17.5852430  36.1483720
  65.8247800  10.9297620  36.2618390  65.5369500  11.3910310  37.0496270
  66.6199970  10.4695390  36.5302610  52.0089440  15.3047400  49.8491090
  52.1180560  14.3642140  49.7086480  51.3570000  15.5702150  49.2004820
  60.0002030  13.5763290  51.2489210  59.6798900  12.8572530  51.7934900
  59.3260390  14.2518360  51.3225270  58.0416200  14.4223740  36.1922360
  58.0326300  15.1553430  35.5766870  57.1214560  14.1755320  36.2849320
  53.6422840   9.6438630  36.9369120  53.0350790  10.3837530  36.9464420
  54.1172190   9.7337990  36.1107320  63.2155630   3.8089450  46.6126010
  63.5836450   2.9884660  46.9405580  62.3553830   3.8691340  47.0281660
  66.5817660   2.7646390  37.4213570  65.9530820   2.8692060  36.7071800
  66.0869580   2.9843170  38.2107450  61.0275800  14.4851980  34.8547550
  61.1287780  14.2815970  33.9249530  60.1277540  14.2310260  35.0595330
  58.5501690   5.0432340  38.8371450  57.8417840   5.5118680  39.2785060
  58.8346170   4.3854350  39.4716640  60.1757620   6.4629040  46.8363980
  60.6742870   6.9374860  47.5015830  60.3180570   5.5392560  47.0434010
  62.5817120   1.7683000  40.2767240  62.4584900   1.7869130  39.3276750
  63.5301680   1.8161940  40.3965640  59.6693910  17.0038300  39.5495220
  59.9235410  16.9659690  38.6274590  58.7206390  16.8771630  39.5423470
  56.7536710   3.3517420  36.2122160  57.6027240   3.7887570  36.1462350
  56.3867980   3.6637680  37.0394220  67.3824480   2.6797000  47.6792370
  66.8798080   3.4202400  48.0186180  68.1981140   3.0681000  47.3629160
  65.6746490   7.9230180  41.1253730  64.7336630   7.9380410  41.3001420
  65.9890560   7.1366140  41.5714030  55.6528130   9.6049780  34.6857690
  56.4191400   9.4931140  35.2483120  55.7302820   8.9087750  34.0334460
  54.3474890   7.0374850  35.3690580  54.4278480   6.0902360  35.4807980
  55.2394640   7.3681730  35.4751240  67.6772070  15.0939030  42.8007990
  67.8019490  15.9170200  43.2731800  68.5437630  14.8829760  42.4532140
  55.1489600  17.1870240  42.4725120  55.8852080  16.6385700  42.7433690
  55.5330520  18.0526250  42.3331110  52.0335080  13.2543810  38.3466630
  51.1074860  13.4964950  38.3372040  52.4991510  14.0818070  38.2251380
  54.1547880  16.3716310  51.6610700  54.9560610  16.6928360  52.0746100
  53.6399700  16.0111890  52.3830610  58.2591910  16.3600550  34.2950690
  59.0520520  16.6489380  33.8432480  57.7396260  15.9292720  33.6163170
  62.9912510  12.4796180  51.6086110  62.3850670  12.5027780  50.8681860
  62.6866620  11.7479220  52.1453360  64.4212880  16.2076470  50.2195520
  65.3734630  16.1234490  50.1695760  64.2741100  16.8718180  50.8929310
  67.3122080  15.5870680  35.7187430  67.0263590  15.1735820  34.9041610
  67.1141630  16.5158390  35.5987950  51.8745690   8.8589770  50.6046750
  52.3784710   8.2797050  51.1762980  51.1353110   9.1430000  51.1423120
  58.7769310  11.5803960  34.1593040  58.6719950  10.9656310  34.8854420
  58.6093530  11.0569850  33.3756050  58.9283630  10.2660760  50.1382270
  58.1629300  10.8345760  50.0536940  59.1099590   9.9736970  49.2450500
  62.0172040  10.6423990  34.7635030  61.4682140  11.0893290  35.4077770
  62.6391300  10.1373240  35.2872700  66.0706980  11.9966090  50.6957290
  66.8116450  12.3341850  50.1924750  65.3079660  12.1658150  50.1427060
  53.9068770   7.0019360  51.4996820  53.9474110   6.7033230  52.4082050
  54.7614270   7.4026970  51.3404340  57.6847160   9.6014910  36.6600330
  58.1063580   9.4354780  37.5031720  57.8098000   8.7915140  36.1655470
  55.8474580   5.5811460  49.4671310  55.3171040   5.0902410  48.8394650
  56.5162650   6.0095660  48.9329240  60.1974800   8.6252520  33.9077430
  60.7180460   7.9101540  33.5418580  60.8443200   9.2638390  34.2077940
  64.7452640  10.0480920  49.2312500  65.1593660  10.2026000  50.0802920
  63.8103640  10.1736140  49.3938280  65.2174810   7.3877080  51.2351650
  65.7995580   6.6329400  51.1472130  65.3936580   7.9184520  50.4583130
  56.3346880   2.5473830  49.5468600  56.2403750   1.9294580  48.8219470
  55.7544270   3.2740120  49.3198510  59.5067870  10.0001400  47.2008430
  59.9255980  10.8434130  47.0284670  58.5876500  10.1373440  46.9715210
  61.8431770   7.7317580  48.5846270  61.9627980   7.1358720  49.3241110
  62.7025770   7.7687270  48.1647570  64.1819670   8.2854770  47.1608780
  63.6554890   8.8097390  46.5573920  64.5251010   8.9182160  47.7918510
  56.5806060   5.6748140  33.6058490  56.3795120   4.8115500  33.9671830
  56.4098110   5.5881500  32.6680090  57.3575290  16.3054410  48.3166160
  56.8196380  17.0300470  47.9974860  57.6109250  15.8284750  47.5263500
  58.6100540   4.2738930  49.8422090  59.2000230   3.9654780  50.5299910
  57.7920780   3.8018680  49.9981990  63.4293970   3.8904740  50.0755110
  62.7409490   3.2286280  50.0105100  64.1499990   3.4443010  50.5203570
  55.3788860   2.7748760  33.5936370  55.6814760   2.7816190  32.6855520
  56.1183450   2.4246620  34.0904030  60.2137500  17.5405620  48.5752810
  60.1396200  18.4440760  48.8825180  59.3116340  17.2217520  48.5474880
  60.7622830  16.7064130  36.1979170  61.6573620  17.0449100  36.2197930
  60.7940460  15.9843540  35.5703450  54.4018990  12.0791180  34.4266170
  54.8393860  12.6220850  35.0823750  54.8866720  11.2538130  34.4362510
  51.6164790  14.8680210  41.8786430  51.9467800  14.0001270  41.6465070
  52.0455790  15.0738730  42.7091390  56.2126710  13.1989220  39.5388400
  55.9122250  13.0754190  40.4392310  56.1064200  12.3397810  39.1304130
  52.1055000  15.7350800  44.6168060  51.6685990  15.9151600  45.4492210
  52.6732680  16.4925420  44.4749780  67.7417180  15.2367800  48.9045370
  67.1419170  15.2960360  48.1609290  67.8711080  14.2972780  49.0342220
  68.9818630  12.9785620  34.2415080  68.1511590  13.0462270  34.7122310
  69.1590460  13.8689740  33.9381940  68.4375090   9.7233100  36.7449280
  69.1994000  10.2929750  36.8508970  68.4529460   9.1560300  37.5157590
  51.9379430   8.2471030  40.9756940  51.2828270   7.9782670  40.3316640
  52.7757380   8.1375510  40.5258920  69.4435060  10.5783200  41.5891210
  69.8143890   9.7950520  41.1827180  70.0836990  11.2672300  41.4108510
  66.4268820  11.9619780  47.0021530  65.6128660  12.3916940  47.2647320
  66.8343020  12.5738190  46.3890580  68.4894260  10.0167470  33.9021800
  68.7643100  10.9246350  33.7741020  68.3005000   9.9530000  34.8383790
  64.8869870   3.0412320  35.1975430  65.3054750   2.8543300  34.3572090
  64.5805930   2.1891370  35.5078360  68.3859600   7.9536460  38.8951230
  68.0103200   7.1864390  38.4632520  67.6562720   8.3359160  39.3826160
  52.9755360   8.6323600  45.5160280  53.3428400   8.5451000  46.3956300
  52.4066180   7.8690150  45.4167140  67.7759220   7.1007980  48.5290750
  67.5445310   6.8720730  47.6288700  68.0363770   8.0207530  48.4835640
  52.5271360   5.5432690  49.4218700  51.6327410   5.5099450  49.7612410
  53.0668910   5.7419480  50.1869950  66.2147290   2.3264410  51.3070450
  67.0917470   2.3347810  51.6904450  66.2268130   1.5895250  50.6962800
  51.1517510   5.4569960  36.9182270  50.2481590   5.7200160  36.7433930
  51.6358130   5.7281130  36.1382230  67.6610560   6.1793950  42.1958470
  68.1848040   5.6856600  41.5648640  68.2469980   6.3144310  42.9406040
  67.8400280   6.2633820  45.7178020  66.8902990   6.2297360  45.8323010
  68.0213290   7.1733930  45.4827790  53.6944720   4.5135500  34.8276650
  54.4036420   4.0918720  34.3423930  52.9784660   4.5810730  34.1960000
  67.1510530   5.4367300  38.1350880  67.6469650   5.2038170  38.9199760
  66.9526600   4.5979140  37.7188520  68.5797690   4.0728250  40.6688560
  68.4696970   3.9184290  41.6070830  69.3405280   3.5449190  40.4263970
  69.4687960   1.9036170  33.9094700  70.3937270   1.7717350  33.7012990
  69.4463750   1.9828990  34.8631150  69.5426450   2.6746830  36.5351410
  68.7477950   2.6091950  37.0644320  69.7469730   3.6097470  36.5236760
  66.4844870  16.7138380  40.5289800  67.0803940  16.3922950  39.8524220
  66.7423020  16.2410200  41.3203070  54.3907440  13.1456290  50.6780430
  54.3477070  12.7749200  51.5594890  54.5218450  14.0833860  50.8182250
  58.0913470  14.7015880  46.2790150  57.8504830  14.9690440  45.3920670
  59.0316110  14.8721610  46.3341010  69.3517630  16.7210260  47.0800790
  68.8575910  17.1179130  46.3627920  68.7430920  16.0959470  47.4738070
  54.2295470  16.0918540  47.7978210  53.6355790  15.9603240  48.5368250
  54.2219310  15.2556680  47.3320310  67.0357080  17.3633680  44.3587530
  66.5760050  18.1149490  43.9845550  66.4069540  16.6440150  44.3002330
  53.8607700  13.4576920  46.7486250  53.1341760  12.8382210  46.6812200
  53.9216850  13.8517530  45.8784330  57.4652800  15.6721920  43.5335660
  57.9817820  15.0609280  43.0083920  58.1150180  16.1750700  44.0246670
  60.2048300  16.5630410  44.3604640  60.4926110  16.3084710  43.4837650
  60.7171520  16.0107770  44.9510210  52.1437700  16.7751310  39.9583010
  51.9759740  16.1421990  40.6564900  51.2772210  16.9810710  39.6077200
  59.3079530   2.7207360  40.4517180  58.4954040   2.3464250  40.1113060
  59.8121170   1.9652440  40.7538370  53.7500400  15.4684540  37.4033150
  53.2248020  15.8492570  36.6995110  53.6744980  16.0935310  38.1242860
  60.2720660  17.4846510  51.7272840  61.1987970  17.2490780  51.7708800
  60.2571090  18.3118510  51.2458870  68.5065720  17.0272080  38.7247090
  68.6817910  16.3409820  38.0808010  67.8087290  17.5519130  38.3323760
  56.3493370  17.4166920  36.2782400  57.0812190  17.1326200  35.7306290
  56.6087040  17.1780200  37.1681780  55.5108160  13.5331650  36.2828730
  54.8817040  14.0016750  36.8314560  55.6255990  12.6880870  36.7174920
  66.8398220  16.7116370  51.5513880  67.6323540  16.2165600  51.3439840
  67.1331370  17.3906510  52.1589490  62.9657880   7.5837310  22.4329930
  62.8851930   6.6691920  22.1621640  62.5522300   8.0804380  21.7269640
  61.0975920   9.3616330  24.3139200  60.3218020   8.8816770  24.6037770
  61.7488850   8.6821980  24.1395360  55.1141750   9.6736140  25.1914960
  54.2826630   9.4184850  25.5911470  55.7222730   9.7446910  25.9272880
  65.1183350  13.7676520  23.0938330  64.6564880  12.9963760  23.4225500
  65.9308900  13.7942590  23.5990780  55.0943010  13.7076230  25.3872980
  55.3971050  12.8173970  25.2083200  55.8386600  14.2646450  25.1595230
  53.5233700   4.6338030  18.9757350  52.6350400   4.9754000  18.8737230
  53.8074890   4.4338350  18.0838180  51.4866710   7.2343680  24.8597050
  52.0582820   6.4665880  24.8600690  51.4868250   7.5332440  23.9503660
  61.3446660  16.0534530  22.7142320  60.7258100  16.5092030  22.1436760
  62.1998440  16.2085990  22.3132020  60.5384910  12.0373520  24.3209360
  60.4693190  11.0963460  24.1598490  61.3004770  12.1274930  24.8931930
  52.7291580   2.6428040  26.6465980  52.5494420   1.7453790  26.9268740
  52.3271660   3.1899910  27.3212930  61.5690080   4.8443900  24.5478290
  61.9454900   3.9715780  24.4351960  61.4709590   5.1802600  23.6568730
  55.6995090   3.2169530  20.0095730  55.8061840   4.1173260  20.3164490
  54.7887450   3.1687500  19.7190380  65.3514200   2.3394340  21.4806630
  66.1723820   1.8490910  21.5232110  65.3848280   2.9292000  22.2338470
  53.3478250   5.1388540  25.2548320  54.0288360   5.4026910  25.8735720
  53.0326300   4.2989410  25.5886330  57.5402820   6.1855900  24.3420910
  58.0481040   6.6836870  24.9825930  58.0716060   5.4091100  24.1660270
  69.6413750   4.3561090  28.0450260  68.9365920   4.7442800  27.5265370
  69.9071670   5.0511380  28.6471190  62.2110010  10.9373770  20.1074230
  61.5927280  11.4023220  19.5436950  62.7233260  11.6301250  20.5243740
  57.0741770  10.4649640  26.7857830  56.7411150  11.0918560  27.4278900
  57.2508450  10.9911520  26.0059500  65.5875680   4.2794720  24.2534170
  64.8831250   4.5679610  24.8337280  65.9487840   5.0894830  23.8933730
  55.5054250   2.5364420  26.6154780  55.8471060   3.3806470  26.3208650
  54.5670060   2.6848160  26.7320120  56.2860870  12.4330440  28.6007010
  56.9034870  13.1081520  28.3191460  55.4253990  12.8418420  28.5094510
  51.5793210  11.6230300  17.4813860  51.2021190  12.1117400  16.7498760
  51.8366280  12.2955580  18.1120390  67.2038460  13.8969850  26.5161650
  66.5201980  14.5668960  26.5078320  67.7432750  14.0950500  25.7506510
  68.6562600   3.7249510  24.6443380  67.7087510   3.7588490  24.7758810
  68.9812590   4.5388460  25.0292740  64.7397200  15.7413980  25.2306830
  64.7524360  15.3376270  24.3629090  64.1872420  16.5161270  25.1268260
  66.0342620  12.4630200  20.3197000  65.9238950  11.5204530  20.4446420
  66.0310870  12.8245840  21.2059760  64.1382640  10.6443820  26.5589440
  64.5551430  10.4303930  25.7242900  64.8622460  10.9016610  27.1298060
  61.5762900   8.0895520  19.6759490  60.6492180   8.0232900  19.9047960
  61.7287720   9.0275650  19.5614730  61.5631980   4.3612520  16.6726650
  60.6235650   4.5226480  16.7579110  61.8815240   5.0798200  16.1262640
  68.0844740   9.0431040  26.6505680  67.2563370   9.1124130  26.1755810
  68.6795220   9.6285350  26.1821510  65.6060190   9.6515820  20.1794740
  64.9872610   9.3135370  19.5321040  65.5884640   9.0075580  20.8873930
  65.0486750   5.8300360  27.5960550  64.6357930   6.6554070  27.8500540
  64.3162700   5.2445400  27.4036910  57.1819540   8.6160260  22.4579220
  56.7776540   7.9037510  21.9625120  57.2682660   8.2713500  23.3467260
  57.6501240  12.3027820  24.6218430  57.3529530  11.6973290  23.9426210
  58.6001060  12.3405130  24.5107790  55.8948160   5.3903470  26.2378260
  56.4462750   5.4998810  25.4631510  56.4091670   5.7641070  26.9533490
  65.7386850  15.8759690  28.2841530  65.2617410  16.6831880  28.0914140
  65.0548640  15.2238020  28.4367740  56.7419670  12.0409510  31.2726230
  55.8448200  12.2649480  31.5199630  56.7672540  12.1644450  30.3237630
  63.7824890   8.8902630  17.1867490  64.2218170   8.0525060  17.0405310
  64.4953310   9.5232030  17.2731630  55.5690890   8.9122830  29.8483600
  55.4298660   9.7845630  30.2171000  54.6872250   8.5695640  29.7031540
  61.8920270  13.8298700  21.1548730  62.3316180  14.5723030  20.7404120
  61.8307160  14.0725270  22.0787690  57.3671240  14.8544530  32.0568750
  57.3386670  15.2587480  31.1897180  57.2036210  13.9254890  31.8940350
  53.8824170   7.5105240  19.9585870  53.7621770   8.2367330  19.3467140
  53.5725060   6.7408150  19.4813780  69.3186060  15.6371630  33.3532920
  69.7945780  16.1154520  34.0322000  69.9393220  15.5689120  32.6278420
  51.5209540  10.6820380  25.7654510  51.5989960  10.8169150  24.8210230
  52.1351220   9.9736270  25.9582630  52.7657170  12.3820570  22.1760690
  52.3585250  12.5235160  21.3214290  53.6570180  12.0980730  21.9731900
  68.7219310  12.8284480  30.5132930  68.8482370  12.5896360  29.5950110
  68.7640690  11.9969020  30.9855010  62.5836050  16.5312480  29.0827740
  63.0980720  16.4420490  29.8850170  61.7405130  16.8772180  29.3755650
  64.5590450  16.8167820  18.5111740  64.3991590  16.5270760  19.4093570
  64.3937160  16.0407950  17.9756970  57.0378830  16.5966350  20.2883360
  56.8621310  15.6801890  20.0751160  56.1834570  16.9553640  20.5281160
  64.2616580  14.3255380  17.0709740  63.5681740  14.3232670  16.4112020
  65.0039440  13.9014700  16.6403910  63.8266510  15.9518090  21.1458230
  64.2823460  15.1707470  21.4596850  64.1659030  16.6624910  21.6899410
  68.5743320   4.8816940  31.4782670  67.9587590   5.3896610  30.9498130
  68.2539740   3.9815270  31.4208610  51.5769060  11.7234550  28.3048970
  51.7400100  11.2539910  27.4868340  52.0421510  11.2158110  28.9697810
  60.6357640   3.7208830  28.9444860  60.1737010   3.9291850  29.7564800
  60.2335750   2.9068180  28.6415530  65.6362150   4.9417780  30.0741520
  64.7855740   4.6423530  30.3950590  65.4763940   5.1859790  29.1625340
  62.7311860   6.4419530  32.1740310  63.0565270   5.6083280  31.8342540
  63.5192190   6.9648050  32.3218640  56.1402050   5.9773880  21.0690790
  55.9142970   5.7611050  21.9737410  55.3594580   6.4102340  20.7236760
  63.3699810   5.9837250  19.6681440  62.7708700   6.7073050  19.4845060
  63.9179420   5.9214030  18.8857890  58.5801260   6.8759460  31.7351060
  58.4844860   5.9354190  31.5851460  59.4233240   7.0974530  31.3399130
  61.9764680   4.6200790  21.6984720  62.3694250   4.9372990  20.8853410
  62.3381530   3.7412670  21.8129240  53.7111800   3.2873130  29.8884840
  53.3175190   4.1348340  30.0957620  53.0230200   2.6499500  30.0793480
  60.2856850   3.3708100  32.9581580  59.5955170   3.1780300  33.5927670
  61.0289150   3.6542740  33.4905880  51.1999080   5.1521710  15.1317640
  51.1173750   6.0952470  15.2732630  50.8482140   5.0096620  14.2529990
  62.5619820   7.2106540  25.7935500  61.8300940   7.7193350  26.1425600
  62.1644160   6.3936520  25.4924280  58.9997210   3.8860740  24.1987990
  59.0033270   3.4450690  23.3492530  59.8948330   4.2078070  24.3059810
  54.8499590   3.7687230  23.1582200  54.5099640   4.2462460  23.9149250
  54.0876910   3.3152350  22.7983300  59.0617360   4.8872820  17.1894750
  59.1830180   4.8459300  18.1380570  58.6765870   5.7496970  17.0341480
  63.0245730   2.6640220  25.2058440  63.0418470   3.1148870  26.0500290
  62.7761310   1.7645860  25.4191880  58.0738860   7.1973960  16.5878050
  57.5055760   6.7492210  15.9613960  58.7827860   7.5566740  16.0543200
  53.1508040  11.0985980  30.4644780  52.7662830  10.4579650  31.0627740
  53.4620230  11.8022100  31.0339510  59.3005180   7.9462520  25.9453400
  59.6675310   7.4721090  26.6914740  59.1110240   8.8204090  26.2861740
  52.1645670   2.6906210  22.0746870  51.8792590   2.3261880  22.9125490
  52.1024530   1.9586670  21.4610010  57.0904550   6.9871160  28.2637610
  56.7861620   7.8663140  28.4887970  58.0451010   7.0470950  28.2995050
  55.6186340  11.1932150  18.8604460  54.8448600  10.6529770  18.7003180
  56.3480970  10.6738760  18.5222220  66.3774320  10.1897510  24.6530850
  67.0973440  10.6852800  24.2626960  66.1756140   9.5115400  24.0084720
  61.7593120  10.2606570  30.5399850  61.6930430   9.3402240  30.2857440
  61.1298260  10.3582010  31.2544490  64.5532650   5.9555120  17.0922400
  65.4412270   6.2672350  16.9173740  64.5237740   5.0827370  16.7002980
  55.6623740  10.8612530  22.4983270  56.1802410  10.0580790  22.4440160
  55.2107760  10.7991670  23.3400100  60.5493240  12.1278810  17.7710570
  60.8908940  12.8721040  17.2753890  59.7205950  12.4409930  18.1335400
  53.1468280   7.8273900  29.4108970  52.7883220   8.4927750  29.9982310
  52.8522840   6.9957450  29.7821590  56.3481400   8.2858140  32.2948520
  56.0481540   8.4315320  31.3976340  57.1192640   7.7263430  32.2021910
  61.6909850  13.0827140  30.2903650  61.7054390  12.1508100  30.0722560
  60.9834950  13.1686900  30.9293420  66.8246920   7.2666960  16.5602260
  66.7410640   7.6981180  15.7098700  67.5441110   7.7265310  16.9929080
  67.9021060   9.7234480  29.6372230  67.1769250  10.3163260  29.4401620
  68.4296520   9.7158020  28.8385600  67.8534170  14.1209220  19.2884390
  67.2110330  13.4664840  19.5628110  67.4664830  14.5264310  18.5125060
  63.4320650  11.4494650  23.1356080  63.7844470  10.8522780  22.4757450
  62.5482980  11.1238880  23.3064330  59.5183930  12.2092340  20.5426490
  60.2055060  12.7561550  20.9234080  58.7316350  12.7533070  20.5776100
  51.6576330   7.8265160  16.0343570  52.5271180   8.1089960  16.3179490
  51.1666650   8.6401030  15.9192380  58.8211140   9.2138370  20.1551850
  59.2773920  10.0243620  20.3812040  58.4699350   8.8961510  20.9870340
  61.1243750  14.7244710  27.3844150  61.7685970  14.9304090  28.0617570
  61.4873190  13.9633110  26.9315000  62.3975830  12.7277060  26.1021600
  63.0398060  12.0270220  26.2153770  62.9225180  13.5075500  25.9218490
  66.2431550  13.0125680  15.8260740  66.0169130  12.2956120  16.4185380
  65.8527750  12.7638120  14.9882490  64.1713450  13.5271960  29.3057660
  64.5069690  14.1138650  29.9835580  63.2513790  13.3964670  29.5355450
  52.0247580  17.0392540  16.6005200  52.3845220  17.6381880  15.9462470
  51.8839920  17.5852430  17.3740230  65.8247800  10.9297620  17.4874900
  65.5369500  11.3910310  18.2752780  66.6199970  10.4695390  17.7559120
  52.0089440  15.3047400  31.0747600  52.1180560  14.3642140  30.9342990
  51.3570000  15.5702150  30.4261330  60.0002030  13.5763290  32.4745720
  59.6798900  12.8572530  33.0191410  59.3260390  14.2518360  32.5481780
  58.0416200  14.4223740  17.4178870  58.0326300  15.1553430  16.8023380
  57.1214560  14.1755320  17.5105830  53.6422840   9.6438630  18.1625630
  53.0350790  10.3837530  18.1720930  54.1172190   9.7337990  17.3363830
  63.2155630   3.8089450  27.8382520  63.5836450   2.9884660  28.1662090
  62.3553830   3.8691340  28.2538170  66.5817660   2.7646390  18.6470080
  65.9530820   2.8692060  17.9328310  66.0869580   2.9843170  19.4363960
  61.0275800  14.4851980  16.0804060  61.1287780  14.2815970  15.1506040
  60.1277540  14.2310260  16.2851840  58.5501690   5.0432340  20.0627960
  57.8417840   5.5118680  20.5041570  58.8346170   4.3854350  20.6973150
  60.1757620   6.4629040  28.0620490  60.6742870   6.9374860  28.7272340
  60.3180570   5.5392560  28.2690520  62.5817120   1.7683000  21.5023750
  62.4584900   1.7869130  20.5533260  63.5301680   1.8161940  21.6222150
  59.6693910  17.0038300  20.7751730  59.9235410  16.9659690  19.8531100
  58.7206390  16.8771630  20.7679980  56.7536710   3.3517420  17.4378670
  57.6027240   3.7887570  17.3718860  56.3867980   3.6637680  18.2650730
  67.3824480   2.6797000  28.9048880  66.8798080   3.4202400  29.2442690
  68.1981140   3.0681000  28.5885670  65.6746490   7.9230180  22.3510240
  64.7336630   7.9380410  22.5257930  65.9890560   7.1366140  22.7970540
  55.6528130   9.6049780  15.9114200  56.4191400   9.4931140  16.4739630
  55.7302820   8.9087750  15.2590970  54.3474890   7.0374850  16.5947090
  54.4278480   6.0902360  16.7064490  55.2394640   7.3681730  16.7007750
  67.6772070  15.0939030  24.0264500  67.8019490  15.9170200  24.4988310
  68.5437630  14.8829760  23.6788650  55.1489600  17.1870240  23.6981630
  55.8852080  16.6385700  23.9690200  55.5330520  18.0526250  23.5587620
  52.0335080  13.2543810  19.5723140  51.1074860  13.4964950  19.5628550
  52.4991510  14.0818070  19.4507890  54.1547880  16.3716310  32.8867210
  54.9560610  16.6928360  33.3002610  53.6399700  16.0111890  33.6087120
  58.2591910  16.3600550  15.5207200  59.0520520  16.6489380  15.0688990
  57.7396260  15.9292720  14.8419680  62.9912510  12.4796180  32.8342620
  62.3850670  12.5027780  32.0938370  62.6866620  11.7479220  33.3709870
  64.4212880  16.2076470  31.4452030  65.3734630  16.1234490  31.3952270
  64.2741100  16.8718180  32.1185820  67.3122080  15.5870680  16.9443940
  67.0263590  15.1735820  16.1298120  67.1141630  16.5158390  16.8244460
  51.8745690   8.8589770  31.8303260  52.3784710   8.2797050  32.4019490
  51.1353110   9.1430000  32.3679630  58.7769310  11.5803960  15.3849550
  58.6719950  10.9656310  16.1110930  58.6093530  11.0569850  14.6012560
  58.9283630  10.2660760  31.3638780  58.1629300  10.8345760  31.2793450
  59.1099590   9.9736970  30.4707010  62.0172040  10.6423990  15.9891540
  61.4682140  11.0893290  16.6334280  62.6391300  10.1373240  16.5129210
  66.0706980  11.9966090  31.9213800  66.8116450  12.3341850  31.4181260
  65.3079660  12.1658150  31.3683570  53.9068770   7.0019360  32.7253330
  53.9474110   6.7033230  33.6338560  54.7614270   7.4026970  32.5660850
  57.6847160   9.6014910  17.8856840  58.1063580   9.4354780  18.7288230
  57.8098000   8.7915140  17.3911980  55.8474580   5.5811460  30.6927820
  55.3171040   5.0902410  30.0651160  56.5162650   6.0095660  30.1585750
  60.1974800   8.6252520  15.1333940  60.7180460   7.9101540  14.7675090
  60.8443200   9.2638390  15.4334450  64.7452640  10.0480920  30.4569010
  65.1593660  10.2026000  31.3059430  63.8103640  10.1736140  30.6194790
  65.2174810   7.3877080  32.4608160  65.7995580   6.6329400  32.3728640
  65.3936580   7.9184520  31.6839640  56.3346880   2.5473830  30.7725110
  56.2403750   1.9294580  30.0475980  55.7544270   3.2740120  30.5455020
  59.5067870  10.0001400  28.4264940  59.9255980  10.8434130  28.2541180
  58.5876500  10.1373440  28.1971720  61.8431770   7.7317580  29.8102780
  61.9627980   7.1358720  30.5497620  62.7025770   7.7687270  29.3904080
  64.1819670   8.2854770  28.3865290  63.6554890   8.8097390  27.7830430
  64.5251010   8.9182160  29.0175020  56.5806060   5.6748140  14.8315000
  56.3795120   4.8115500  15.1928340  56.4098110   5.5881500  13.8936600
  57.3575290  16.3054410  29.5422670  56.8196380  17.0300470  29.2231370
  57.6109250  15.8284750  28.7520010  58.6100540   4.2738930  31.0678600
  59.2000230   3.9654780  31.7556420  57.7920780   3.8018680  31.2238500
  63.4293970   3.8904740  31.3011620  62.7409490   3.2286280  31.2361610
  64.1499990   3.4443010  31.7460080  55.3788860   2.7748760  14.8192880
  55.6814760   2.7816190  13.9112030  56.1183450   2.4246620  15.3160540
  60.2137500  17.5405620  29.8009320  60.1396200  18.4440760  30.1081690
  59.3116340  17.2217520  29.7731390  60.7622830  16.7064130  17.4235680
  61.6573620  17.0449100  17.4454440  60.7940460  15.9843540  16.7959960
  54.4018990  12.0791180  15.6522680  54.8393860  12.6220850  16.3080260
  54.8866720  11.2538130  15.6619020  51.6164790  14.8680210  23.1042940
  51.9467800  14.0001270  22.8721580  52.0455790  15.0738730  23.9347900
  56.2126710  13.1989220  20.7644910  55.9122250  13.0754190  21.6648820
  56.1064200  12.3397810  20.3560640  52.1055000  15.7350800  25.8424570
  51.6685990  15.9151600  26.6748720  52.6732680  16.4925420  25.7006290
  67.7417180  15.2367800  30.1301880  67.1419170  15.2960360  29.3865800
  67.8711080  14.2972780  30.2598730  68.9818630  12.9785620  15.4671590
  68.1511590  13.0462270  15.9378820  69.1590460  13.8689740  15.1638450
  68.4375090   9.7233100  17.9705790  69.1994000  10.2929750  18.0765480
  68.4529460   9.1560300  18.7414100  51.9379430   8.2471030  22.2013450
  51.2828270   7.9782670  21.5573150  52.7757380   8.1375510  21.7515430
  69.4435060  10.5783200  22.8147720  69.8143890   9.7950520  22.4083690
  70.0836990  11.2672300  22.6365020  66.4268820  11.9619780  28.2278040
  65.6128660  12.3916940  28.4903830  66.8343020  12.5738190  27.6147090
  68.4894260  10.0167470  15.1278310  68.7643100  10.9246350  14.9997530
  68.3005000   9.9530000  16.0640300  64.8869870   3.0412320  16.4231940
  65.3054750   2.8543300  15.5828600  64.5805930   2.1891370  16.7334870
  68.3859600   7.9536460  20.1207740  68.0103200   7.1864390  19.6889030
  67.6562720   8.3359160  20.6082670  52.9755360   8.6323600  26.7416790
  53.3428400   8.5451000  27.6212810  52.4066180   7.8690150  26.6423650
  67.7759220   7.1007980  29.7547260  67.5445310   6.8720730  28.8545210
  68.0363770   8.0207530  29.7092150  52.5271360   5.5432690  30.6475210
  51.6327410   5.5099450  30.9868920  53.0668910   5.7419480  31.4126460
  66.2147290   2.3264410  32.5326960  67.0917470   2.3347810  32.9160960
  66.2268130   1.5895250  31.9219310  51.1517510   5.4569960  18.1438780
  50.2481590   5.7200160  17.9690440  51.6358130   5.7281130  17.3638740
  67.6610560   6.1793950  23.4214980  68.1848040   5.6856600  22.7905150
  68.2469980   6.3144310  24.1662550  67.8400280   6.2633820  26.9434530
  66.8902990   6.2297360  27.0579520  68.0213290   7.1733930  26.7084300
  53.6944720   4.5135500  16.0533160  54.4036420   4.0918720  15.5680440
  52.9784660   4.5810730  15.4216510  67.1510530   5.4367300  19.3607390
  67.6469650   5.2038170  20.1456270  66.9526600   4.5979140  18.9445030
  68.5797690   4.0728250  21.8945070  68.4696970   3.9184290  22.8327340
  69.3405280   3.5449190  21.6520480  69.4687960   1.9036170  15.1351210
  70.3937270   1.7717350  14.9269500  69.4463750   1.9828990  16.0887660
  69.5426450   2.6746830  17.7607920  68.7477950   2.6091950  18.2900830
  69.7469730   3.6097470  17.7493270  66.4844870  16.7138380  21.7546310
  67.0803940  16.3922950  21.0780730  66.7423020  16.2410200  22.5459580
  54.3907440  13.1456290  31.9036940  54.3477070  12.7749200  32.7851400
  54.5218450  14.0833860  32.0438760  58.0913470  14.7015880  27.5046660
  57.8504830  14.9690440  26.6177180  59.0316110  14.8721610  27.5597520
  69.3517630  16.7210260  28.3057300  68.8575910  17.1179130  27.5884430
  68.7430920  16.0959470  28.6994580  54.2295470  16.0918540  29.0234720
  53.6355790  15.9603240  29.7624760  54.2219310  15.2556680  28.5576820
  67.0357080  17.3633680  25.5844040  66.5760050  18.1149490  25.2102060
  66.4069540  16.6440150  25.5258840  53.8607700  13.4576920  27.9742760
  53.1341760  12.8382210  27.9068710  53.9216850  13.8517530  27.1040840
  57.4652800  15.6721920  24.7592170  57.9817820  15.0609280  24.2340430
  58.1150180  16.1750700  25.2503180  60.2048300  16.5630410  25.5861150
  60.4926110  16.3084710  24.7094160  60.7171520  16.0107770  26.1766720
  52.1437700  16.7751310  21.1839520  51.9759740  16.1421990  21.8821410
  51.2772210  16.9810710  20.8333710  59.3079530   2.7207360  21.6773690
  58.4954040   2.3464250  21.3369570  59.8121170   1.9652440  21.9794880
  53.7500400  15.4684540  18.6289660  53.2248020  15.8492570  17.9251620
  53.6744980  16.0935310  19.3499370  60.2720660  17.4846510  32.9529350
  61.1987970  17.2490780  32.9965310  60.2571090  18.3118510  32.4715380
  68.5065720  17.0272080  19.9503600  68.6817910  16.3409820  19.3064520
  67.8087290  17.5519130  19.5580270  56.3493370  17.4166920  17.5038910
  57.0812190  17.1326200  16.9562800  56.6087040  17.1780200  18.3938290
  55.5108160  13.5331650  17.5085240  54.8817040  14.0016750  18.0571070
  55.6255990  12.6880870  17.9431430  66.8398220  16.7116370  32.7770390
  67.6323540  16.2165600  32.5696350  67.1331370  17.3906510  33.3846000
  62.9657880   7.5837310   3.6586440  62.8851930   6.6691920   3.3878150
  62.5522300   8.0804380   2.9526150  61.0975920   9.3616330   5.5395710
  60.3218020   8.8816770   5.8294280  61.7488850   8.6821980   5.3651870
  55.1141750   9.6736140   6.4171470  54.2826630   9.4184850   6.8167980
  55.7222730   9.7446910   7.1529390  65.1183350  13.7676520   4.3194840
  64.6564880  12.9963760   4.6482010  65.9308900  13.7942590   4.8247290
  55.0943010  13.7076230   6.6129490  55.3971050  12.8173970   6.4339710
  55.8386600  14.2646450   6.3851740  51.4866710   7.2343680   6.0853560
  52.0582820   6.4665880   6.0857200  51.4868250   7.5332440   5.1760170
  61.3446660  16.0534530   3.9398830  60.7258100  16.5092030   3.3693270
  62.1998440  16.2085990   3.5388530  60.5384910  12.0373520   5.5465870
  60.4693190  11.0963460   5.3855000  61.3004770  12.1274930   6.1188440
  52.7291580   2.6428040   7.8722490  52.5494420   1.7453790   8.1525250
  52.3271660   3.1899910   8.5469440  61.5690080   4.8443900   5.7734800
  61.9454900   3.9715780   5.6608470  61.4709590   5.1802600   4.8825240
  65.3514200   2.3394340   2.7063140  66.1723820   1.8490910   2.7488620
  65.3848280   2.9292000   3.4594980  53.3478250   5.1388540   6.4804830
  54.0288360   5.4026910   7.0992230  53.0326300   4.2989410   6.8142840
  57.5402820   6.1855900   5.5677420  58.0481040   6.6836870   6.2082440
  58.0716060   5.4091100   5.3916780  69.6413750   4.3561090   9.2706770
  68.9365920   4.7442800   8.7521880  69.9071670   5.0511380   9.8727700
  57.0741770  10.4649640   8.0114340  56.7411150  11.0918560   8.6535410
  57.2508450  10.9911520   7.2316010  65.5875680   4.2794720   5.4790680
  64.8831250   4.5679610   6.0593790  65.9487840   5.0894830   5.1190240
  55.5054250   2.5364420   7.8411290  55.8471060   3.3806470   7.5465160
  54.5670060   2.6848160   7.9576630  56.2860870  12.4330440   9.8263520
  56.9034870  13.1081520   9.5447970  55.4253990  12.8418420   9.7351020
  67.2038460  13.8969850   7.7418160  66.5201980  14.5668960   7.7334830
  67.7432750  14.0950500   6.9763020  68.6562600   3.7249510   5.8699890
  67.7087510   3.7588490   6.0015320  68.9812590   4.5388460   6.2549250
  64.7397200  15.7413980   6.4563340  64.7524360  15.3376270   5.5885600
  64.1872420  16.5161270   6.3524770  64.1382640  10.6443820   7.7845950
  64.5551430  10.4303930   6.9499410  64.8622460  10.9016610   8.3554570
  68.0844740   9.0431040   7.8762190  67.2563370   9.1124130   7.4012320
  68.6795220   9.6285350   7.4078020  65.0486750   5.8300360   8.8217060
  64.6357930   6.6554070   9.0757050  64.3162700   5.2445400   8.6293420
  57.1819540   8.6160260   3.6835730  56.7776540   7.9037510   3.1881630
  57.2682660   8.2713500   4.5723770  57.6501240  12.3027820   5.8474940
  57.3529530  11.6973290   5.1682720  58.6001060  12.3405130   5.7364300
  55.8948160   5.3903470   7.4634770  56.4462750   5.4998810   6.6888020
  56.4091670   5.7641070   8.1790000  65.7386850  15.8759690   9.5098040
  65.2617410  16.6831880   9.3170650  65.0548640  15.2238020   9.6624250
  56.7419670  12.0409510  12.4982740  55.8448200  12.2649480  12.7456140
  56.7672540  12.1644450  11.5494140  55.5690890   8.9122830  11.0740110
  55.4298660   9.7845630  11.4427510  54.6872250   8.5695640  10.9288050
  61.8920270  13.8298700   2.3805240  62.3316180  14.5723030   1.9660630
  61.8307160  14.0725270   3.3044200  57.3671240  14.8544530  13.2825260
  57.3386670  15.2587480  12.4153690  57.2036210  13.9254890  13.1196860
  69.3186060  15.6371630  14.5789430  69.7945780  16.1154520  15.2578510
  69.9393220  15.5689120  13.8534930  51.5209540  10.6820380   6.9911020
  51.5989960  10.8169150   6.0466740  52.1351220   9.9736270   7.1839140
  52.7657170  12.3820570   3.4017200  52.3585250  12.5235160   2.5470800
  53.6570180  12.0980730   3.1988410  68.7219310  12.8284480  11.7389440
  68.8482370  12.5896360  10.8206620  68.7640690  11.9969020  12.2111520
  62.5836050  16.5312480  10.3084250  63.0980720  16.4420490  11.1106680
  61.7405130  16.8772180  10.6012160  63.8266510  15.9518090   2.3714740
  64.2823460  15.1707470   2.6853360  64.1659030  16.6624910   2.9155920
  68.5743320   4.8816940  12.7039180  67.9587590   5.3896610  12.1754640
  68.2539740   3.9815270  12.6465120  51.5769060  11.7234550   9.5305480
  51.7400100  11.2539910   8.7124850  52.0421510  11.2158110  10.1954320
  60.6357640   3.7208830  10.1701370  60.1737010   3.9291850  10.9821310
  60.2335750   2.9068180   9.8672040  65.6362150   4.9417780  11.2998030
  64.7855740   4.6423530  11.6207100  65.4763940   5.1859790  10.3881850
  62.7311860   6.4419530  13.3996820  63.0565270   5.6083280  13.0599050
  63.5192190   6.9648050  13.5475150  56.1402050   5.9773880   2.2947300
  55.9142970   5.7611050   3.1993920  55.3594580   6.4102340   1.9493270
  58.5801260   6.8759460  12.9607570  58.4844860   5.9354190  12.8107970
  59.4233240   7.0974530  12.5655640  61.9764680   4.6200790   2.9241230
  62.3694250   4.9372990   2.1109920  62.3381530   3.7412670   3.0385750
  53.7111800   3.2873130  11.1141350  53.3175190   4.1348340  11.3214130
  53.0230200   2.6499500  11.3049990  60.2856850   3.3708100  14.1838090
  59.5955170   3.1780300  14.8184180  61.0289150   3.6542740  14.7162390
  62.5619820   7.2106540   7.0192010  61.8300940   7.7193350   7.3682110
  62.1644160   6.3936520   6.7180790  58.9997210   3.8860740   5.4244500
  59.0033270   3.4450690   4.5749040  59.8948330   4.2078070   5.5316320
  54.8499590   3.7687230   4.3838710  54.5099640   4.2462460   5.1405760
  54.0876910   3.3152350   4.0239810  63.0245730   2.6640220   6.4314950
  63.0418470   3.1148870   7.2756800  62.7761310   1.7645860   6.6448390
  53.1508040  11.0985980  11.6901290  52.7662830  10.4579650  12.2884250
  53.4620230  11.8022100  12.2596020  59.3005180   7.9462520   7.1709910
  59.6675310   7.4721090   7.9171250  59.1110240   8.8204090   7.5118250
  52.1645670   2.6906210   3.3003380  51.8792590   2.3261880   4.1382000
  52.1024530   1.9586670   2.6866520  57.0904550   6.9871160   9.4894120
  56.7861620   7.8663140   9.7144480  58.0451010   7.0470950   9.5251560
  66.3774320  10.1897510   5.8787360  67.0973440  10.6852800   5.4883470
  66.1756140   9.5115400   5.2341230  61.7593120  10.2606570  11.7656360
  61.6930430   9.3402240  11.5113950  61.1298260  10.3582010  12.4801000
  55.6623740  10.8612530   3.7239780  56.1802410  10.0580790   3.6696670
  55.2107760  10.7991670   4.5656610  53.1468280   7.8273900  10.6365480
  52.7883220   8.4927750  11.2238820  52.8522840   6.9957450  11.0078100
  56.3481400   8.2858140  13.5205030  56.0481540   8.4315320  12.6232850
  57.1192640   7.7263430  13.4278420  61.6909850  13.0827140  11.5160160
  61.7054390  12.1508100  11.2979070  60.9834950  13.1686900  12.1549930
  67.9021060   9.7234480  10.8628740  67.1769250  10.3163260  10.6658130
  68.4296520   9.7158020  10.0642110  63.4320650  11.4494650   4.3612590
  63.7844470  10.8522780   3.7013960  62.5482980  11.1238880   4.5320840
  59.5183930  12.2092340   1.7683000  60.2055060  12.7561550   2.1490590
  58.7316350  12.7533070   1.8032610  61.1243750  14.7244710   8.6100660
  61.7685970  14.9304090   9.2874080  61.4873190  13.9633110   8.1571510
  62.3975830  12.7277060   7.3278110  63.0398060  12.0270220   7.4410280
  62.9225180  13.5075500   7.1475000  64.1713450  13.5271960  10.5314170
  64.5069690  14.1138650  11.2092090  63.2513790  13.3964670  10.7611960
  52.0089440  15.3047400  12.3004110  52.1180560  14.3642140  12.1599500
  51.3570000  15.5702150  11.6517840  60.0002030  13.5763290  13.7002230
  59.6798900  12.8572530  14.2447920  59.3260390  14.2518360  13.7738290
  63.2155630   3.8089450   9.0639030  63.5836450   2.9884660   9.3918600
  62.3553830   3.8691340   9.4794680  60.1757620   6.4629040   9.2877000
  60.6742870   6.9374860   9.9528850  60.3180570   5.5392560   9.4947030
  62.5817120   1.7683000   2.7280260  62.4584900   1.7869130   1.7789770
  63.5301680   1.8161940   2.8478660  67.3824480   2.6797000  10.1305390
  66.8798080   3.4202400  10.4699200  68.1981140   3.0681000   9.8142180
  65.6746490   7.9230180   3.5766750  64.7336630   7.9380410   3.7514440
  65.9890560   7.1366140   4.0227050  67.6772070  15.0939030   5.2521010
  67.8019490  15.9170200   5.7244820  68.5437630  14.8829760   4.9045160
  55.1489600  17.1870240   4.9238140  55.8852080  16.6385700   5.1946710
  55.5330520  18.0526250   4.7844130  54.1547880  16.3716310  14.1123720
  54.9560610  16.6928360  14.5259120  53.6399700  16.0111890  14.8343630
  62.9912510  12.4796180  14.0599130  62.3850670  12.5027780  13.3194880
  62.6866620  11.7479220  14.5966380  64.4212880  16.2076470  12.6708540
  65.3734630  16.1234490  12.6208780  64.2741100  16.8718180  13.3442330
  51.8745690   8.8589770  13.0559770  52.3784710   8.2797050  13.6276000
  51.1353110   9.1430000  13.5936140  58.9283630  10.2660760  12.5895290
  58.1629300  10.8345760  12.5049960  59.1099590   9.9736970  11.6963520
  66.0706980  11.9966090  13.1470310  66.8116450  12.3341850  12.6437770
  65.3079660  12.1658150  12.5940080  53.9068770   7.0019360  13.9509840
  53.9474110   6.7033230  14.8595070  54.7614270   7.4026970  13.7917360
  55.8474580   5.5811460  11.9184330  55.3171040   5.0902410  11.2907670
  56.5162650   6.0095660  11.3842260  64.7452640  10.0480920  11.6825520
  65.1593660  10.2026000  12.5315940  63.8103640  10.1736140  11.8451300
  65.2174810   7.3877080  13.6864670  65.7995580   6.6329400  13.5985150
  65.3936580   7.9184520  12.9096150  56.3346880   2.5473830  11.9981620
  56.2403750   1.9294580  11.2732490  55.7544270   3.2740120  11.7711530
  59.5067870  10.0001400   9.6521450  59.9255980  10.8434130   9.4797690
  58.5876500  10.1373440   9.4228230  61.8431770   7.7317580  11.0359290
  61.9627980   7.1358720  11.7754130  62.7025770   7.7687270  10.6160590
  64.1819670   8.2854770   9.6121800  63.6554890   8.8097390   9.0086940
  64.5251010   8.9182160  10.2431530  57.3575290  16.3054410  10.7679180
  56.8196380  17.0300470  10.4487880  57.6109250  15.8284750   9.9776520
  58.6100540   4.2738930  12.2935110  59.2000230   3.9654780  12.9812930
  57.7920780   3.8018680  12.4495010  63.4293970   3.8904740  12.5268130
  62.7409490   3.2286280  12.4618120  64.1499990   3.4443010  12.9716590
  60.2137500  17.5405620  11.0265830  60.1396200  18.4440760  11.3338200
  59.3116340  17.2217520  10.9987900  51.6164790  14.8680210   4.3299450
  51.9467800  14.0001270   4.0978090  52.0455790  15.0738730   5.1604410
  52.1055000  15.7350800   7.0681080  51.6685990  15.9151600   7.9005230
  52.6732680  16.4925420   6.9262800  67.7417180  15.2367800  11.3558390
  67.1419170  15.2960360  10.6122310  67.8711080  14.2972780  11.4855240
  51.9379430   8.2471030   3.4269960  51.2828270   7.9782670   2.7829660
  52.7757380   8.1375510   2.9771940  69.4435060  10.5783200   4.0404230
  69.8143890   9.7950520   3.6340200  70.0836990  11.2672300   3.8621530
  66.4268820  11.9619780   9.4534550  65.6128660  12.3916940   9.7160340
  66.8343020  12.5738190   8.8403600  52.9755360   8.6323600   7.9673300
  53.3428400   8.5451000   8.8469320  52.4066180   7.8690150   7.8680160
  67.7759220   7.1007980  10.9803770  67.5445310   6.8720730  10.0801720
  68.0363770   8.0207530  10.9348660  52.5271360   5.5432690  11.8731720
  51.6327410   5.5099450  12.2125430  53.0668910   5.7419480  12.6382970
  66.2147290   2.3264410  13.7583470  67.0917470   2.3347810  14.1417470
  66.2268130   1.5895250  13.1475820  67.6610560   6.1793950   4.6471490
  68.1848040   5.6856600   4.0161660  68.2469980   6.3144310   5.3919060
  67.8400280   6.2633820   8.1691040  66.8902990   6.2297360   8.2836030
  68.0213290   7.1733930   7.9340810  68.5797690   4.0728250   3.1201580
  68.4696970   3.9184290   4.0583850  69.3405280   3.5449190   2.8776990
  66.4844870  16.7138380   2.9802820  67.0803940  16.3922950   2.3037240
  66.7423020  16.2410200   3.7716090  54.3907440  13.1456290  13.1293450
  54.3477070  12.7749200  14.0107910  54.5218450  14.0833860  13.2695270
  58.0913470  14.7015880   8.7303170  57.8504830  14.9690440   7.8433690
  59.0316110  14.8721610   8.7854030  69.3517630  16.7210260   9.5313810
  68.8575910  17.1179130   8.8140940  68.7430920  16.0959470   9.9251090
  54.2295470  16.0918540  10.2491230  53.6355790  15.9603240  10.9881270
  54.2219310  15.2556680   9.7833330  67.0357080  17.3633680   6.8100550
  66.5760050  18.1149490   6.4358570  66.4069540  16.6440150   6.7515350
  53.8607700  13.4576920   9.1999270  53.1341760  12.8382210   9.1325220
  53.9216850  13.8517530   8.3297350  57.4652800  15.6721920   5.9848680
  57.9817820  15.0609280   5.4596940  58.1150180  16.1750700   6.4759690
  60.2048300  16.5630410   6.8117660  60.4926110  16.3084710   5.9350670
  60.7171520  16.0107770   7.4023230  52.1437700  16.7751310   2.4096030
  51.9759740  16.1421990   3.1077920  51.2772210  16.9810710   2.0590220
  59.3079530   2.7207360   2.9030200  58.4954040   2.3464250   2.5626080
  59.8121170   1.9652440   3.2051390  60.2720660  17.4846510  14.1785860
  61.1987970  17.2490780  14.2221820  60.2571090  18.3118510  13.6971890
  66.8398220  16.7116370  14.0026900  67.6323540  16.2165600  13.7952860
  67.1331370  17.3906510  14.6102510  44.1914390  63.9067780  59.9816910
  44.1108440  62.9922390  59.7108620  43.7778810  64.4034850  59.2756620
  42.3232430  65.6846800  61.8626180  41.5474530  65.2047240  62.1524750
  42.9745360  65.0052450  61.6882340  36.3398260  65.9966610  62.7401940
  35.5083140  65.7415320  63.1398450  36.9479240  66.0677380  63.4759860
  46.3439860  70.0906990  60.6425310  45.8821390  69.3194230  60.9712480
  47.1565410  70.1173060  61.1477760  36.3199520  70.0306700  62.9359960
  36.6227560  69.1404440  62.7570180  37.0643110  70.5876920  62.7082210
  34.7490210  60.9568500  56.5244330  33.8606910  61.2984470  56.4224210
  35.0331400  60.7568820  55.6325160  32.7123220  63.5574150  62.4084030
  33.2839330  62.7896350  62.4087670  32.7124760  63.8562910  61.4990640
  41.7641420  68.3603990  61.8696340  41.6949700  67.4193930  61.7085470
  42.5261280  68.4505400  62.4418910  33.9548090  58.9658510  64.1952960
  33.7750930  58.0684260  64.4755720  33.5528170  59.5130380  64.8699910
  42.7946590  61.1674370  62.0965270  43.1711410  60.2946250  61.9838940
  42.6966100  61.5033070  61.2055710  36.9251600  59.5400000  57.5582710
  37.0318350  60.4403730  57.8651470  36.0143960  59.4917970  57.2677360
  46.5770710  58.6624810  59.0293610  47.3980330  58.1721380  59.0719090
  46.6104790  59.2522470  59.7825450  34.5734760  61.4619010  62.8035300
  35.2544870  61.7257380  63.4222700  34.2582810  60.6219880  63.1373310
  38.7659330  62.5086370  61.8907890  39.2737550  63.0067340  62.5312910
  39.2972570  61.7321570  61.7147250  43.4366520  67.2604240  57.6561210
  42.8183790  67.7253690  57.0923930  43.9489770  67.9531720  58.0730720
  38.2998280  66.7880110  64.3344810  37.9667660  67.4149030  64.9765880
  38.4764960  67.3141990  63.5546480  46.8132190  60.6025190  61.8021150
  46.1087760  60.8910080  62.3824260  47.1744350  61.4125300  61.4420710
  36.7310760  58.8594890  64.1641760  37.0727570  59.7036940  63.8695630
  35.7926570  59.0078630  64.2807100  32.8049720  67.9460770  55.0300840
  32.4277700  68.4347870  54.2985740  33.0622790  68.6186050  55.6607370
  48.4294970  70.2200320  64.0648630  47.7458490  70.8899430  64.0565300
  48.9689260  70.4180970  63.2993490  49.8819110  60.0479980  62.1930360
  48.9344020  60.0818960  62.3245790  50.2069100  60.8618930  62.5779720
  40.4138650  56.3477160  60.4886350  40.7213630  55.7924050  59.7721850
  39.4839350  56.4821620  60.3059340  47.2599130  68.7860670  57.8683980
  47.1495460  67.8435000  57.9933400  47.2567380  69.1476310  58.7546740
  45.3639150  66.9674290  64.1076420  45.7807940  66.7534400  63.2729880
  46.0878970  67.2247080  64.6785040  42.8019410  64.4125990  57.2246470
  41.8748690  64.3463370  57.4534940  42.9544230  65.3506120  57.1101710
  42.7888490  60.6842990  54.2213630  41.8492160  60.8456950  54.3066090
  43.1071750  61.4028670  53.6749620  49.3101250  65.3661510  64.1992660
  48.4819880  65.4354600  63.7242790  49.9051730  65.9515820  63.7308490
  46.8316700  65.9746290  57.7281720  46.2129120  65.6365840  57.0808020
  46.8141150  65.3306050  58.4360910  38.4076050  64.9390730  60.0066200
  38.0033050  64.2267980  59.5112100  38.4939170  64.5943970  60.8954240
  38.8757750  68.6258290  62.1705410  38.5786040  68.0203760  61.4913190
  39.8257570  68.6635600  62.0594770  37.1204670  61.7133940  63.7865240
  37.6719260  61.8229280  63.0118490  37.6348180  62.0871540  64.5020470
  45.0081400  65.2133100  54.7354470  45.4474680  64.3755530  54.5892290
  45.7209820  65.8462500  54.8218610  43.1176780  70.1529170  58.7035710
  43.5572690  70.8953500  58.2891100  43.0563670  70.3955740  59.6274670
  48.5898540  56.4675910  53.0495510  48.2771200  56.5602740  53.9494580
  49.3511010  57.0456940  52.9992940  35.1080680  63.8335710  57.5072850
  34.9878280  64.5597800  56.8954120  34.7981570  63.0638620  57.0300760
  32.7466050  67.0050850  63.3141490  32.8246470  67.1399620  62.3697210
  33.3607730  66.2966740  63.5069610  33.9913680  68.7051040  59.7247670
  33.5841760  68.8465630  58.8701270  34.8826690  68.4211200  59.5218880
  45.4873090  70.6485850  54.6196720  44.7938250  70.6463140  53.9599000
  46.2295950  70.2245170  54.1890890  37.5744340  57.1770780  60.8896520
  37.1312490  57.9580320  60.5581040  38.1329330  57.5000670  61.5967460
  40.6903160  56.7981480  55.7702350  40.0657340  56.7941350  56.4955660
  40.6033280  55.9312440  55.3738320  39.6120240  57.7218110  62.7486120
  39.9092570  58.6280940  62.6678140  40.1605800  57.2336890  62.1345690
  37.3658560  62.3004350  58.6177770  37.1399480  62.0841520  59.5224390
  36.5851090  62.7332810  58.2723740  44.5956320  62.3067720  57.2168420
  43.9965210  63.0303520  57.0332040  45.1435930  62.2444500  56.4344870
  43.2021190  60.9431260  59.2471700  43.5950760  61.2603460  58.4340390
  43.5638040  60.0643140  59.3616220  32.2385360  57.5332060  61.4701900
  31.9498410  58.1034920  62.1826880  32.9831120  57.0536510  61.8333130
  32.4255590  61.4752180  52.6804620  32.3430260  62.4182940  52.8219610
  32.0738650  61.3327090  51.8016970  43.7876330  63.5337010  63.3422480
  43.0557450  64.0423820  63.6912580  43.3900670  62.7166990  63.0411260
  40.2253720  60.2091210  61.7474970  40.2289780  59.7681160  60.8979510
  41.1204840  60.5308540  61.8546790  36.0756100  60.0917700  60.7069180
  35.7356150  60.5692930  61.4636230  35.3133420  59.6382820  60.3470280
  40.2873870  61.2103290  54.7381730  40.4086690  61.1689770  55.6867550
  39.9022380  62.0727440  54.5828460  44.2502240  58.9870690  62.7545420
  44.2674980  59.4379340  63.5987270  44.0017820  58.0876330  62.9678860
  39.2995370  63.5204430  54.1365030  38.7312270  63.0722680  53.5100940
  40.0084370  63.8797210  53.6030180  40.5261690  64.2692990  63.4940380
  40.8931820  63.7951560  64.2401720  40.3366750  65.1434560  63.8348720
  33.3902180  59.0136680  59.6233850  33.1049100  58.6492350  60.4612470
  33.3281040  58.2817140  59.0096990  36.8442850  67.5162620  56.4091440
  36.0705110  66.9760240  56.2490160  37.5737480  66.9969230  56.0709200
  47.6030830  66.5127980  62.2017830  48.3229950  67.0083270  61.8113940
  47.4012650  65.8345870  61.5571700  43.0640770  57.9065940  56.3447220
  42.2505380  57.4079110  56.2692530  42.8702720  58.7464190  55.9283570
  45.7789160  62.2785590  54.6409380  46.6668780  62.5902820  54.4660720
  45.7494250  61.4057840  54.2489960  36.8880250  67.1843000  60.0470250
  37.4058920  66.3811260  59.9927140  36.4364270  67.1222140  60.8887080
  41.7749750  68.4509280  55.3197550  42.1165450  69.1951510  54.8240870
  40.9462460  68.7640400  55.6822380  48.0503430  63.5897430  54.1089240
  47.9667150  64.0211650  53.2585680  48.7697620  64.0495780  54.5416060
  49.0790680  70.4439690  56.8371370  48.4366840  69.7895310  57.1115090
  48.6921340  70.8494780  56.0612040  44.6577160  67.7725120  60.6843060
  45.0100980  67.1753250  60.0244430  43.7739490  67.4469350  60.8551310
  40.7440440  68.5322810  58.0913470  41.4311570  69.0792020  58.4721060
  39.9572860  69.0763540  58.1263080  32.8832840  64.1495630  53.5830550
  33.7527690  64.4320430  53.8666470  32.3923160  64.9631500  53.4679360
  40.0467650  65.5368840  57.7038830  40.5030430  66.3474090  57.9299020
  39.6955860  65.2191980  58.5357320  35.9479430  55.8806490  58.1761350
  35.8194060  55.8724390  59.1246270  35.1241450  56.2189580  57.8252360
  43.6232340  69.0507530  63.6508580  44.2654570  68.3500690  63.7640750
  44.1481690  69.8305970  63.4705470  47.4688060  69.3356150  53.3747720
  47.2425640  68.6186590  53.9672360  47.0784260  69.0868590  52.5369470
  47.0504310  67.2528090  55.0361880  46.7626010  67.7140780  55.8239760
  47.8456480  66.7925860  55.3046100  39.2672710  70.7454210  54.9665850
  39.2582810  71.4783900  54.3510360  38.3471070  70.4985790  55.0592810
  34.8679350  65.9669100  55.7112610  34.2607300  66.7068000  55.7207910
  35.3428700  66.0568460  54.8850810  47.8074170  59.0876860  56.1957060
  47.1787330  59.1922530  55.4815290  47.3126090  59.3073640  56.9850940
  42.2532310  70.8082450  53.6291040  42.3544290  70.6046440  52.6993020
  41.3534050  70.5540730  53.8338820  39.7758200  61.3662810  57.6114940
  39.0674350  61.8349150  58.0528550  40.0602680  60.7084820  58.2460130
  43.8073630  58.0913470  59.0510730  43.6841410  58.1099600  58.1020240
  44.7558190  58.1392410  59.1709130  37.9793220  59.6747890  54.9865650
  38.8283750  60.1118040  54.9205840  37.6124490  59.9868150  55.8137710
  46.9003000  64.2460650  59.8997220  45.9593140  64.2610880  60.0744910
  47.2147070  63.4596610  60.3457520  36.8784640  65.9280250  53.4601180
  37.6447910  65.8161610  54.0226610  36.9559330  65.2318220  52.8077950
  35.5731400  63.3605320  54.1434070  35.6534990  62.4132830  54.2551470
  36.4651150  63.6912200  54.2494730  33.2591590  69.5774280  57.1210120
  32.3331370  69.8195420  57.1115530  33.7248020  70.4048540  56.9994870
  40.0025820  67.9034430  52.9336530  39.8976460  67.2886780  53.6597910
  39.8350040  67.3800320  52.1499540  43.2428550  66.9654460  53.5378520
  42.6938650  67.4123760  54.1821260  43.8647810  66.4603710  54.0616190
  38.9103670  65.9245380  55.4343820  39.3320090  65.7585250  56.2775210
  39.0354510  65.1145610  54.9398960  41.4231310  64.9482990  52.6820920
  41.9436970  64.2332010  52.3162070  42.0699710  65.5868860  52.9821430
  37.8062570  61.9978610  52.3801980  37.6051630  61.1345970  52.7415320
  37.6354620  61.9111970  51.4423580  45.2850880  56.8086840  54.9088860
  45.5653170  55.9654740  55.2648280  44.5116610  57.0409950  55.4227610
  36.6045370  59.0979230  52.3679860  36.9071270  59.1046660  51.4599010
  37.3439960  58.7477090  52.8647520  39.8230300  58.0413850  53.3536060
  39.4752300  57.3637840  52.7738510  40.0243070  57.5803360  54.1679450
  35.6275500  68.4021650  53.2009660  36.0650370  68.9451320  53.8567240
  36.1123230  67.5768600  53.2106000  32.8421300  71.1910680  60.6529920
  33.1724310  70.3231740  60.4208560  33.2712300  71.3969200  61.4834880
  37.4383220  69.5219690  58.3131890  37.1378760  69.3984660  59.2135800
  37.3320710  68.6628280  57.9047620  50.2075140  69.3016090  53.0158570
  49.3768100  69.3692740  53.4865800  50.3846970  70.1920210  52.7125430
  49.6631600  66.0463570  55.5192770  50.4250510  66.6160220  55.6252460
  49.6785970  65.4790770  56.2901080  33.1635940  64.5701500  59.7500430
  32.5084780  64.3013140  59.1060130  34.0013890  64.4605980  59.3002410
  50.6691570  66.9013670  60.3634700  51.0400400  66.1180990  59.9570670
  51.3093500  67.5902770  60.1852000  49.7150770  66.3397940  52.6765290
  49.9899610  67.2476820  52.5484510  49.5261510  66.2760470  53.6127280
  46.1126380  59.3642790  53.9718920  46.5311260  59.1773770  53.1315580
  45.8062440  58.5121840  54.2821850  49.6116110  64.2766930  57.6694720
  49.2359710  63.5094860  57.2376010  48.8819230  64.6589630  58.1569650
  34.2011870  64.9554070  64.2903770  34.5684910  64.8681470  65.1699790
  33.6322690  64.1920620  64.1910630  32.3774020  61.7800430  55.6925760
  31.4738100  62.0430630  55.5177420  32.8614640  62.0511600  54.9125720
  48.8867070  62.5024420  60.9701960  49.4104550  62.0087070  60.3392130
  49.4726490  62.6374780  61.7149530  49.0656790  62.5864290  64.4921510
  48.1159500  62.5527830  64.6066500  49.2469800  63.4964400  64.2571280
  34.9201230  60.8365970  53.6020140  35.6292930  60.4149190  53.1167420
  34.2041170  60.9041200  52.9703490  34.5675390  56.8905300  52.6422790
  35.2903520  57.4314240  52.9604010  34.8399910  56.6168720  51.7664330
  48.3767040  61.7597770  56.9094370  48.8726160  61.5268640  57.6943250
  48.1783110  60.9209610  56.4932010  34.2567580  56.1411490  62.5445410
  34.9043770  55.5908870  62.1040570  34.6769420  56.3954640  63.3661220
  49.8054200  60.3958720  59.4432050  49.6953480  60.2414760  60.3814320
  50.5661790  59.8679660  59.2007460  50.6944470  58.2266640  52.6838190
  51.6193780  58.0947820  52.4756480  50.6720260  58.3059460  53.6374640
  50.7682960  58.9977300  55.3094900  49.9734460  58.9322420  55.8387810
  50.9726240  59.9327940  55.2980250  39.3169980  71.0246350  65.0533640
  39.0761340  71.2920910  64.1664160  40.2572620  71.1952080  65.1084500
  42.6481820  56.6251080  63.7144640  41.8653610  57.0996580  63.9941400
  42.3544750  55.7205910  63.6057820  47.2002890  57.3274180  61.7593730
  47.6410980  57.2719280  60.9115330  46.9310480  58.2432190  61.8303910
  49.0641460  56.9589420  59.7702550  49.0029860  56.0150640  59.6233570
  49.8433490  57.0669510  60.3156010  33.9922230  56.9298560  56.2358360
  34.7501590  57.0427440  55.6622390  33.5299400  57.7667760  56.1901790
  40.5336040  59.0437830  59.2260670  39.7210550  58.6694720  58.8856550
  41.0377680  58.2882910  59.5281860  45.0361020  55.7080280  60.4643740
  45.6390390  56.2800490  60.9392260  44.2954010  56.2719720  60.2417640
  48.1795620  56.1101840  55.7384020  48.3746250  57.0085290  56.0051450
  47.3925490  55.8788920  56.2316970  36.3647380  57.4562610  54.7760330
  36.8940140  56.6692410  54.6468280  36.9975700  58.1353800  55.0095860
  38.5585220  57.1937750  57.8305720  37.9287960  56.4925060  57.9975850
  38.0190360  57.9541880  57.6138880  36.7364670  69.8562120  55.0572220
  36.1073550  70.3247220  55.6058050  36.8512500  69.0111340  55.4918410
  44.1914390  63.9067780  41.2073420  44.1108440  62.9922390  40.9365130
  43.7778810  64.4034850  40.5013130  42.3232430  65.6846800  43.0882690
  41.5474530  65.2047240  43.3781260  42.9745360  65.0052450  42.9138850
  36.3398260  65.9966610  43.9658450  35.5083140  65.7415320  44.3654960
  36.9479240  66.0677380  44.7016370  46.3439860  70.0906990  41.8681820
  45.8821390  69.3194230  42.1968990  47.1565410  70.1173060  42.3734270
  36.3199520  70.0306700  44.1616470  36.6227560  69.1404440  43.9826690
  37.0643110  70.5876920  43.9338720  34.7490210  60.9568500  37.7500840
  33.8606910  61.2984470  37.6480720  35.0331400  60.7568820  36.8581670
  32.7123220  63.5574150  43.6340540  33.2839330  62.7896350  43.6344180
  32.7124760  63.8562910  42.7247150  41.7641420  68.3603990  43.0952850
  41.6949700  67.4193930  42.9341980  42.5261280  68.4505400  43.6675420
  33.9548090  58.9658510  45.4209470  33.7750930  58.0684260  45.7012230
  33.5528170  59.5130380  46.0956420  42.7946590  61.1674370  43.3221780
  43.1711410  60.2946250  43.2095450  42.6966100  61.5033070  42.4312220
  36.9251600  59.5400000  38.7839220  37.0318350  60.4403730  39.0907980
  36.0143960  59.4917970  38.4933870  46.5770710  58.6624810  40.2550120
  47.3980330  58.1721380  40.2975600  46.6104790  59.2522470  41.0081960
  34.5734760  61.4619010  44.0291810  35.2544870  61.7257380  44.6479210
  34.2582810  60.6219880  44.3629820  38.7659330  62.5086370  43.1164400
  39.2737550  63.0067340  43.7569420  39.2972570  61.7321570  42.9403760
  50.8670260  60.6791560  46.8193750  50.1622430  61.0673270  46.3008860
  51.1328180  61.3741850  47.4214680  37.0495430  57.1484930  47.3827820
  37.0513870  57.6657320  46.5773720  36.2199740  56.6715110  47.3597750
  43.4366520  67.2604240  38.8817720  42.8183790  67.7253690  38.3180440
  43.9489770  67.9531720  39.2987230  38.2998280  66.7880110  45.5601320
  37.9667660  67.4149030  46.2022390  38.4764960  67.3141990  44.7802990
  46.8132190  60.6025190  43.0277660  46.1087760  60.8910080  43.6080770
  47.1744350  61.4125300  42.6677220  36.7310760  58.8594890  45.3898270
  37.0727570  59.7036940  45.0952140  35.7926570  59.0078630  45.5063610
  37.5117380  68.7560910  47.3750500  38.1291380  69.4311990  47.0934950
  36.6510500  69.1648890  47.2838000  32.8049720  67.9460770  36.2557350
  32.4277700  68.4347870  35.5242250  33.0622790  68.6186050  36.8863880
  48.4294970  70.2200320  45.2905140  47.7458490  70.8899430  45.2821810
  48.9689260  70.4180970  44.5250000  49.8819110  60.0479980  43.4186870
  48.9344020  60.0818960  43.5502300  50.2069100  60.8618930  43.8036230
  40.4138650  56.3477160  41.7142860  40.7213630  55.7924050  40.9978360
  39.4839350  56.4821620  41.5315850  47.2599130  68.7860670  39.0940490
  47.1495460  67.8435000  39.2189910  47.2567380  69.1476310  39.9803250
  45.3639150  66.9674290  45.3332930  45.7807940  66.7534400  44.4986390
  46.0878970  67.2247080  45.9041550  42.8019410  64.4125990  38.4502980
  41.8748690  64.3463370  38.6791450  42.9544230  65.3506120  38.3358220
  42.7888490  60.6842990  35.4470140  41.8492160  60.8456950  35.5322600
  43.1071750  61.4028670  34.9006130  49.3101250  65.3661510  45.4249170
  48.4819880  65.4354600  44.9499300  49.9051730  65.9515820  44.9565000
  46.8316700  65.9746290  38.9538230  46.2129120  65.6365840  38.3064530
  46.8141150  65.3306050  39.6617420  46.2743260  62.1530830  46.3704040
  45.8614440  62.9784540  46.6244030  45.5419210  61.5675870  46.1780400
  38.4076050  64.9390730  41.2322710  38.0033050  64.2267980  40.7368610
  38.4939170  64.5943970  42.1210750  38.8757750  68.6258290  43.3961920
  38.5786040  68.0203760  42.7169700  39.8257570  68.6635600  43.2851280
  37.1204670  61.7133940  45.0121750  37.6719260  61.8229280  44.2375000
  37.6348180  62.0871540  45.7276980  37.9676180  68.3639980  50.0469720
  37.0704710  68.5879950  50.2943120  37.9929050  68.4874920  49.0981120
  45.0081400  65.2133100  35.9610980  45.4474680  64.3755530  35.8148800
  45.7209820  65.8462500  36.0475120  36.7947400  65.2353300  48.6227090
  36.6555170  66.1076100  48.9914490  35.9128760  64.8926110  48.4775030
  43.1176780  70.1529170  39.9292220  43.5572690  70.8953500  39.5147610
  43.0563670  70.3955740  40.8531180  38.5927750  71.1775000  50.8312240
  38.5643180  71.5817950  49.9640670  38.4292720  70.2485360  50.6683840
  48.5898540  56.4675910  34.2752020  48.2771200  56.5602740  35.1751090
  49.3511010  57.0456940  34.2249450  35.1080680  63.8335710  38.7329360
  34.9878280  64.5597800  38.1210630  34.7981570  63.0638620  38.2557270
  32.7466050  67.0050850  44.5398000  32.8246470  67.1399620  43.5953720
  33.3607730  66.2966740  44.7326120  33.9913680  68.7051040  40.9504180
  33.5841760  68.8465630  40.0957780  34.8826690  68.4211200  40.7475390
  49.9475820  69.1514950  49.2876420  50.0738880  68.9126830  48.3693600
  49.9897200  68.3199490  49.7598500  45.4873090  70.6485850  35.8453230
  44.7938250  70.6463140  35.1855510  46.2295950  70.2245170  35.4147400
  49.7999830  61.2047410  50.2526160  49.1844100  61.7127080  49.7241620
  49.4796250  60.3045740  50.1952100  32.8025570  68.0465020  47.0792460
  32.9656610  67.5770380  46.2611830  33.2678020  67.5388580  47.7441300
  37.5744340  57.1770780  42.1153030  37.1312490  57.9580320  41.7837550
  38.1329330  57.5000670  42.8223970  41.8614150  60.0439300  47.7188350
  41.3993520  60.2522320  48.5308290  41.4592260  59.2298650  47.4159020
  46.8618660  61.2648250  48.8485010  46.0112250  60.9654000  49.1694080
  46.7020450  61.5090260  47.9368830  43.9568370  62.7650000  50.9483800
  44.2821780  61.9313750  50.6086030  44.7448700  63.2878520  51.0962130
  40.6903160  56.7981480  36.9958860  40.0657340  56.7941350  37.7212170
  40.6033280  55.9312440  36.5994830  39.6120240  57.7218110  43.9742630
  39.9092570  58.6280940  43.8934650  40.1605800  57.2336890  43.3602200
  37.3658560  62.3004350  39.8434280  37.1399480  62.0841520  40.7480900
  36.5851090  62.7332810  39.4980250  44.5956320  62.3067720  38.4424930
  43.9965210  63.0303520  38.2588550  45.1435930  62.2444500  37.6601380
  39.8057770  63.1989930  50.5094550  39.7101370  62.2584660  50.3594950
  40.6489750  63.4205000  50.1142620  43.2021190  60.9431260  40.4728210
  43.5950760  61.2603460  39.6596900  43.5638040  60.0643140  40.5872730
  34.9368310  59.6103600  48.6628330  34.5431700  60.4578810  48.8701110
  34.2486710  58.9729970  48.8536970  41.5113360  59.6938570  51.7325070
  40.8211680  59.5010770  52.3671160  42.2545660  59.9773210  52.2649370
  32.2385360  57.5332060  42.6958410  31.9498410  58.1034920  43.4083390
  32.9831120  57.0536510  43.0589640  32.4255590  61.4752180  33.9061130
  32.3430260  62.4182940  34.0476120  32.0738650  61.3327090  33.0273480
  43.7876330  63.5337010  44.5678990  43.0557450  64.0423820  44.9169090
  43.3900670  62.7166990  44.2667770  40.2253720  60.2091210  42.9731480
  40.2289780  59.7681160  42.1236020  41.1204840  60.5308540  43.0803300
  36.0756100  60.0917700  41.9325690  35.7356150  60.5692930  42.6892740
  35.3133420  59.6382820  41.5726790  40.2873870  61.2103290  35.9638240
  40.4086690  61.1689770  36.9124060  39.9022380  62.0727440  35.8084970
  44.2502240  58.9870690  43.9801930  44.2674980  59.4379340  44.8243780
  44.0017820  58.0876330  44.1935370  39.2995370  63.5204430  35.3621540
  38.7312270  63.0722680  34.7357450  40.0084370  63.8797210  34.8286690
  47.6772990  56.4002870  49.8188310  48.0018760  55.6692530  50.3446290
  47.7129500  56.0816510  48.9169300  34.3764550  67.4216450  49.2388270
  33.9919340  66.7810120  49.8371230  34.6876740  68.1252570  49.8083000
  40.5261690  64.2692990  44.7196890  40.8931820  63.7951560  45.4658230
  40.3366750  65.1434560  45.0605230  33.3902180  59.0136680  40.8490360
  33.1049100  58.6492350  41.6868980  33.3281040  58.2817140  40.2353500
  38.3161060  63.3101630  47.0381100  38.0118130  64.1893610  47.2631460
  39.2707520  63.3701420  47.0738540  36.8442850  67.5162620  37.6347950
  36.0705110  66.9760240  37.4746670  37.5737480  66.9969230  37.2965710
  47.6030830  66.5127980  43.4274340  48.3229950  67.0083270  43.0370450
  47.4012650  65.8345870  42.7828210  43.0640770  57.9065940  37.5703730
  42.2505380  57.4079110  37.4949040  42.8702720  58.7464190  37.1540080
  42.9849630  66.5837040  49.3143340  42.9186940  65.6632710  49.0600930
  42.3554770  66.6812480  50.0287980  45.7789160  62.2785590  35.8665890
  46.6668780  62.5902820  35.6917230  45.7494250  61.4057840  35.4746470
  36.8880250  67.1843000  41.2726760  37.4058920  66.3811260  41.2183650
  36.4364270  67.1222140  42.1143590  41.7749750  68.4509280  36.5454060
  42.1165450  69.1951510  36.0497380  40.9462460  68.7640400  36.9078890
  34.3724790  64.1504370  48.1852460  34.0139730  64.8158220  48.7725800
  34.0779350  63.3187920  48.5565080  37.5737910  64.6088610  51.0692010
  37.2738050  64.7545790  50.1719830  38.3449150  64.0493900  50.9765400
  42.9166360  69.4057610  49.0647140  42.9310900  68.4738570  48.8466050
  42.2091460  69.4917370  49.7036910  48.0503430  63.5897430  35.3345750
  47.9667150  64.0211650  34.4842190  48.7697620  64.0495780  35.7672570
  49.1277570  66.0464950  48.4115720  48.4025760  66.6393730  48.2145110
  49.6553030  66.0388490  47.6129090  49.0790680  70.4439690  38.0627880
  48.4366840  69.7895310  38.3371600  48.6921340  70.8494780  37.2868550
  44.6577160  67.7725120  41.9099570  45.0100980  67.1753250  41.2500940
  43.7739490  67.4469350  42.0807820  40.7440440  68.5322810  39.3169980
  41.4311570  69.0792020  39.6977570  39.9572860  69.0763540  39.3519590
  32.8832840  64.1495630  34.8087060  33.7527690  64.4320430  35.0922980
  32.3923160  64.9631500  34.6935870  40.0467650  65.5368840  38.9295340
  40.5030430  66.3474090  39.1555530  39.6955860  65.2191980  39.7613830
  42.3500260  71.0475180  46.1587640  42.9942480  71.2534560  46.8361060
  42.7129700  70.2863580  45.7058490  35.9479430  55.8806490  39.4017860
  35.8194060  55.8724390  40.3502780  35.1241450  56.2189580  39.0508870
  43.6232340  69.0507530  44.8765090  44.2654570  68.3500690  44.9897260
  44.1481690  69.8305970  44.6961980  47.4688060  69.3356150  34.6004230
  47.2425640  68.6186590  35.1928870  47.0784260  69.0868590  33.7625980
  45.3969960  69.8502430  48.0801150  45.7326200  70.4369120  48.7579070
  44.4770300  69.7195140  48.3098940  32.9473360  57.6397610  48.8624560
  32.2331880  57.8394530  49.4677170  33.3668400  56.8637180  49.2339360
  47.0504310  67.2528090  36.2618390  46.7626010  67.7140780  37.0496270
  47.8456480  66.7925860  36.5302610  33.2345950  71.6277870  49.8491090
  33.3437070  70.6872610  49.7086480  32.5826510  71.8932620  49.2004820
  41.2258540  69.8993760  51.2489210  40.9055410  69.1803000  51.7934900
  40.5516900  70.5748830  51.3225270  39.2672710  70.7454210  36.1922360
  39.2582810  71.4783900  35.5766870  38.3471070  70.4985790  36.2849320
  34.8679350  65.9669100  36.9369120  34.2607300  66.7068000  36.9464420
  35.3428700  66.0568460  36.1107320  44.4412140  60.1319920  46.6126010
  44.8092960  59.3115130  46.9405580  43.5810340  60.1921810  47.0281660
  47.8074170  59.0876860  37.4213570  47.1787330  59.1922530  36.7071800
  47.3126090  59.3073640  38.2107450  42.2532310  70.8082450  34.8547550
  42.3544290  70.6046440  33.9249530  41.3534050  70.5540730  35.0595330
  39.7758200  61.3662810  38.8371450  39.0674350  61.8349150  39.2785060
  40.0602680  60.7084820  39.4716640  41.4014130  62.7859510  46.8363980
  41.8999380  63.2605330  47.5015830  41.5437080  61.8623030  47.0434010
  43.8073630  58.0913470  40.2767240  43.6841410  58.1099600  39.3276750
  44.7558190  58.1392410  40.3965640  37.9793220  59.6747890  36.2122160
  38.8283750  60.1118040  36.1462350  37.6124490  59.9868150  37.0394220
  48.6080990  59.0027470  47.6792370  48.1054590  59.7432870  48.0186180
  49.4237650  59.3911470  47.3629160  46.9003000  64.2460650  41.1253730
  45.9593140  64.2610880  41.3001420  47.2147070  63.4596610  41.5714030
  36.8784640  65.9280250  34.6857690  37.6447910  65.8161610  35.2483120
  36.9559330  65.2318220  34.0334460  35.5731400  63.3605320  35.3690580
  35.6534990  62.4132830  35.4807980  36.4651150  63.6912200  35.4751240
  33.2591590  69.5774280  38.3466630  32.3331370  69.8195420  38.3372040
  33.7248020  70.4048540  38.2251380  44.2169020  68.8026650  51.6086110
  43.6107180  68.8258250  50.8681860  43.9123130  68.0709690  52.1453360
  33.1002200  65.1820240  50.6046750  33.6041220  64.6027520  51.1762980
  32.3609620  65.4660470  51.1423120  40.0025820  67.9034430  34.1593040
  39.8976460  67.2886780  34.8854420  39.8350040  67.3800320  33.3756050
  40.1540140  66.5891230  50.1382270  39.3885810  67.1576230  50.0536940
  40.3356100  66.2967440  49.2450500  43.2428550  66.9654460  34.7635030
  42.6938650  67.4123760  35.4077770  43.8647810  66.4603710  35.2872700
  47.2963490  68.3196560  50.6957290  48.0372960  68.6572320  50.1924750
  46.5336170  68.4888620  50.1427060  35.1325280  63.3249830  51.4996820
  35.1730620  63.0263700  52.4082050  35.9870780  63.7257440  51.3404340
  38.9103670  65.9245380  36.6600330  39.3320090  65.7585250  37.5031720
  39.0354510  65.1145610  36.1655470  37.0731090  61.9041930  49.4671310
  36.5427550  61.4132880  48.8394650  37.7419160  62.3326130  48.9329240
  41.4231310  64.9482990  33.9077430  41.9436970  64.2332010  33.5418580
  42.0699710  65.5868860  34.2077940  45.9709150  66.3711390  49.2312500
  46.3850170  66.5256470  50.0802920  45.0360150  66.4966610  49.3938280
  46.4431320  63.7107550  51.2351650  47.0252090  62.9559870  51.1472130
  46.6193090  64.2414990  50.4583130  37.5603390  58.8704300  49.5468600
  37.4660260  58.2525050  48.8219470  36.9800780  59.5970590  49.3198510
  40.3264830  57.4277540  46.5795990  39.8782130  57.4501800  45.7341540
  39.6930030  57.0296560  47.1766290  40.7324380  66.3231870  47.2008430
  41.1512490  67.1664600  47.0284670  39.8133010  66.4603910  46.9715210
  43.0688280  64.0548050  48.5846270  43.1884490  63.4589190  49.3241110
  43.9282280  64.0917740  48.1647570  45.4076180  64.6085240  47.1608780
  44.8811400  65.1327860  46.5573920  45.7507520  65.2412630  47.7918510
  37.8062570  61.9978610  33.6058490  37.6051630  61.1345970  33.9671830
  37.6354620  61.9111970  32.6680090  39.8357050  60.5969400  49.8422090
  40.4256740  60.2885250  50.5299910  39.0177290  60.1249150  49.9981990
  44.6550480  60.2135210  50.0755110  43.9666000  59.5516750  50.0105100
  45.3756500  59.7673480  50.5203570  45.2850880  56.8086840  36.1345370
  45.5653170  55.9654740  36.4904790  44.5116610  57.0409950  36.6484120
  36.6045370  59.0979230  33.5936370  36.9071270  59.1046660  32.6855520
  37.3439960  58.7477090  34.0904030  39.8230300  58.0413850  34.5792570
  39.4752300  57.3637840  33.9995020  40.0243070  57.5803360  35.3935960
  35.6275500  68.4021650  34.4266170  36.0650370  68.9451320  35.0823750
  36.1123230  67.5768600  34.4362510  32.8421300  71.1910680  41.8786430
  33.1724310  70.3231740  41.6465070  33.2712300  71.3969200  42.7091390
  37.4383220  69.5219690  39.5388400  37.1378760  69.3984660  40.4392310
  37.3320710  68.6628280  39.1304130  48.9673690  71.5598270  48.9045370
  48.3675680  71.6190830  48.1609290  49.0967590  70.6203250  49.0342220
  50.2075140  69.3016090  34.2415080  49.3768100  69.3692740  34.7122310
  50.3846970  70.1920210  33.9381940  49.6631600  66.0463570  36.7449280
  50.4250510  66.6160220  36.8508970  49.6785970  65.4790770  37.5157590
  33.1635940  64.5701500  40.9756940  32.5084780  64.3013140  40.3316640
  34.0013890  64.4605980  40.5258920  50.6691570  66.9013670  41.5891210
  51.0400400  66.1180990  41.1827180  51.3093500  67.5902770  41.4108510
  47.6525330  68.2850250  47.0021530  46.8385170  68.7147410  47.2647320
  48.0599530  68.8968660  46.3890580  49.7150770  66.3397940  33.9021800
  49.9899610  67.2476820  33.7741020  49.5261510  66.2760470  34.8383790
  46.1126380  59.3642790  35.1975430  46.5311260  59.1773770  34.3572090
  45.8062440  58.5121840  35.5078360  49.6116110  64.2766930  38.8951230
  49.2359710  63.5094860  38.4632520  48.8819230  64.6589630  39.3826160
  34.2011870  64.9554070  45.5160280  34.5684910  64.8681470  46.3956300
  33.6322690  64.1920620  45.4167140  49.0015730  63.4238450  48.5290750
  48.7701820  63.1951200  47.6288700  49.2620280  64.3438000  48.4835640
  33.7527870  61.8663160  49.4218700  32.8583920  61.8329920  49.7612410
  34.2925420  62.0649950  50.1869950  47.4403800  58.6494880  51.3070450
  48.3173980  58.6578280  51.6904450  47.4524640  57.9125720  50.6962800
  32.3774020  61.7800430  36.9182270  31.4738100  62.0430630  36.7433930
  32.8614640  62.0511600  36.1382230  48.8867070  62.5024420  42.1958470
  49.4104550  62.0087070  41.5648640  49.4726490  62.6374780  42.9406040
  49.0656790  62.5864290  45.7178020  48.1159500  62.5527830  45.8323010
  49.2469800  63.4964400  45.4827790  34.9201230  60.8365970  34.8276650
  35.6292930  60.4149190  34.3423930  34.2041170  60.9041200  34.1960000
  34.5675390  56.8905300  33.8679300  35.2903520  57.4314240  34.1860520
  34.8399910  56.6168720  32.9920840  48.3767040  61.7597770  38.1350880
  48.8726160  61.5268640  38.9199760  48.1783110  60.9209610  37.7188520
  34.2567580  56.1411490  43.7701920  34.9043770  55.5908870  43.3297080
  34.6769420  56.3954640  44.5917730  49.8054200  60.3958720  40.6688560
  49.6953480  60.2414760  41.6070830  50.5661790  59.8679660  40.4263970
  48.1519920  56.3352850  47.1271560  48.7892140  56.9486990  47.4930750
  48.2994810  56.3713510  46.1820790  50.6944470  58.2266640  33.9094700
  51.6193780  58.0947820  33.7012990  50.6720260  58.3059460  34.8631150
  50.7682960  58.9977300  36.5351410  49.9734460  58.9322420  37.0644320
  50.9726240  59.9327940  36.5236760  34.0099580  56.2967160  46.5127240
  33.6614400  56.7530980  47.2785420  33.6787280  55.4024290  46.5949670
  35.6163950  69.4686760  50.6780430  35.5733580  69.0979670  51.5594890
  35.7474960  70.4064330  50.8182250  39.3169980  71.0246350  46.2790150
  39.0761340  71.2920910  45.3920670  40.2572620  71.1952080  46.3341010
  41.5224400  57.4879040  50.0346660  41.4613290  58.0800870  50.7842070
  42.4624780  57.3805000  49.8896920  44.1598960  57.1449100  49.6738950
  44.7739370  57.4628390  49.0120030  44.7048520  56.6597690  50.2934810
  34.6820220  55.8243360  49.7878010  35.2303210  55.6431410  49.0244120
  34.7475530  55.0337470  50.3234320  44.9007000  55.7081240  46.0008240
  44.0266840  56.0416350  45.7981170  44.7917750  55.2354420  46.8260110
  45.8078980  57.9152110  47.3849960  45.4792340  57.1003870  47.0051690
  46.7561280  57.8721920  47.2615650  35.0864210  69.7807390  46.7486250
  34.3598270  69.1612680  46.6812200  35.1473360  70.1748000  45.8784330
  42.6481820  56.6251080  44.9401150  41.8653610  57.0996580  45.2197910
  42.3544750  55.7205910  44.8314330  47.2002890  57.3274180  42.9850240
  47.6410980  57.2719280  42.1371840  46.9310480  58.2432190  43.0560420
  49.0641460  56.9589420  40.9959060  49.0029860  56.0150640  40.8490080
  49.8433490  57.0669510  41.5412520  33.9922230  56.9298560  37.4614870
  34.7501590  57.0427440  36.8878900  33.5299400  57.7667760  37.4158300
  40.5336040  59.0437830  40.4517180  39.7210550  58.6694720  40.1113060
  41.0377680  58.2882910  40.7538370  45.0361020  55.7080280  41.6900250
  45.6390390  56.2800490  42.1648770  44.2954010  56.2719720  41.4674150
  48.1795620  56.1101840  36.9640530  48.3746250  57.0085290  37.2307960
  47.3925490  55.8788920  37.4573480  36.3647380  57.4562610  36.0016840
  36.8940140  56.6692410  35.8724790  36.9975700  58.1353800  36.2352370
  38.5585220  57.1937750  39.0562230  37.9287960  56.4925060  39.2232360
  38.0190360  57.9541880  38.8395390  38.6840780  56.4721730  51.4914720
  38.4025050  56.9755330  50.7275540  39.0660480  55.6743480  51.1256850
  36.7364670  69.8562120  36.2828730  36.1073550  70.3247220  36.8314560
  36.8512500  69.0111340  36.7174920  45.2856240  55.8875310  52.0695190
  45.1721690  56.2069920  52.9646710  46.1025980  56.2887820  51.7732470
  44.1914390  63.9067780  22.4329930  44.1108440  62.9922390  22.1621640
  43.7778810  64.4034850  21.7269640  42.3232430  65.6846800  24.3139200
  41.5474530  65.2047240  24.6037770  42.9745360  65.0052450  24.1395360
  36.3398260  65.9966610  25.1914960  35.5083140  65.7415320  25.5911470
  36.9479240  66.0677380  25.9272880  46.3439860  70.0906990  23.0938330
  45.8821390  69.3194230  23.4225500  47.1565410  70.1173060  23.5990780
  36.3199520  70.0306700  25.3872980  36.6227560  69.1404440  25.2083200
  37.0643110  70.5876920  25.1595230  34.7490210  60.9568500  18.9757350
  33.8606910  61.2984470  18.8737230  35.0331400  60.7568820  18.0838180
  32.7123220  63.5574150  24.8597050  33.2839330  62.7896350  24.8600690
  32.7124760  63.8562910  23.9503660  41.7641420  68.3603990  24.3209360
  41.6949700  67.4193930  24.1598490  42.5261280  68.4505400  24.8931930
  33.9548090  58.9658510  26.6465980  33.7750930  58.0684260  26.9268740
  33.5528170  59.5130380  27.3212930  42.7946590  61.1674370  24.5478290
  43.1711410  60.2946250  24.4351960  42.6966100  61.5033070  23.6568730
  36.9251600  59.5400000  20.0095730  37.0318350  60.4403730  20.3164490
  36.0143960  59.4917970  19.7190380  46.5770710  58.6624810  21.4806630
  47.3980330  58.1721380  21.5232110  46.6104790  59.2522470  22.2338470
  34.5734760  61.4619010  25.2548320  35.2544870  61.7257380  25.8735720
  34.2582810  60.6219880  25.5886330  38.7659330  62.5086370  24.3420910
  39.2737550  63.0067340  24.9825930  39.2972570  61.7321570  24.1660270
  50.8670260  60.6791560  28.0450260  50.1622430  61.0673270  27.5265370
  51.1328180  61.3741850  28.6471190  37.0495430  57.1484930  28.6084330
  37.0513870  57.6657320  27.8030230  36.2199740  56.6715110  28.5854260
  43.4366520  67.2604240  20.1074230  42.8183790  67.7253690  19.5436950
  43.9489770  67.9531720  20.5243740  38.2998280  66.7880110  26.7857830
  37.9667660  67.4149030  27.4278900  38.4764960  67.3141990  26.0059500
  46.8132190  60.6025190  24.2534170  46.1087760  60.8910080  24.8337280
  47.1744350  61.4125300  23.8933730  36.7310760  58.8594890  26.6154780
  37.0727570  59.7036940  26.3208650  35.7926570  59.0078630  26.7320120
  37.5117380  68.7560910  28.6007010  38.1291380  69.4311990  28.3191460
  36.6510500  69.1648890  28.5094510  32.8049720  67.9460770  17.4813860
  32.4277700  68.4347870  16.7498760  33.0622790  68.6186050  18.1120390
  48.4294970  70.2200320  26.5161650  47.7458490  70.8899430  26.5078320
  48.9689260  70.4180970  25.7506510  49.8819110  60.0479980  24.6443380
  48.9344020  60.0818960  24.7758810  50.2069100  60.8618930  25.0292740
  40.4138650  56.3477160  22.9399370  40.7213630  55.7924050  22.2234870
  39.4839350  56.4821620  22.7572360  47.2599130  68.7860670  20.3197000
  47.1495460  67.8435000  20.4446420  47.2567380  69.1476310  21.2059760
  45.3639150  66.9674290  26.5589440  45.7807940  66.7534400  25.7242900
  46.0878970  67.2247080  27.1298060  42.8019410  64.4125990  19.6759490
  41.8748690  64.3463370  19.9047960  42.9544230  65.3506120  19.5614730
  42.7888490  60.6842990  16.6726650  41.8492160  60.8456950  16.7579110
  43.1071750  61.4028670  16.1262640  49.3101250  65.3661510  26.6505680
  48.4819880  65.4354600  26.1755810  49.9051730  65.9515820  26.1821510
  46.8316700  65.9746290  20.1794740  46.2129120  65.6365840  19.5321040
  46.8141150  65.3306050  20.8873930  46.2743260  62.1530830  27.5960550
  45.8614440  62.9784540  27.8500540  45.5419210  61.5675870  27.4036910
  38.4076050  64.9390730  22.4579220  38.0033050  64.2267980  21.9625120
  38.4939170  64.5943970  23.3467260  38.8757750  68.6258290  24.6218430
  38.5786040  68.0203760  23.9426210  39.8257570  68.6635600  24.5107790
  37.1204670  61.7133940  26.2378260  37.6719260  61.8229280  25.4631510
  37.6348180  62.0871540  26.9533490  37.9676180  68.3639980  31.2726230
  37.0704710  68.5879950  31.5199630  37.9929050  68.4874920  30.3237630
  45.0081400  65.2133100  17.1867490  45.4474680  64.3755530  17.0405310
  45.7209820  65.8462500  17.2731630  36.7947400  65.2353300  29.8483600
  36.6555170  66.1076100  30.2171000  35.9128760  64.8926110  29.7031540
  43.1176780  70.1529170  21.1548730  43.5572690  70.8953500  20.7404120
  43.0563670  70.3955740  22.0787690  38.5927750  71.1775000  32.0568750
  38.5643180  71.5817950  31.1897180  38.4292720  70.2485360  31.8940350
  48.5898540  56.4675910  15.5008530  48.2771200  56.5602740  16.4007600
  49.3511010  57.0456940  15.4505960  35.1080680  63.8335710  19.9585870
  34.9878280  64.5597800  19.3467140  34.7981570  63.0638620  19.4813780
  32.7466050  67.0050850  25.7654510  32.8246470  67.1399620  24.8210230
  33.3607730  66.2966740  25.9582630  33.9913680  68.7051040  22.1760690
  33.5841760  68.8465630  21.3214290  34.8826690  68.4211200  21.9731900
  49.9475820  69.1514950  30.5132930  50.0738880  68.9126830  29.5950110
  49.9897200  68.3199490  30.9855010  45.4873090  70.6485850  17.0709740
  44.7938250  70.6463140  16.4112020  46.2295950  70.2245170  16.6403910
  49.7999830  61.2047410  31.4782670  49.1844100  61.7127080  30.9498130
  49.4796250  60.3045740  31.4208610  32.8025570  68.0465020  28.3048970
  32.9656610  67.5770380  27.4868340  33.2678020  67.5388580  28.9697810
  37.5744340  57.1770780  23.3409540  37.1312490  57.9580320  23.0094060
  38.1329330  57.5000670  24.0480480  41.8614150  60.0439300  28.9444860
  41.3993520  60.2522320  29.7564800  41.4592260  59.2298650  28.6415530
  46.8618660  61.2648250  30.0741520  46.0112250  60.9654000  30.3950590
  46.7020450  61.5090260  29.1625340  43.9568370  62.7650000  32.1740310
  44.2821780  61.9313750  31.8342540  44.7448700  63.2878520  32.3218640
  40.6903160  56.7981480  18.2215370  40.0657340  56.7941350  18.9468680
  40.6033280  55.9312440  17.8251340  39.6120240  57.7218110  25.1999140
  39.9092570  58.6280940  25.1191160  40.1605800  57.2336890  24.5858710
  37.3658560  62.3004350  21.0690790  37.1399480  62.0841520  21.9737410
  36.5851090  62.7332810  20.7236760  44.5956320  62.3067720  19.6681440
  43.9965210  63.0303520  19.4845060  45.1435930  62.2444500  18.8857890
  39.8057770  63.1989930  31.7351060  39.7101370  62.2584660  31.5851460
  40.6489750  63.4205000  31.3399130  43.2021190  60.9431260  21.6984720
  43.5950760  61.2603460  20.8853410  43.5638040  60.0643140  21.8129240
  34.9368310  59.6103600  29.8884840  34.5431700  60.4578810  30.0957620
  34.2486710  58.9729970  30.0793480  41.5113360  59.6938570  32.9581580
  40.8211680  59.5010770  33.5927670  42.2545660  59.9773210  33.4905880
  32.2385360  57.5332060  23.9214920  31.9498410  58.1034920  24.6339900
  32.9831120  57.0536510  24.2846150  32.4255590  61.4752180  15.1317640
  32.3430260  62.4182940  15.2732630  32.0738650  61.3327090  14.2529990
  43.7876330  63.5337010  25.7935500  43.0557450  64.0423820  26.1425600
  43.3900670  62.7166990  25.4924280  40.2253720  60.2091210  24.1987990
  40.2289780  59.7681160  23.3492530  41.1204840  60.5308540  24.3059810
  36.0756100  60.0917700  23.1582200  35.7356150  60.5692930  23.9149250
  35.3133420  59.6382820  22.7983300  40.2873870  61.2103290  17.1894750
  40.4086690  61.1689770  18.1380570  39.9022380  62.0727440  17.0341480
  44.2502240  58.9870690  25.2058440  44.2674980  59.4379340  26.0500290
  44.0017820  58.0876330  25.4191880  39.2995370  63.5204430  16.5878050
  38.7312270  63.0722680  15.9613960  40.0084370  63.8797210  16.0543200
  47.6772990  56.4002870  31.0444820  48.0018760  55.6692530  31.5702800
  47.7129500  56.0816510  30.1425810  34.3764550  67.4216450  30.4644780
  33.9919340  66.7810120  31.0627740  34.6876740  68.1252570  31.0339510
  40.5261690  64.2692990  25.9453400  40.8931820  63.7951560  26.6914740
  40.3366750  65.1434560  26.2861740  33.3902180  59.0136680  22.0746870
  33.1049100  58.6492350  22.9125490  33.3281040  58.2817140  21.4610010
  38.3161060  63.3101630  28.2637610  38.0118130  64.1893610  28.4887970
  39.2707520  63.3701420  28.2995050  36.8442850  67.5162620  18.8604460
  36.0705110  66.9760240  18.7003180  37.5737480  66.9969230  18.5222220
  47.6030830  66.5127980  24.6530850  48.3229950  67.0083270  24.2626960
  47.4012650  65.8345870  24.0084720  43.0640770  57.9065940  18.7960240
  42.2505380  57.4079110  18.7205550  42.8702720  58.7464190  18.3796590
  42.9849630  66.5837040  30.5399850  42.9186940  65.6632710  30.2857440
  42.3554770  66.6812480  31.2544490  45.7789160  62.2785590  17.0922400
  46.6668780  62.5902820  16.9173740  45.7494250  61.4057840  16.7002980
  36.8880250  67.1843000  22.4983270  37.4058920  66.3811260  22.4440160
  36.4364270  67.1222140  23.3400100  41.7749750  68.4509280  17.7710570
  42.1165450  69.1951510  17.2753890  40.9462460  68.7640400  18.1335400
  34.3724790  64.1504370  29.4108970  34.0139730  64.8158220  29.9982310
  34.0779350  63.3187920  29.7821590  37.5737910  64.6088610  32.2948520
  37.2738050  64.7545790  31.3976340  38.3449150  64.0493900  32.2021910
  42.9166360  69.4057610  30.2903650  42.9310900  68.4738570  30.0722560
  42.2091460  69.4917370  30.9293420  48.0503430  63.5897430  16.5602260
  47.9667150  64.0211650  15.7098700  48.7697620  64.0495780  16.9929080
  49.1277570  66.0464950  29.6372230  48.4025760  66.6393730  29.4401620
  49.6553030  66.0388490  28.8385600  49.0790680  70.4439690  19.2884390
  48.4366840  69.7895310  19.5628110  48.6921340  70.8494780  18.5125060
  44.6577160  67.7725120  23.1356080  45.0100980  67.1753250  22.4757450
  43.7739490  67.4469350  23.3064330  40.7440440  68.5322810  20.5426490
  41.4311570  69.0792020  20.9234080  39.9572860  69.0763540  20.5776100
  32.8832840  64.1495630  16.0343570  33.7527690  64.4320430  16.3179490
  32.3923160  64.9631500  15.9192380  40.0467650  65.5368840  20.1551850
  40.5030430  66.3474090  20.3812040  39.6955860  65.2191980  20.9870340
  42.3500260  71.0475180  27.3844150  42.9942480  71.2534560  28.0617570
  42.7129700  70.2863580  26.9315000  35.9479430  55.8806490  20.6274370
  35.8194060  55.8724390  21.5759290  35.1241450  56.2189580  20.2765380
  43.6232340  69.0507530  26.1021600  44.2654570  68.3500690  26.2153770
  44.1481690  69.8305970  25.9218490  47.4688060  69.3356150  15.8260740
  47.2425640  68.6186590  16.4185380  47.0784260  69.0868590  14.9882490
  45.3969960  69.8502430  29.3057660  45.7326200  70.4369120  29.9835580
  44.4770300  69.7195140  29.5355450  32.9473360  57.6397610  30.0881070
  32.2331880  57.8394530  30.6933680  33.3668400  56.8637180  30.4595870
  47.0504310  67.2528090  17.4874900  46.7626010  67.7140780  18.2752780
  47.8456480  66.7925860  17.7559120  33.2345950  71.6277870  31.0747600
  33.3437070  70.6872610  30.9342990  32.5826510  71.8932620  30.4261330
  41.2258540  69.8993760  32.4745720  40.9055410  69.1803000  33.0191410
  40.5516900  70.5748830  32.5481780  39.2672710  70.7454210  17.4178870
  39.2582810  71.4783900  16.8023380  38.3471070  70.4985790  17.5105830
  34.8679350  65.9669100  18.1625630  34.2607300  66.7068000  18.1720930
  35.3428700  66.0568460  17.3363830  44.4412140  60.1319920  27.8382520
  44.8092960  59.3115130  28.1662090  43.5810340  60.1921810  28.2538170
  47.8074170  59.0876860  18.6470080  47.1787330  59.1922530  17.9328310
  47.3126090  59.3073640  19.4363960  42.2532310  70.8082450  16.0804060
  42.3544290  70.6046440  15.1506040  41.3534050  70.5540730  16.2851840
  39.7758200  61.3662810  20.0627960  39.0674350  61.8349150  20.5041570
  40.0602680  60.7084820  20.6973150  41.4014130  62.7859510  28.0620490
  41.8999380  63.2605330  28.7272340  41.5437080  61.8623030  28.2690520
  43.8073630  58.0913470  21.5023750  43.6841410  58.1099600  20.5533260
  44.7558190  58.1392410  21.6222150  37.9793220  59.6747890  17.4378670
  38.8283750  60.1118040  17.3718860  37.6124490  59.9868150  18.2650730
  48.6080990  59.0027470  28.9048880  48.1054590  59.7432870  29.2442690
  49.4237650  59.3911470  28.5885670  46.9003000  64.2460650  22.3510240
  45.9593140  64.2610880  22.5257930  47.2147070  63.4596610  22.7970540
  36.8784640  65.9280250  15.9114200  37.6447910  65.8161610  16.4739630
  36.9559330  65.2318220  15.2590970  35.5731400  63.3605320  16.5947090
  35.6534990  62.4132830  16.7064490  36.4651150  63.6912200  16.7007750
  33.2591590  69.5774280  19.5723140  32.3331370  69.8195420  19.5628550
  33.7248020  70.4048540  19.4507890  44.2169020  68.8026650  32.8342620
  43.6107180  68.8258250  32.0938370  43.9123130  68.0709690  33.3709870
  33.1002200  65.1820240  31.8303260  33.6041220  64.6027520  32.4019490
  32.3609620  65.4660470  32.3679630  40.0025820  67.9034430  15.3849550
  39.8976460  67.2886780  16.1110930  39.8350040  67.3800320  14.6012560
  40.1540140  66.5891230  31.3638780  39.3885810  67.1576230  31.2793450
  40.3356100  66.2967440  30.4707010  43.2428550  66.9654460  15.9891540
  42.6938650  67.4123760  16.6334280  43.8647810  66.4603710  16.5129210
  47.2963490  68.3196560  31.9213800  48.0372960  68.6572320  31.4181260
  46.5336170  68.4888620  31.3683570  35.1325280  63.3249830  32.7253330
  35.1730620  63.0263700  33.6338560  35.9870780  63.7257440  32.5660850
  38.9103670  65.9245380  17.8856840  39.3320090  65.7585250  18.7288230
  39.0354510  65.1145610  17.3911980  37.0731090  61.9041930  30.6927820
  36.5427550  61.4132880  30.0651160  37.7419160  62.3326130  30.1585750
  41.4231310  64.9482990  15.1333940  41.9436970  64.2332010  14.7675090
  42.0699710  65.5868860  15.4334450  45.9709150  66.3711390  30.4569010
  46.3850170  66.5256470  31.3059430  45.0360150  66.4966610  30.6194790
  46.4431320  63.7107550  32.4608160  47.0252090  62.9559870  32.3728640
  46.6193090  64.2414990  31.6839640  37.5603390  58.8704300  30.7725110
  37.4660260  58.2525050  30.0475980  36.9800780  59.5970590  30.5455020
  40.3264830  57.4277540  27.8052500  39.8782130  57.4501800  26.9598050
  39.6930030  57.0296560  28.4022800  40.7324380  66.3231870  28.4264940
  41.1512490  67.1664600  28.2541180  39.8133010  66.4603910  28.1971720
  43.0688280  64.0548050  29.8102780  43.1884490  63.4589190  30.5497620
  43.9282280  64.0917740  29.3904080  45.4076180  64.6085240  28.3865290
  44.8811400  65.1327860  27.7830430  45.7507520  65.2412630  29.0175020
  37.8062570  61.9978610  14.8315000  37.6051630  61.1345970  15.1928340
  37.6354620  61.9111970  13.8936600  39.8357050  60.5969400  31.0678600
  40.4256740  60.2885250  31.7556420  39.0177290  60.1249150  31.2238500
  44.6550480  60.2135210  31.3011620  43.9666000  59.5516750  31.2361610
  45.3756500  59.7673480  31.7460080  45.2850880  56.8086840  17.3601880
  45.5653170  55.9654740  17.7161300  44.5116610  57.0409950  17.8740630
  36.6045370  59.0979230  14.8192880  36.9071270  59.1046660  13.9112030
  37.3439960  58.7477090  15.3160540  39.8230300  58.0413850  15.8049080
  39.4752300  57.3637840  15.2251530  40.0243070  57.5803360  16.6192470
  35.6275500  68.4021650  15.6522680  36.0650370  68.9451320  16.3080260
  36.1123230  67.5768600  15.6619020  32.8421300  71.1910680  23.1042940
  33.1724310  70.3231740  22.8721580  33.2712300  71.3969200  23.9347900
  37.4383220  69.5219690  20.7644910  37.1378760  69.3984660  21.6648820
  37.3320710  68.6628280  20.3560640  48.9673690  71.5598270  30.1301880
  48.3675680  71.6190830  29.3865800  49.0967590  70.6203250  30.2598730
  50.2075140  69.3016090  15.4671590  49.3768100  69.3692740  15.9378820
  50.3846970  70.1920210  15.1638450  49.6631600  66.0463570  17.9705790
  50.4250510  66.6160220  18.0765480  49.6785970  65.4790770  18.7414100
  33.1635940  64.5701500  22.2013450  32.5084780  64.3013140  21.5573150
  34.0013890  64.4605980  21.7515430  50.6691570  66.9013670  22.8147720
  51.0400400  66.1180990  22.4083690  51.3093500  67.5902770  22.6365020
  47.6525330  68.2850250  28.2278040  46.8385170  68.7147410  28.4903830
  48.0599530  68.8968660  27.6147090  49.7150770  66.3397940  15.1278310
  49.9899610  67.2476820  14.9997530  49.5261510  66.2760470  16.0640300
  46.1126380  59.3642790  16.4231940  46.5311260  59.1773770  15.5828600
  45.8062440  58.5121840  16.7334870  49.6116110  64.2766930  20.1207740
  49.2359710  63.5094860  19.6889030  48.8819230  64.6589630  20.6082670
  34.2011870  64.9554070  26.7416790  34.5684910  64.8681470  27.6212810
  33.6322690  64.1920620  26.6423650  49.0015730  63.4238450  29.7547260
  48.7701820  63.1951200  28.8545210  49.2620280  64.3438000  29.7092150
  33.7527870  61.8663160  30.6475210  32.8583920  61.8329920  30.9868920
  34.2925420  62.0649950  31.4126460  47.4403800  58.6494880  32.5326960
  48.3173980  58.6578280  32.9160960  47.4524640  57.9125720  31.9219310
  32.3774020  61.7800430  18.1438780  31.4738100  62.0430630  17.9690440
  32.8614640  62.0511600  17.3638740  48.8867070  62.5024420  23.4214980
  49.4104550  62.0087070  22.7905150  49.4726490  62.6374780  24.1662550
  49.0656790  62.5864290  26.9434530  48.1159500  62.5527830  27.0579520
  49.2469800  63.4964400  26.7084300  34.9201230  60.8365970  16.0533160
  35.6292930  60.4149190  15.5680440  34.2041170  60.9041200  15.4216510
  34.5675390  56.8905300  15.0935810  35.2903520  57.4314240  15.4117030
  34.8399910  56.6168720  14.2177350  48.3767040  61.7597770  19.3607390
  48.8726160  61.5268640  20.1456270  48.1783110  60.9209610  18.9445030
  34.2567580  56.1411490  24.9958430  34.9043770  55.5908870  24.5553590
  34.6769420  56.3954640  25.8174240  49.8054200  60.3958720  21.8945070
  49.6953480  60.2414760  22.8327340  50.5661790  59.8679660  21.6520480
  48.1519920  56.3352850  28.3528070  48.7892140  56.9486990  28.7187260
  48.2994810  56.3713510  27.4077300  50.6944470  58.2266640  15.1351210
  51.6193780  58.0947820  14.9269500  50.6720260  58.3059460  16.0887660
  34.0099580  56.2967160  27.7383750  33.6614400  56.7530980  28.5041930
  33.6787280  55.4024290  27.8206180  35.6163950  69.4686760  31.9036940
  35.5733580  69.0979670  32.7851400  35.7474960  70.4064330  32.0438760
  39.3169980  71.0246350  27.5046660  39.0761340  71.2920910  26.6177180
  40.2572620  71.1952080  27.5597520  41.5224400  57.4879040  31.2603170
  41.4613290  58.0800870  32.0098580  42.4624780  57.3805000  31.1153430
  44.1598960  57.1449100  30.8995460  44.7739370  57.4628390  30.2376540
  44.7048520  56.6597690  31.5191320  34.6820220  55.8243360  31.0134520
  35.2303210  55.6431410  30.2500630  34.7475530  55.0337470  31.5490830
  44.9007000  55.7081240  27.2264750  44.0266840  56.0416350  27.0237680
  44.7917750  55.2354420  28.0516620  45.8078980  57.9152110  28.6106470
  45.4792340  57.1003870  28.2308200  46.7561280  57.8721920  28.4872160
  35.0864210  69.7807390  27.9742760  34.3598270  69.1612680  27.9068710
  35.1473360  70.1748000  27.1040840  42.6481820  56.6251080  26.1657660
  41.8653610  57.0996580  26.4454420  42.3544750  55.7205910  26.0570840
  47.2002890  57.3274180  24.2106750  47.6410980  57.2719280  23.3628350
  46.9310480  58.2432190  24.2816930  33.9922230  56.9298560  18.6871380
  34.7501590  57.0427440  18.1135410  33.5299400  57.7667760  18.6414810
  40.5336040  59.0437830  21.6773690  39.7210550  58.6694720  21.3369570
  41.0377680  58.2882910  21.9794880  45.0361020  55.7080280  22.9156760
  45.6390390  56.2800490  23.3905280  44.2954010  56.2719720  22.6930660
  36.3647380  57.4562610  17.2273350  36.8940140  56.6692410  17.0981300
  36.9975700  58.1353800  17.4608880  38.5585220  57.1937750  20.2818740
  37.9287960  56.4925060  20.4488870  38.0190360  57.9541880  20.0651900
  38.6840780  56.4721730  32.7171230  38.4025050  56.9755330  31.9532050
  39.0660480  55.6743480  32.3513360  36.7364670  69.8562120  17.5085240
  36.1073550  70.3247220  18.0571070  36.8512500  69.0111340  17.9431430
  45.2856240  55.8875310  33.2951700  45.1721690  56.2069920  34.1903220
  46.1025980  56.2887820  32.9988980  44.1914390  63.9067780   3.6586440
  44.1108440  62.9922390   3.3878150  43.7778810  64.4034850   2.9526150
  42.3232430  65.6846800   5.5395710  41.5474530  65.2047240   5.8294280
  42.9745360  65.0052450   5.3651870  36.3398260  65.9966610   6.4171470
  35.5083140  65.7415320   6.8167980  36.9479240  66.0677380   7.1529390
  46.3439860  70.0906990   4.3194840  45.8821390  69.3194230   4.6482010
  47.1565410  70.1173060   4.8247290  36.3199520  70.0306700   6.6129490
  36.6227560  69.1404440   6.4339710  37.0643110  70.5876920   6.3851740
  32.7123220  63.5574150   6.0853560  33.2839330  62.7896350   6.0857200
  32.7124760  63.8562910   5.1760170  41.7641420  68.3603990   5.5465870
  41.6949700  67.4193930   5.3855000  42.5261280  68.4505400   6.1188440
  33.9548090  58.9658510   7.8722490  33.7750930  58.0684260   8.1525250
  33.5528170  59.5130380   8.5469440  42.7946590  61.1674370   5.7734800
  43.1711410  60.2946250   5.6608470  42.6966100  61.5033070   4.8825240
  46.5770710  58.6624810   2.7063140  47.3980330  58.1721380   2.7488620
  46.6104790  59.2522470   3.4594980  34.5734760  61.4619010   6.4804830
  35.2544870  61.7257380   7.0992230  34.2582810  60.6219880   6.8142840
  38.7659330  62.5086370   5.5677420  39.2737550  63.0067340   6.2082440
  39.2972570  61.7321570   5.3916780  50.8670260  60.6791560   9.2706770
  50.1622430  61.0673270   8.7521880  51.1328180  61.3741850   9.8727700
  37.0495430  57.1484930   9.8340840  37.0513870  57.6657320   9.0286740
  36.2199740  56.6715110   9.8110770  38.2998280  66.7880110   8.0114340
  37.9667660  67.4149030   8.6535410  38.4764960  67.3141990   7.2316010
  46.8132190  60.6025190   5.4790680  46.1087760  60.8910080   6.0593790
  47.1744350  61.4125300   5.1190240  36.7310760  58.8594890   7.8411290
  37.0727570  59.7036940   7.5465160  35.7926570  59.0078630   7.9576630
  37.5117380  68.7560910   9.8263520  38.1291380  69.4311990   9.5447970
  36.6510500  69.1648890   9.7351020  48.4294970  70.2200320   7.7418160
  47.7458490  70.8899430   7.7334830  48.9689260  70.4180970   6.9763020
  49.8819110  60.0479980   5.8699890  48.9344020  60.0818960   6.0015320
  50.2069100  60.8618930   6.2549250  40.4138650  56.3477160   4.1655880
  40.7213630  55.7924050   3.4491380  39.4839350  56.4821620   3.9828870
  45.3639150  66.9674290   7.7845950  45.7807940  66.7534400   6.9499410
  46.0878970  67.2247080   8.3554570  49.3101250  65.3661510   7.8762190
  48.4819880  65.4354600   7.4012320  49.9051730  65.9515820   7.4078020
  46.2743260  62.1530830   8.8217060  45.8614440  62.9784540   9.0757050
  45.5419210  61.5675870   8.6293420  38.4076050  64.9390730   3.6835730
  38.0033050  64.2267980   3.1881630  38.4939170  64.5943970   4.5723770
  38.8757750  68.6258290   5.8474940  38.5786040  68.0203760   5.1682720
  39.8257570  68.6635600   5.7364300  37.1204670  61.7133940   7.4634770
  37.6719260  61.8229280   6.6888020  37.6348180  62.0871540   8.1790000
  37.9676180  68.3639980  12.4982740  37.0704710  68.5879950  12.7456140
  37.9929050  68.4874920  11.5494140  36.7947400  65.2353300  11.0740110
  36.6555170  66.1076100  11.4427510  35.9128760  64.8926110  10.9288050
  43.1176780  70.1529170   2.3805240  43.5572690  70.8953500   1.9660630
  43.0563670  70.3955740   3.3044200  38.5927750  71.1775000  13.2825260
  38.5643180  71.5817950  12.4153690  38.4292720  70.2485360  13.1196860
  32.7466050  67.0050850   6.9911020  32.8246470  67.1399620   6.0466740
  33.3607730  66.2966740   7.1839140  33.9913680  68.7051040   3.4017200
  33.5841760  68.8465630   2.5470800  34.8826690  68.4211200   3.1988410
  49.9475820  69.1514950  11.7389440  50.0738880  68.9126830  10.8206620
  49.9897200  68.3199490  12.2111520  49.7999830  61.2047410  12.7039180
  49.1844100  61.7127080  12.1754640  49.4796250  60.3045740  12.6465120
  32.8025570  68.0465020   9.5305480  32.9656610  67.5770380   8.7124850
  33.2678020  67.5388580  10.1954320  37.5744340  57.1770780   4.5666050
  37.1312490  57.9580320   4.2350570  38.1329330  57.5000670   5.2736990
  41.8614150  60.0439300  10.1701370  41.3993520  60.2522320  10.9821310
  41.4592260  59.2298650   9.8672040  46.8618660  61.2648250  11.2998030
  46.0112250  60.9654000  11.6207100  46.7020450  61.5090260  10.3881850
  43.9568370  62.7650000  13.3996820  44.2821780  61.9313750  13.0599050
  44.7448700  63.2878520  13.5475150  39.6120240  57.7218110   6.4255650
  39.9092570  58.6280940   6.3447670  40.1605800  57.2336890   5.8115220
  37.3658560  62.3004350   2.2947300  37.1399480  62.0841520   3.1993920
  36.5851090  62.7332810   1.9493270  39.8057770  63.1989930  12.9607570
  39.7101370  62.2584660  12.8107970  40.6489750  63.4205000  12.5655640
  43.2021190  60.9431260   2.9241230  43.5950760  61.2603460   2.1109920
  43.5638040  60.0643140   3.0385750  34.9368310  59.6103600  11.1141350
  34.5431700  60.4578810  11.3214130  34.2486710  58.9729970  11.3049990
  41.5113360  59.6938570  14.1838090  40.8211680  59.5010770  14.8184180
  42.2545660  59.9773210  14.7162390  32.2385360  57.5332060   5.1471430
  31.9498410  58.1034920   5.8596410  32.9831120  57.0536510   5.5102660
  43.7876330  63.5337010   7.0192010  43.0557450  64.0423820   7.3682110
  43.3900670  62.7166990   6.7180790  40.2253720  60.2091210   5.4244500
  40.2289780  59.7681160   4.5749040  41.1204840  60.5308540   5.5316320
  36.0756100  60.0917700   4.3838710  35.7356150  60.5692930   5.1405760
  35.3133420  59.6382820   4.0239810  44.2502240  58.9870690   6.4314950
  44.2674980  59.4379340   7.2756800  44.0017820  58.0876330   6.6448390
  47.6772990  56.4002870  12.2701330  48.0018760  55.6692530  12.7959310
  47.7129500  56.0816510  11.3682320  34.3764550  67.4216450  11.6901290
  33.9919340  66.7810120  12.2884250  34.6876740  68.1252570  12.2596020
  40.5261690  64.2692990   7.1709910  40.8931820  63.7951560   7.9171250
  40.3366750  65.1434560   7.5118250  33.3902180  59.0136680   3.3003380
  33.1049100  58.6492350   4.1382000  33.3281040  58.2817140   2.6866520
  38.3161060  63.3101630   9.4894120  38.0118130  64.1893610   9.7144480
  39.2707520  63.3701420   9.5251560  47.6030830  66.5127980   5.8787360
  48.3229950  67.0083270   5.4883470  47.4012650  65.8345870   5.2341230
  42.9849630  66.5837040  11.7656360  42.9186940  65.6632710  11.5113950
  42.3554770  66.6812480  12.4801000  36.8880250  67.1843000   3.7239780
  37.4058920  66.3811260   3.6696670  36.4364270  67.1222140   4.5656610
  34.3724790  64.1504370  10.6365480  34.0139730  64.8158220  11.2238820
  34.0779350  63.3187920  11.0078100  37.5737910  64.6088610  13.5205030
  37.2738050  64.7545790  12.6232850  38.3449150  64.0493900  13.4278420
  42.9166360  69.4057610  11.5160160  42.9310900  68.4738570  11.2979070
  42.2091460  69.4917370  12.1549930  49.1277570  66.0464950  10.8628740
  48.4025760  66.6393730  10.6658130  49.6553030  66.0388490  10.0642110
  44.6577160  67.7725120   4.3612590  45.0100980  67.1753250   3.7013960
  43.7739490  67.4469350   4.5320840  40.7440440  68.5322810   1.7683000
  41.4311570  69.0792020   2.1490590  39.9572860  69.0763540   1.8032610
  42.3500260  71.0475180   8.6100660  42.9942480  71.2534560   9.2874080
  42.7129700  70.2863580   8.1571510  43.6232340  69.0507530   7.3278110
  44.2654570  68.3500690   7.4410280  44.1481690  69.8305970   7.1475000
  45.3969960  69.8502430  10.5314170  45.7326200  70.4369120  11.2092090
  44.4770300  69.7195140  10.7611960  32.9473360  57.6397610  11.3137580
  32.2331880  57.8394530  11.9190190  33.3668400  56.8637180  11.6852380
  33.2345950  71.6277870  12.3004110  33.3437070  70.6872610  12.1599500
  32.5826510  71.8932620  11.6517840  41.2258540  69.8993760  13.7002230
  40.9055410  69.1803000  14.2447920  40.5516900  70.5748830  13.7738290
  44.4412140  60.1319920   9.0639030  44.8092960  59.3115130   9.3918600
  43.5810340  60.1921810   9.4794680  41.4014130  62.7859510   9.2877000
  41.8999380  63.2605330   9.9528850  41.5437080  61.8623030   9.4947030
  43.8073630  58.0913470   2.7280260  43.6841410  58.1099600   1.7789770
  44.7558190  58.1392410   2.8478660  48.6080990  59.0027470  10.1305390
  48.1054590  59.7432870  10.4699200  49.4237650  59.3911470   9.8142180
  46.9003000  64.2460650   3.5766750  45.9593140  64.2610880   3.7514440
  47.2147070  63.4596610   4.0227050  44.2169020  68.8026650  14.0599130
  43.6107180  68.8258250  13.3194880  43.9123130  68.0709690  14.5966380
  33.1002200  65.1820240  13.0559770  33.6041220  64.6027520  13.6276000
  32.3609620  65.4660470  13.5936140  40.1540140  66.5891230  12.5895290
  39.3885810  67.1576230  12.5049960  40.3356100  66.2967440  11.6963520
  47.2963490  68.3196560  13.1470310  48.0372960  68.6572320  12.6437770
  46.5336170  68.4888620  12.5940080  35.1325280  63.3249830  13.9509840
  35.1730620  63.0263700  14.8595070  35.9870780  63.7257440  13.7917360
  37.0731090  61.9041930  11.9184330  36.5427550  61.4132880  11.2907670
  37.7419160  62.3326130  11.3842260  45.9709150  66.3711390  11.6825520
  46.3850170  66.5256470  12.5315940  45.0360150  66.4966610  11.8451300
  46.4431320  63.7107550  13.6864670  47.0252090  62.9559870  13.5985150
  46.6193090  64.2414990  12.9096150  37.5603390  58.8704300  11.9981620
  37.4660260  58.2525050  11.2732490  36.9800780  59.5970590  11.7711530
  40.3264830  57.4277540   9.0309010  39.8782130  57.4501800   8.1854560
  39.6930030  57.0296560   9.6279310  40.7324380  66.3231870   9.6521450
  41.1512490  67.1664600   9.4797690  39.8133010  66.4603910   9.4228230
  43.0688280  64.0548050  11.0359290  43.1884490  63.4589190  11.7754130
  43.9282280  64.0917740  10.6160590  45.4076180  64.6085240   9.6121800
  44.8811400  65.1327860   9.0086940  45.7507520  65.2412630  10.2431530
  39.8357050  60.5969400  12.2935110  40.4256740  60.2885250  12.9812930
  39.0177290  60.1249150  12.4495010  44.6550480  60.2135210  12.5268130
  43.9666000  59.5516750  12.4618120  45.3756500  59.7673480  12.9716590
  32.8421300  71.1910680   4.3299450  33.1724310  70.3231740   4.0978090
  33.2712300  71.3969200   5.1604410  48.9673690  71.5598270  11.3558390
  48.3675680  71.6190830  10.6122310  49.0967590  70.6203250  11.4855240
  33.1635940  64.5701500   3.4269960  32.5084780  64.3013140   2.7829660
  34.0013890  64.4605980   2.9771940  50.6691570  66.9013670   4.0404230
  51.0400400  66.1180990   3.6340200  51.3093500  67.5902770   3.8621530
  47.6525330  68.2850250   9.4534550  46.8385170  68.7147410   9.7160340
  48.0599530  68.8968660   8.8403600  34.2011870  64.9554070   7.9673300
  34.5684910  64.8681470   8.8469320  33.6322690  64.1920620   7.8680160
  49.0015730  63.4238450  10.9803770  48.7701820  63.1951200  10.0801720
  49.2620280  64.3438000  10.9348660  33.7527870  61.8663160  11.8731720
  32.8583920  61.8329920  12.2125430  34.2925420  62.0649950  12.6382970
  47.4403800  58.6494880  13.7583470  48.3173980  58.6578280  14.1417470
  47.4524640  57.9125720  13.1475820  48.8867070  62.5024420   4.6471490
  49.4104550  62.0087070   4.0161660  49.4726490  62.6374780   5.3919060
  49.0656790  62.5864290   8.1691040  48.1159500  62.5527830   8.2836030
  49.2469800  63.4964400   7.9340810  34.2567580  56.1411490   6.2214940
  34.9043770  55.5908870   5.7810100  34.6769420  56.3954640   7.0430750
  49.8054200  60.3958720   3.1201580  49.6953480  60.2414760   4.0583850
  50.5661790  59.8679660   2.8776990  48.1519920  56.3352850   9.5784580
  48.7892140  56.9486990   9.9443770  48.2994810  56.3713510   8.6333810
  34.0099580  56.2967160   8.9640260  33.6614400  56.7530980   9.7298440
  33.6787280  55.4024290   9.0462690  35.6163950  69.4686760  13.1293450
  35.5733580  69.0979670  14.0107910  35.7474960  70.4064330  13.2695270
  39.3169980  71.0246350   8.7303170  39.0761340  71.2920910   7.8433690
  40.2572620  71.1952080   8.7854030  41.5224400  57.4879040  12.4859680
  41.4613290  58.0800870  13.2355090  42.4624780  57.3805000  12.3409940
  44.1598960  57.1449100  12.1251970  44.7739370  57.4628390  11.4633050
  44.7048520  56.6597690  12.7447830  34.6820220  55.8243360  12.2391030
  35.2303210  55.6431410  11.4757140  34.7475530  55.0337470  12.7747340
  44.9007000  55.7081240   8.4521260  44.0266840  56.0416350   8.2494190
  44.7917750  55.2354420   9.2773130  45.8078980  57.9152110   9.8362980
  45.4792340  57.1003870   9.4564710  46.7561280  57.8721920   9.7128670
  35.0864210  69.7807390   9.1999270  34.3598270  69.1612680   9.1325220
  35.1473360  70.1748000   8.3297350  42.6481820  56.6251080   7.3914170
  41.8653610  57.0996580   7.6710930  42.3544750  55.7205910   7.2827350
  47.2002890  57.3274180   5.4363260  47.6410980  57.2719280   4.5884860
  46.9310480  58.2432190   5.5073440  49.0641460  56.9589420   3.4472080
  49.0029860  56.0150640   3.3003100  49.8433490  57.0669510   3.9925540
  40.5336040  59.0437830   2.9030200  39.7210550  58.6694720   2.5626080
  41.0377680  58.2882910   3.2051390  45.0361020  55.7080280   4.1413270
  45.6390390  56.2800490   4.6161790  44.2954010  56.2719720   3.9187170
  38.6840780  56.4721730  13.9427740  38.4025050  56.9755330  13.1788560
  39.0660480  55.6743480  13.5769870  45.2856240  55.8875310  14.5208210
  45.1721690  56.2069920  15.4159730  46.1025980  56.2887820  14.2245490
  44.1914390  45.1324290  59.9816910  44.1108440  44.2178900  59.7108620
  43.7778810  45.6291360  59.2756620  42.3232430  46.9103310  61.8626180
  41.5474530  46.4303750  62.1524750  42.9745360  46.2308960  61.6882340
  36.3398260  47.2223120  62.7401940  35.5083140  46.9671830  63.1398450
  36.9479240  47.2933890  63.4759860  46.3439860  51.3163500  60.6425310
  45.8821390  50.5450740  60.9712480  47.1565410  51.3429570  61.1477760
  36.3199520  51.2563210  62.9359960  36.6227560  50.3660950  62.7570180
  37.0643110  51.8133430  62.7082210  34.7490210  42.1825010  56.5244330
  33.8606910  42.5240980  56.4224210  35.0331400  41.9825330  55.6325160
  32.7123220  44.7830660  62.4084030  33.2839330  44.0152860  62.4087670
  32.7124760  45.0819420  61.4990640  42.5703170  53.6021510  60.2629300
  41.9514610  54.0579010  59.6923740  43.4254950  53.7572970  59.8619000
  41.7641420  49.5860500  61.8696340  41.6949700  48.6450440  61.7085470
  42.5261280  49.6761910  62.4418910  33.9548090  40.1915020  64.1952960
  33.7750930  39.2940770  64.4755720  33.5528170  40.7386890  64.8699910
  42.7946590  42.3930880  62.0965270  43.1711410  41.5202760  61.9838940
  42.6966100  42.7289580  61.2055710  36.9251600  40.7656510  57.5582710
  37.0318350  41.6660240  57.8651470  36.0143960  40.7174480  57.2677360
  46.5770710  39.8881320  59.0293610  47.3980330  39.3977890  59.0719090
  46.6104790  40.4778980  59.7825450  34.5734760  42.6875520  62.8035300
  35.2544870  42.9513890  63.4222700  34.2582810  41.8476390  63.1373310
  38.7659330  43.7342880  61.8907890  39.2737550  44.2323850  62.5312910
  39.2972570  42.9578080  61.7147250  43.4366520  48.4860750  57.6561210
  42.8183790  48.9510200  57.0923930  43.9489770  49.1788230  58.0730720
  38.2998280  48.0136620  64.3344810  37.9667660  48.6405540  64.9765880
  38.4764960  48.5398500  63.5546480  46.8132190  41.8281700  61.8021150
  46.1087760  42.1166590  62.3824260  47.1744350  42.6381810  61.4420710
  36.7310760  40.0851400  64.1641760  37.0727570  40.9293450  63.8695630
  35.7926570  40.2335140  64.2807100  32.8049720  49.1717280  55.0300840
  32.4277700  49.6604380  54.2985740  33.0622790  49.8442560  55.6607370
  48.4294970  51.4456830  64.0648630  47.7458490  52.1155940  64.0565300
  48.9689260  51.6437480  63.2993490  49.8819110  41.2736490  62.1930360
  48.9344020  41.3075470  62.3245790  50.2069100  42.0875440  62.5779720
  40.4138650  37.5733670  60.4886350  40.7213630  37.0180560  59.7721850
  39.4839350  37.7078130  60.3059340  45.9653710  53.2900960  62.7793810
  45.9780870  52.8863250  61.9116070  45.4128930  54.0648250  62.6755240
  47.2599130  50.0117180  57.8683980  47.1495460  49.0691510  57.9933400
  47.2567380  50.3732820  58.7546740  45.3639150  48.1930800  64.1076420
  45.7807940  47.9790910  63.2729880  46.0878970  48.4503590  64.6785040
  42.8019410  45.6382500  57.2246470  41.8748690  45.5719880  57.4534940
  42.9544230  46.5762630  57.1101710  42.7888490  41.9099500  54.2213630
  41.8492160  42.0713460  54.3066090  43.1071750  42.6285180  53.6749620
  49.3101250  46.5918020  64.1992660  48.4819880  46.6611110  63.7242790
  49.9051730  47.1772330  63.7308490  46.8316700  47.2002800  57.7281720
  46.2129120  46.8622350  57.0808020  46.8141150  46.5562560  58.4360910
  38.4076050  46.1647240  60.0066200  38.0033050  45.4524490  59.5112100
  38.4939170  45.8200480  60.8954240  38.8757750  49.8514800  62.1705410
  38.5786040  49.2460270  61.4913190  39.8257570  49.8892110  62.0594770
  37.1204670  42.9390450  63.7865240  37.6719260  43.0485790  63.0118490
  37.6348180  43.3128050  64.5020470  45.0081400  46.4389610  54.7354470
  45.4474680  45.6012040  54.5892290  45.7209820  47.0719010  54.8218610
  43.1176780  51.3785680  58.7035710  43.5572690  52.1210010  58.2891100
  43.0563670  51.6212250  59.6274670  48.5898540  37.6932420  53.0495510
  48.2771200  37.7859250  53.9494580  49.3511010  38.2713450  52.9992940
  35.1080680  45.0592220  57.5072850  34.9878280  45.7854310  56.8954120
  34.7981570  44.2895130  57.0300760  32.7466050  48.2307360  63.3141490
  32.8246470  48.3656130  62.3697210  33.3607730  47.5223250  63.5069610
  33.9913680  49.9307550  59.7247670  33.5841760  50.0722140  58.8701270
  34.8826690  49.6467710  59.5218880  45.7846960  54.3654800  56.0598720
  45.6248100  54.0757740  56.9580550  45.6193670  53.5894930  55.5243950
  38.2635340  54.1453330  57.8370340  38.0877820  53.2288870  57.6238140
  37.4091080  54.5040620  58.0768140  45.4873090  51.8742360  54.6196720
  44.7938250  51.8719650  53.9599000  46.2295950  51.4501680  54.1890890
  45.0523020  53.5005070  58.6945210  45.5079970  52.7194450  59.0083830
  45.3915540  54.2111890  59.2386390  37.5744340  38.4027290  60.8896520
  37.1312490  39.1836830  60.5581040  38.1329330  38.7257180  61.5967460
  40.6903160  38.0237990  55.7702350  40.0657340  38.0197860  56.4955660
  40.6033280  37.1568950  55.3738320  39.6120240  38.9474620  62.7486120
  39.9092570  39.8537450  62.6678140  40.1605800  38.4593400  62.1345690
  37.3658560  43.5260860  58.6177770  37.1399480  43.3098030  59.5224390
  36.5851090  43.9589320  58.2723740  44.5956320  43.5324230  57.2168420
  43.9965210  44.2560030  57.0332040  45.1435930  43.4701010  56.4344870
  43.2021190  42.1687770  59.2471700  43.5950760  42.4859970  58.4340390
  43.5638040  41.2899650  59.3616220  32.2385360  38.7588570  61.4701900
  31.9498410  39.3291430  62.1826880  32.9831120  38.2793020  61.8333130
  32.4255590  42.7008690  52.6804620  32.3430260  43.6439450  52.8219610
  32.0738650  42.5583600  51.8016970  43.7876330  44.7593520  63.3422480
  43.0557450  45.2680330  63.6912580  43.3900670  43.9423500  63.0411260
  40.2253720  41.4347720  61.7474970  40.2289780  40.9937670  60.8979510
  41.1204840  41.7565050  61.8546790  36.0756100  41.3174210  60.7069180
  35.7356150  41.7949440  61.4636230  35.3133420  40.8639330  60.3470280
  40.2873870  42.4359800  54.7381730  40.4086690  42.3946280  55.6867550
  39.9022380  43.2983950  54.5828460  44.2502240  40.2127200  62.7545420
  44.2674980  40.6635850  63.5987270  44.0017820  39.3132840  62.9678860
  39.2995370  44.7460940  54.1365030  38.7312270  44.2979190  53.5100940
  40.0084370  45.1053720  53.6030180  40.5261690  45.4949500  63.4940380
  40.8931820  45.0208070  64.2401720  40.3366750  46.3691070  63.8348720
  33.3902180  40.2393190  59.6233850  33.1049100  39.8748860  60.4612470
  33.3281040  39.5073650  59.0096990  36.8442850  48.7419130  56.4091440
  36.0705110  48.2016750  56.2490160  37.5737480  48.2225740  56.0709200
  47.6030830  47.7384490  62.2017830  48.3229950  48.2339780  61.8113940
  47.4012650  47.0602380  61.5571700  43.0640770  39.1322450  56.3447220
  42.2505380  38.6335620  56.2692530  42.8702720  39.9720700  55.9283570
  45.7789160  43.5042100  54.6409380  46.6668780  43.8159330  54.4660720
  45.7494250  42.6314350  54.2489960  36.8880250  48.4099510  60.0470250
  37.4058920  47.6067770  59.9927140  36.4364270  48.3478650  60.8887080
  41.7749750  49.6765790  55.3197550  42.1165450  50.4208020  54.8240870
  40.9462460  49.9896910  55.6822380  48.0503430  44.8153940  54.1089240
  47.9667150  45.2468160  53.2585680  48.7697620  45.2752290  54.5416060
  49.0790680  51.6696200  56.8371370  48.4366840  51.0151820  57.1115090
  48.6921340  52.0751290  56.0612040  44.6577160  48.9981630  60.6843060
  45.0100980  48.4009760  60.0244430  43.7739490  48.6725860  60.8551310
  40.7440440  49.7579320  58.0913470  41.4311570  50.3048530  58.4721060
  39.9572860  50.3020050  58.1263080  32.8832840  45.3752140  53.5830550
  33.7527690  45.6576940  53.8666470  32.3923160  46.1888010  53.4679360
  40.0467650  46.7625350  57.7038830  40.5030430  47.5730600  57.9299020
  39.6955860  46.4448490  58.5357320  35.9479430  37.1063000  58.1761350
  35.8194060  37.0980900  59.1246270  35.1241450  37.4446090  57.8252360
  43.6232340  50.2764040  63.6508580  44.2654570  49.5757200  63.7640750
  44.1481690  51.0562480  63.4705470  47.4688060  50.5612660  53.3747720
  47.2425640  49.8443100  53.9672360  47.0784260  50.3125100  52.5369470
  33.2504090  54.5879520  54.1492180  33.6101730  55.1868860  53.4949450
  33.1096430  55.1339410  54.9227210  47.0504310  48.4784600  55.0361880
  46.7626010  48.9397290  55.8239760  47.8456480  48.0182370  55.3046100
  39.2672710  51.9710720  54.9665850  39.2582810  52.7040410  54.3510360
  38.3471070  51.7242300  55.0592810  34.8679350  47.1925610  55.7112610
  34.2607300  47.9324510  55.7207910  35.3428700  47.2824970  54.8850810
  47.8074170  40.3133370  56.1957060  47.1787330  40.4179040  55.4815290
  47.3126090  40.5330150  56.9850940  42.2532310  52.0338960  53.6291040
  42.3544290  51.8302950  52.6993020  41.3534050  51.7797240  53.8338820
  39.7758200  42.5919320  57.6114940  39.0674350  43.0605660  58.0528550
  40.0602680  41.9341330  58.2460130  43.8073630  39.3169980  59.0510730
  43.6841410  39.3356110  58.1020240  44.7558190  39.3648920  59.1709130
  40.8950420  54.5525280  58.3238710  41.1491920  54.5146670  57.4018080
  39.9462900  54.4258610  58.3166960  37.9793220  40.9004400  54.9865650
  38.8283750  41.3374550  54.9205840  37.6124490  41.2124660  55.8137710
  46.9003000  45.4717160  59.8997220  45.9593140  45.4867390  60.0744910
  47.2147070  44.6853120  60.3457520  36.8784640  47.1536760  53.4601180
  37.6447910  47.0418120  54.0226610  36.9559330  46.4574730  52.8077950
  35.5731400  44.5861830  54.1434070  35.6534990  43.6389340  54.2551470
  36.4651150  44.9168710  54.2494730  48.9028580  52.6426010  61.5751480
  49.0276000  53.4657180  62.0475290  49.7694140  52.4316740  61.2275630
  36.3746110  54.7357220  61.2468610  37.1108590  54.1872680  61.5177180
  36.7587030  55.6013230  61.1074600  33.2591590  50.8030790  57.1210120
  32.3331370  51.0451930  57.1115530  33.7248020  51.6305050  56.9994870
  39.4848420  53.9087530  53.0694180  40.2777030  54.1976360  52.6175970
  38.9652770  53.4779700  52.3906660  48.5378590  53.1357660  54.4930920
  48.2520100  52.7222800  53.6785100  48.3398140  54.0645370  54.3731440
  40.0025820  49.1290940  52.9336530  39.8976460  48.5143290  53.6597910
  39.8350040  48.6056830  52.1499540  43.2428550  48.1910970  53.5378520
  42.6938650  48.6380270  54.1821260  43.8647810  47.6860220  54.0616190
  38.9103670  47.1501890  55.4343820  39.3320090  46.9841760  56.2775210
  39.0354510  46.3402120  54.9398960  41.4231310  46.1739500  52.6820920
  41.9436970  45.4588520  52.3162070  42.0699710  46.8125370  52.9821430
  37.8062570  43.2235120  52.3801980  37.6051630  42.3602480  52.7415320
  37.6354620  43.1368480  51.4423580  45.2850880  38.0343350  54.9088860
  45.5653170  37.1911250  55.2648280  44.5116610  38.2666460  55.4227610
  36.6045370  40.3235740  52.3679860  36.9071270  40.3303170  51.4599010
  37.3439960  39.9733600  52.8647520  39.8230300  39.2670360  53.3536060
  39.4752300  38.5894350  52.7738510  40.0243070  38.8059870  54.1679450
  41.9879340  54.2551110  54.9722660  42.8830130  54.5936080  54.9941420
  42.0196970  53.5330520  54.3446940  35.6275500  49.6278160  53.2009660
  36.0650370  50.1707830  53.8567240  36.1123230  48.8025110  53.2106000
  32.8421300  52.4167190  60.6529920  33.1724310  51.5488250  60.4208560
  33.2712300  52.6225710  61.4834880  37.4383220  50.7476200  58.3131890
  37.1378760  50.6241170  59.2135800  37.3320710  49.8884790  57.9047620
  33.3311510  53.2837780  63.3911550  32.8942500  53.4638580  64.2235700
  33.8989190  54.0412400  63.2493270  50.2075140  50.5272600  53.0158570
  49.3768100  50.5949250  53.4865800  50.3846970  51.4176720  52.7125430
  49.6631600  47.2720080  55.5192770  50.4250510  47.8416730  55.6252460
  49.6785970  46.7047280  56.2901080  33.1635940  45.7958010  59.7500430
  32.5084780  45.5269650  59.1060130  34.0013890  45.6862490  59.3002410
  50.6691570  48.1270180  60.3634700  51.0400400  47.3437500  59.9570670
  51.3093500  48.8159280  60.1852000  49.7150770  47.5654450  52.6765290
  49.9899610  48.4733330  52.5484510  49.5261510  47.5016980  53.6127280
  46.1126380  40.5899300  53.9718920  46.5311260  40.4030280  53.1315580
  45.8062440  39.7378350  54.2821850  49.6116110  45.5023440  57.6694720
  49.2359710  44.7351370  57.2376010  48.8819230  45.8846140  58.1569650
  34.2011870  46.1810580  64.2903770  34.5684910  46.0937980  65.1699790
  33.6322690  45.4177130  64.1910630  32.3774020  43.0056940  55.6925760
  31.4738100  43.2687140  55.5177420  32.8614640  43.2768110  54.9125720
  48.8867070  43.7280930  60.9701960  49.4104550  43.2343580  60.3392130
  49.4726490  43.8631290  61.7149530  49.0656790  43.8120800  64.4921510
  48.1159500  43.7784340  64.6066500  49.2469800  44.7220910  64.2571280
  34.9201230  42.0622480  53.6020140  35.6292930  41.6405700  53.1167420
  34.2041170  42.1297710  52.9703490  34.5675390  38.1161810  52.6422790
  35.2903520  38.6570750  52.9604010  34.8399910  37.8425230  51.7664330
  48.3767040  42.9854280  56.9094370  48.8726160  42.7525150  57.6943250
  48.1783110  42.1466120  56.4932010  34.2567580  37.3668000  62.5445410
  34.9043770  36.8165380  62.1040570  34.6769420  37.6211150  63.3661220
  49.8054200  41.6215230  59.4432050  49.6953480  41.4671270  60.3814320
  50.5661790  41.0936170  59.2007460  50.6944470  39.4523150  52.6838190
  51.6193780  39.3204330  52.4756480  50.6720260  39.5315970  53.6374640
  50.7682960  40.2233810  55.3094900  49.9734460  40.1578930  55.8387810
  50.9726240  41.1584450  55.2980250  47.7101380  54.2625360  59.3033290
  48.3060450  53.9409930  58.6267710  47.9679530  53.7897180  60.0946560
  39.3169980  52.2502860  65.0533640  39.0761340  52.5177420  64.1664160
  40.2572620  52.4208590  65.1084500  48.2613590  54.9120660  63.1331020
  47.8016560  55.6636470  62.7589040  47.6326050  54.1927130  63.0745820
  38.6909310  53.2208900  62.3079150  39.2074330  52.6096260  61.7827410
  39.3406690  53.7237680  62.7990160  41.4304810  54.1117390  63.1348130
  41.7182620  53.8571690  62.2581140  41.9428030  53.5594750  63.7253700
  42.6481820  37.8507590  63.7144640  41.8653610  38.3253090  63.9941400
  42.3544750  36.9462420  63.6057820  47.2002890  38.5530690  61.7593730
  47.6410980  38.4975790  60.9115330  46.9310480  39.4688700  61.8303910
  49.0641460  38.1845930  59.7702550  49.0029860  37.2407150  59.6233570
  49.8433490  38.2926020  60.3156010  33.3694210  54.3238290  58.7326500
  33.2016250  53.6908970  59.4308390  32.5028720  54.5297690  58.3820690
  33.9922230  38.1555070  56.2358360  34.7501590  38.2683950  55.6622390
  33.5299400  38.9924270  56.1901790  40.5336040  40.2694340  59.2260670
  39.7210550  39.8951230  58.8856550  41.0377680  39.5139420  59.5281860
  45.0361020  36.9336790  60.4643740  45.6390390  37.5057000  60.9392260
  44.2954010  37.4976230  60.2417640  48.1795620  37.3358350  55.7384020
  48.3746250  38.2341800  56.0051450  47.3925490  37.1045430  56.2316970
  34.9756910  53.0171520  56.1776640  34.4504530  53.3979550  55.4738600
  34.9001490  53.6422290  56.8986350  36.3647380  38.6819120  54.7760330
  36.8940140  37.8948920  54.6468280  36.9975700  39.3610310  55.0095860
  38.5585220  38.4194260  57.8305720  37.9287960  37.7181570  57.9975850
  38.0190360  39.1798390  57.6138880  49.7322230  54.5759060  57.4990580
  49.9074420  53.8896800  56.8551500  49.0343800  55.1006110  57.1067250
  37.5749880  54.9653900  55.0525890  38.3068700  54.6813180  54.5049780
  37.8343550  54.7267180  55.9425270  36.7364670  51.0818630  55.0572220
  36.1073550  51.5503730  55.6058050  36.8512500  50.2367850  55.4918410
  44.1914390  45.1324290  41.2073420  44.1108440  44.2178900  40.9365130
  43.7778810  45.6291360  40.5013130  42.3232430  46.9103310  43.0882690
  41.5474530  46.4303750  43.3781260  42.9745360  46.2308960  42.9138850
  36.3398260  47.2223120  43.9658450  35.5083140  46.9671830  44.3654960
  36.9479240  47.2933890  44.7016370  46.3439860  51.3163500  41.8681820
  45.8821390  50.5450740  42.1968990  47.1565410  51.3429570  42.3734270
  36.3199520  51.2563210  44.1616470  36.6227560  50.3660950  43.9826690
  37.0643110  51.8133430  43.9338720  42.5703170  53.6021510  41.4885810
  41.9514610  54.0579010  40.9180250  43.4254950  53.7572970  41.0875510
  41.7641420  49.5860500  43.0952850  41.6949700  48.6450440  42.9341980
  42.5261280  49.6761910  43.6675420  42.7946590  42.3930880  43.3221780
  43.1711410  41.5202760  43.2095450  42.6966100  42.7289580  42.4312220
  38.7659330  43.7342880  43.1164400  39.2737550  44.2323850  43.7569420
  39.2972570  42.9578080  42.9403760  50.8670260  41.9048070  46.8193750
  50.1622430  42.2929780  46.3008860  51.1328180  42.5998360  47.4214680
  37.0495430  38.3741440  47.3827820  37.0513870  38.8913830  46.5773720
  36.2199740  37.8971620  47.3597750  43.4366520  48.4860750  38.8817720
  42.8183790  48.9510200  38.3180440  43.9489770  49.1788230  39.2987230
  38.2998280  48.0136620  45.5601320  37.9667660  48.6405540  46.2022390
  38.4764960  48.5398500  44.7802990  36.7310760  40.0851400  45.3898270
  37.0727570  40.9293450  45.0952140  35.7926570  40.2335140  45.5063610
  37.5117380  49.9817420  47.3750500  38.1291380  50.6568500  47.0934950
  36.6510500  50.3905400  47.2838000  32.8049720  49.1717280  36.2557350
  32.4277700  49.6604380  35.5242250  33.0622790  49.8442560  36.8863880
  48.4294970  51.4456830  45.2905140  47.7458490  52.1155940  45.2821810
  48.9689260  51.6437480  44.5250000  40.4138650  37.5733670  41.7142860
  40.7213630  37.0180560  40.9978360  39.4839350  37.7078130  41.5315850
  45.9653710  53.2900960  44.0050320  45.9780870  52.8863250  43.1372580
  45.4128930  54.0648250  43.9011750  47.2599130  50.0117180  39.0940490
  47.1495460  49.0691510  39.2189910  47.2567380  50.3732820  39.9803250
  45.3639150  48.1930800  45.3332930  45.7807940  47.9790910  44.4986390
  46.0878970  48.4503590  45.9041550  42.8019410  45.6382500  38.4502980
  41.8748690  45.5719880  38.6791450  42.9544230  46.5762630  38.3358220
  49.3101250  46.5918020  45.4249170  48.4819880  46.6611110  44.9499300
  49.9051730  47.1772330  44.9565000  46.8316700  47.2002800  38.9538230
  46.2129120  46.8622350  38.3064530  46.8141150  46.5562560  39.6617420
  46.2743260  43.3787340  46.3704040  45.8614440  44.2041050  46.6244030
  45.5419210  42.7932380  46.1780400  38.4076050  46.1647240  41.2322710
  38.0033050  45.4524490  40.7368610  38.4939170  45.8200480  42.1210750
  38.8757750  49.8514800  43.3961920  38.5786040  49.2460270  42.7169700
  39.8257570  49.8892110  43.2851280  37.1204670  42.9390450  45.0121750
  37.6719260  43.0485790  44.2375000  37.6348180  43.3128050  45.7276980
  46.9643360  53.4246670  47.0585020  46.4873920  54.2318860  46.8657630
  46.2805150  52.7725000  47.2111230  37.9676180  49.5896490  50.0469720
  37.0704710  49.8136460  50.2943120  37.9929050  49.7131430  49.0981120
  45.0081400  46.4389610  35.9610980  45.4474680  45.6012040  35.8148800
  45.7209820  47.0719010  36.0475120  36.7947400  46.4609810  48.6227090
  36.6555170  47.3332610  48.9914490  35.9128760  46.1182620  48.4775030
  43.1176780  51.3785680  39.9292220  43.5572690  52.1210010  39.5147610
  43.0563670  51.6212250  40.8531180  38.5927750  52.4031510  50.8312240
  38.5643180  52.8074460  49.9640670  38.4292720  51.4741870  50.6683840
  35.1080680  45.0592220  38.7329360  34.9878280  45.7854310  38.1210630
  34.7981570  44.2895130  38.2557270  50.5442570  53.1858610  52.1276410
  51.0202290  53.6641500  52.8065490  51.1649730  53.1176100  51.4021910
  33.9913680  49.9307550  40.9504180  33.5841760  50.0722140  40.0957780
  34.8826690  49.6467710  40.7475390  49.9475820  50.3771460  49.2876420
  50.0738880  50.1383340  48.3693600  49.9897200  49.5456000  49.7598500
  43.8092560  54.0799460  47.8571230  44.3237230  53.9907470  48.6593660
  42.9661640  54.4259160  48.1499140  45.7846960  54.3654800  37.2855230
  45.6248100  54.0757740  38.1837060  45.6193670  53.5894930  36.7500460
  38.2635340  54.1453330  39.0626850  38.0877820  53.2288870  38.8494650
  37.4091080  54.5040620  39.3024650  45.4873090  51.8742360  35.8453230
  44.7938250  51.8719650  35.1855510  46.2295950  51.4501680  35.4147400
  45.0523020  53.5005070  39.9201720  45.5079970  52.7194450  40.2340340
  45.3915540  54.2111890  40.4642900  49.7999830  42.4303920  50.2526160
  49.1844100  42.9383590  49.7241620  49.4796250  41.5302250  50.1952100
  32.8025570  49.2721530  47.0792460  32.9656610  48.8026890  46.2611830
  33.2678020  48.7645090  47.7441300  37.5744340  38.4027290  42.1153030
  37.1312490  39.1836830  41.7837550  38.1329330  38.7257180  42.8223970
  41.8614150  41.2695810  47.7188350  41.3993520  41.4778830  48.5308290
  41.4592260  40.4555160  47.4159020  46.8618660  42.4904760  48.8485010
  46.0112250  42.1910510  49.1694080  46.7020450  42.7346770  47.9368830
  43.9568370  43.9906510  50.9483800  44.2821780  43.1570260  50.6086030
  44.7448700  44.5135030  51.0962130  39.6120240  38.9474620  43.9742630
  39.9092570  39.8537450  43.8934650  40.1605800  38.4593400  43.3602200
  37.3658560  43.5260860  39.8434280  37.1399480  43.3098030  40.7480900
  36.5851090  43.9589320  39.4980250  44.5956320  43.5324230  38.4424930
  43.9965210  44.2560030  38.2588550  45.1435930  43.4701010  37.6601380
  39.8057770  44.4246440  50.5094550  39.7101370  43.4841170  50.3594950
  40.6489750  44.6461510  50.1142620  43.2021190  42.1687770  40.4728210
  43.5950760  42.4859970  39.6596900  43.5638040  41.2899650  40.5872730
  34.9368310  40.8360110  48.6628330  34.5431700  41.6835320  48.8701110
  34.2486710  40.1986480  48.8536970  41.5113360  40.9195080  51.7325070
  40.8211680  40.7267280  52.3671160  42.2545660  41.2029720  52.2649370
  43.7876330  44.7593520  44.5678990  43.0557450  45.2680330  44.9169090
  43.3900670  43.9423500  44.2667770  40.2253720  41.4347720  42.9731480
  40.2289780  40.9937670  42.1236020  41.1204840  41.7565050  43.0803300
  36.0756100  41.3174210  41.9325690  35.7356150  41.7949440  42.6892740
  35.3133420  40.8639330  41.5726790  44.2502240  40.2127200  43.9801930
  44.2674980  40.6635850  44.8243780  44.0017820  39.3132840  44.1935370
  47.6772990  37.6259380  49.8188310  48.0018760  36.8949040  50.3446290
  47.7129500  37.3073020  48.9169300  34.3764550  48.6472960  49.2388270
  33.9919340  48.0066630  49.8371230  34.6876740  49.3509080  49.8083000
  40.5261690  45.4949500  44.7196890  40.8931820  45.0208070  45.4658230
  40.3366750  46.3691070  45.0605230  38.3161060  44.5358140  47.0381100
  38.0118130  45.4150120  47.2631460  39.2707520  44.5957930  47.0738540
  36.8442850  48.7419130  37.6347950  36.0705110  48.2016750  37.4746670
  37.5737480  48.2225740  37.2965710  47.6030830  47.7384490  43.4274340
  48.3229950  48.2339780  43.0370450  47.4012650  47.0602380  42.7828210
  43.0640770  39.1322450  37.5703730  42.2505380  38.6335620  37.4949040
  42.8702720  39.9720700  37.1540080  42.9849630  47.8093550  49.3143340
  42.9186940  46.8889220  49.0600930  42.3554770  47.9068990  50.0287980
  45.7789160  43.5042100  35.8665890  46.6668780  43.8159330  35.6917230
  45.7494250  42.6314350  35.4746470  36.8880250  48.4099510  41.2726760
  37.4058920  47.6067770  41.2183650  36.4364270  48.3478650  42.1143590
  41.7749750  49.6765790  36.5454060  42.1165450  50.4208020  36.0497380
  40.9462460  49.9896910  36.9078890  37.5737910  45.8345120  51.0692010
  37.2738050  45.9802300  50.1719830  38.3449150  45.2750410  50.9765400
  42.9166360  50.6314120  49.0647140  42.9310900  49.6995080  48.8466050
  42.2091460  50.7173880  49.7036910  48.0503430  44.8153940  35.3345750
  47.9667150  45.2468160  34.4842190  48.7697620  45.2752290  35.7672570
  49.1277570  47.2721460  48.4115720  48.4025760  47.8650240  48.2145110
  49.6553030  47.2645000  47.6129090  49.0790680  51.6696200  38.0627880
  48.4366840  51.0151820  38.3371600  48.6921340  52.0751290  37.2868550
  44.6577160  48.9981630  41.9099570  45.0100980  48.4009760  41.2500940
  43.7739490  48.6725860  42.0807820  40.7440440  49.7579320  39.3169980
  41.4311570  50.3048530  39.6977570  39.9572860  50.3020050  39.3519590
  40.0467650  46.7625350  38.9295340  40.5030430  47.5730600  39.1555530
  39.6955860  46.4448490  39.7613830  42.3500260  52.2731690  46.1587640
  42.9942480  52.4791070  46.8361060  42.7129700  51.5120090  45.7058490
  43.6232340  50.2764040  44.8765090  44.2654570  49.5757200  44.9897260
  44.1481690  51.0562480  44.6961980  47.4688060  50.5612660  34.6004230
  47.2425640  49.8443100  35.1928870  47.0784260  50.3125100  33.7625980
  45.3969960  51.0758940  48.0801150  45.7326200  51.6625630  48.7579070
  44.4770300  50.9451650  48.3098940  33.2504090  54.5879520  35.3748690
  33.6101730  55.1868860  34.7205960  33.1096430  55.1339410  36.1483720
  32.9473360  38.8654120  48.8624560  32.2331880  39.0651040  49.4677170
  33.3668400  38.0893690  49.2339360  47.0504310  48.4784600  36.2618390
  46.7626010  48.9397290  37.0496270  47.8456480  48.0182370  36.5302610
  33.2345950  52.8534380  49.8491090  33.3437070  51.9129120  49.7086480
  32.5826510  53.1189130  49.2004820  41.2258540  51.1250270  51.2489210
  40.9055410  50.4059510  51.7934900  40.5516900  51.8005340  51.3225270
  39.2672710  51.9710720  36.1922360  39.2582810  52.7040410  35.5766870
  38.3471070  51.7242300  36.2849320  34.8679350  47.1925610  36.9369120
  34.2607300  47.9324510  36.9464420  35.3428700  47.2824970  36.1107320
  44.4412140  41.3576430  46.6126010  44.8092960  40.5371640  46.9405580
  43.5810340  41.4178320  47.0281660  42.2532310  52.0338960  34.8547550
  42.3544290  51.8302950  33.9249530  41.3534050  51.7797240  35.0595330
  41.4014130  44.0116020  46.8363980  41.8999380  44.4861840  47.5015830
  41.5437080  43.0879540  47.0434010  40.8950420  54.5525280  39.5495220
  41.1491920  54.5146670  38.6274590  39.9462900  54.4258610  39.5423470
  48.6080990  40.2283980  47.6792370  48.1054590  40.9689380  48.0186180
  49.4237650  40.6167980  47.3629160  46.9003000  45.4717160  41.1253730
  45.9593140  45.4867390  41.3001420  47.2147070  44.6853120  41.5714030
  36.8784640  47.1536760  34.6857690  37.6447910  47.0418120  35.2483120
  36.9559330  46.4574730  34.0334460  48.9028580  52.6426010  42.8007990
  49.0276000  53.4657180  43.2731800  49.7694140  52.4316740  42.4532140
  36.3746110  54.7357220  42.4725120  37.1108590  54.1872680  42.7433690
  36.7587030  55.6013230  42.3331110  33.2591590  50.8030790  38.3466630
  32.3331370  51.0451930  38.3372040  33.7248020  51.6305050  38.2251380
  35.3804390  53.9203290  51.6610700  36.1817120  54.2415340  52.0746100
  34.8656210  53.5598870  52.3830610  39.4848420  53.9087530  34.2950690
  40.2777030  54.1976360  33.8432480  38.9652770  53.4779700  33.6163170
  44.2169020  50.0283160  51.6086110  43.6107180  50.0514760  50.8681860
  43.9123130  49.2966200  52.1453360  45.6469390  53.7563450  50.2195520
  46.5991140  53.6721470  50.1695760  45.4997610  54.4205160  50.8929310
  48.5378590  53.1357660  35.7187430  48.2520100  52.7222800  34.9041610
  48.3398140  54.0645370  35.5987950  33.1002200  46.4076750  50.6046750
  33.6041220  45.8284030  51.1762980  32.3609620  46.6916980  51.1423120
  40.0025820  49.1290940  34.1593040  39.8976460  48.5143290  34.8854420
  39.8350040  48.6056830  33.3756050  40.1540140  47.8147740  50.1382270
  39.3885810  48.3832740  50.0536940  40.3356100  47.5223950  49.2450500
  43.2428550  48.1910970  34.7635030  42.6938650  48.6380270  35.4077770
  43.8647810  47.6860220  35.2872700  47.2963490  49.5453070  50.6957290
  48.0372960  49.8828830  50.1924750  46.5336170  49.7145130  50.1427060
  35.1325280  44.5506340  51.4996820  35.1730620  44.2520210  52.4082050
  35.9870780  44.9513950  51.3404340  38.9103670  47.1501890  36.6600330
  39.3320090  46.9841760  37.5031720  39.0354510  46.3402120  36.1655470
  37.0731090  43.1298440  49.4671310  36.5427550  42.6389390  48.8394650
  37.7419160  43.5582640  48.9329240  41.4231310  46.1739500  33.9077430
  41.9436970  45.4588520  33.5418580  42.0699710  46.8125370  34.2077940
  45.9709150  47.5967900  49.2312500  46.3850170  47.7512980  50.0802920
  45.0360150  47.7223120  49.3938280  46.4431320  44.9364060  51.2351650
  47.0252090  44.1816380  51.1472130  46.6193090  45.4671500  50.4583130
  37.5603390  40.0960810  49.5468600  37.4660260  39.4781560  48.8219470
  36.9800780  40.8227100  49.3198510  40.3264830  38.6534050  46.5795990
  39.8782130  38.6758310  45.7341540  39.6930030  38.2553070  47.1766290
  40.7324380  47.5488380  47.2008430  41.1512490  48.3921110  47.0284670
  39.8133010  47.6860420  46.9715210  43.0688280  45.2804560  48.5846270
  43.1884490  44.6845700  49.3241110  43.9282280  45.3174250  48.1647570
  45.4076180  45.8341750  47.1608780  44.8811400  46.3584370  46.5573920
  45.7507520  46.4669140  47.7918510  38.5831800  53.8541390  48.3166160
  38.0452890  54.5787450  47.9974860  38.8365760  53.3771730  47.5263500
  39.8357050  41.8225910  49.8422090  40.4256740  41.5141760  50.5299910
  39.0177290  41.3505660  49.9981990  44.6550480  41.4391720  50.0755110
  43.9666000  40.7773260  50.0105100  45.3756500  40.9929990  50.5203570
  45.2850880  38.0343350  36.1345370  45.5653170  37.1911250  36.4904790
  44.5116610  38.2666460  36.6484120  41.4394010  55.0892600  48.5752810
  41.3652710  55.9927740  48.8825180  40.5372850  54.7704500  48.5474880
  41.9879340  54.2551110  36.1979170  42.8830130  54.5936080  36.2197930
  42.0196970  53.5330520  35.5703450  35.6275500  49.6278160  34.4266170
  36.0650370  50.1707830  35.0823750  36.1123230  48.8025110  34.4362510
  32.8421300  52.4167190  41.8786430  33.1724310  51.5488250  41.6465070
  33.2712300  52.6225710  42.7091390  37.4383220  50.7476200  39.5388400
  37.1378760  50.6241170  40.4392310  37.3320710  49.8884790  39.1304130
  33.3311510  53.2837780  44.6168060  32.8942500  53.4638580  45.4492210
  33.8989190  54.0412400  44.4749780  48.9673690  52.7854780  48.9045370
  48.3675680  52.8447340  48.1609290  49.0967590  51.8459760  49.0342220
  50.2075140  50.5272600  34.2415080  49.3768100  50.5949250  34.7122310
  50.3846970  51.4176720  33.9381940  49.6631600  47.2720080  36.7449280
  50.4250510  47.8416730  36.8508970  49.6785970  46.7047280  37.5157590
  50.6691570  48.1270180  41.5891210  51.0400400  47.3437500  41.1827180
  51.3093500  48.8159280  41.4108510  47.6525330  49.5106760  47.0021530
  46.8385170  49.9403920  47.2647320  48.0599530  50.1225170  46.3890580
  46.1126380  40.5899300  35.1975430  46.5311260  40.4030280  34.3572090
  45.8062440  39.7378350  35.5078360  49.6116110  45.5023440  38.8951230
  49.2359710  44.7351370  38.4632520  48.8819230  45.8846140  39.3826160
  49.0015730  44.6494960  48.5290750  48.7701820  44.4207710  47.6288700
  49.2620280  45.5694510  48.4835640  47.4403800  39.8751390  51.3070450
  48.3173980  39.8834790  51.6904450  47.4524640  39.1382230  50.6962800
  48.8867070  43.7280930  42.1958470  49.4104550  43.2343580  41.5648640
  49.4726490  43.8631290  42.9406040  49.0656790  43.8120800  45.7178020
  48.1159500  43.7784340  45.8323010  49.2469800  44.7220910  45.4827790
  48.3767040  42.9854280  38.1350880  48.8726160  42.7525150  38.9199760
  48.1783110  42.1466120  37.7188520  34.2567580  37.3668000  43.7701920
  34.9043770  36.8165380  43.3297080  34.6769420  37.6211150  44.5917730
  48.1519920  37.5609360  47.1271560  48.7892140  38.1743500  47.4930750
  48.2994810  37.5970020  46.1820790  47.7101380  54.2625360  40.5289800
  48.3060450  53.9409930  39.8524220  47.9679530  53.7897180  41.3203070
  34.0099580  37.5223670  46.5127240  33.6614400  37.9787490  47.2785420
  33.6787280  36.6280800  46.5949670  35.6163950  50.6943270  50.6780430
  35.5733580  50.3236180  51.5594890  35.7474960  51.6320840  50.8182250
  39.3169980  52.2502860  46.2790150  39.0761340  52.5177420  45.3920670
  40.2572620  52.4208590  46.3341010  41.5224400  38.7135550  50.0346660
  41.4613290  39.3057380  50.7842070  42.4624780  38.6061510  49.8896920
  44.1598960  38.3705610  49.6738950  44.7739370  38.6884900  49.0120030
  44.7048520  37.8854200  50.2934810  50.5774140  54.2697240  47.0800790
  50.0832420  54.6666110  46.3627920  49.9687430  53.6446450  47.4738070
  34.6820220  37.0499870  49.7878010  35.2303210  36.8687920  49.0244120
  34.7475530  36.2593980  50.3234320  35.4551980  53.6405520  47.7978210
  34.8612300  53.5090220  48.5368250  35.4475820  52.8043660  47.3320310
  44.9007000  36.9337750  46.0008240  44.0266840  37.2672860  45.7981170
  44.7917750  36.4610930  46.8260110  45.8078980  39.1408620  47.3849960
  45.4792340  38.3260380  47.0051690  46.7561280  39.0978430  47.2615650
  48.2613590  54.9120660  44.3587530  47.8016560  55.6636470  43.9845550
  47.6326050  54.1927130  44.3002330  35.0864210  51.0063900  46.7486250
  34.3598270  50.3869190  46.6812200  35.1473360  51.4004510  45.8784330
  38.6909310  53.2208900  43.5335660  39.2074330  52.6096260  43.0083920
  39.3406690  53.7237680  44.0246670  41.4304810  54.1117390  44.3604640
  41.7182620  53.8571690  43.4837650  41.9428030  53.5594750  44.9510210
  42.6481820  37.8507590  44.9401150  41.8653610  38.3253090  45.2197910
  42.3544750  36.9462420  44.8314330  33.3694210  54.3238290  39.9583010
  33.2016250  53.6908970  40.6564900  32.5028720  54.5297690  39.6077200
  40.5336040  40.2694340  40.4517180  39.7210550  39.8951230  40.1113060
  41.0377680  39.5139420  40.7538370  34.9756910  53.0171520  37.4033150
  34.4504530  53.3979550  36.6995110  34.9001490  53.6422290  38.1242860
  38.5585220  38.4194260  39.0562230  37.9287960  37.7181570  39.2232360
  38.0190360  39.1798390  38.8395390  41.4977170  55.0333490  51.7272840
  42.4244480  54.7977760  51.7708800  41.4827600  55.8605490  51.2458870
  49.7322230  54.5759060  38.7247090  49.9074420  53.8896800  38.0808010
  49.0343800  55.1006110  38.3323760  38.6840780  37.6978240  51.4914720
  38.4025050  38.2011840  50.7275540  39.0660480  36.8999990  51.1256850
  37.5749880  54.9653900  36.2782400  38.3068700  54.6813180  35.7306290
  37.8343550  54.7267180  37.1681780  36.7364670  51.0818630  36.2828730
  36.1073550  51.5503730  36.8314560  36.8512500  50.2367850  36.7174920
  45.2856240  37.1131820  52.0695190  45.1721690  37.4326430  52.9646710
  46.1025980  37.5144330  51.7732470  48.0654730  54.2603350  51.5513880
  48.8580050  53.7652580  51.3439840  48.3587880  54.9393490  52.1589490
  44.1914390  45.1324290  22.4329930  44.1108440  44.2178900  22.1621640
  43.7778810  45.6291360  21.7269640  42.3232430  46.9103310  24.3139200
  41.5474530  46.4303750  24.6037770  42.9745360  46.2308960  24.1395360
  36.3398260  47.2223120  25.1914960  35.5083140  46.9671830  25.5911470
  36.9479240  47.2933890  25.9272880  46.3439860  51.3163500  23.0938330
  45.8821390  50.5450740  23.4225500  47.1565410  51.3429570  23.5990780
  36.3199520  51.2563210  25.3872980  36.6227560  50.3660950  25.2083200
  37.0643110  51.8133430  25.1595230  34.7490210  42.1825010  18.9757350
  33.8606910  42.5240980  18.8737230  35.0331400  41.9825330  18.0838180
  32.7123220  44.7830660  24.8597050  33.2839330  44.0152860  24.8600690
  32.7124760  45.0819420  23.9503660  42.5703170  53.6021510  22.7142320
  41.9514610  54.0579010  22.1436760  43.4254950  53.7572970  22.3132020
  41.7641420  49.5860500  24.3209360  41.6949700  48.6450440  24.1598490
  42.5261280  49.6761910  24.8931930  33.9548090  40.1915020  26.6465980
  33.7750930  39.2940770  26.9268740  33.5528170  40.7386890  27.3212930
  42.7946590  42.3930880  24.5478290  43.1711410  41.5202760  24.4351960
  42.6966100  42.7289580  23.6568730  36.9251600  40.7656510  20.0095730
  37.0318350  41.6660240  20.3164490  36.0143960  40.7174480  19.7190380
  46.5770710  39.8881320  21.4806630  47.3980330  39.3977890  21.5232110
  46.6104790  40.4778980  22.2338470  34.5734760  42.6875520  25.2548320
  35.2544870  42.9513890  25.8735720  34.2582810  41.8476390  25.5886330
  38.7659330  43.7342880  24.3420910  39.2737550  44.2323850  24.9825930
  39.2972570  42.9578080  24.1660270  37.0495430  38.3741440  28.6084330
  37.0513870  38.8913830  27.8030230  36.2199740  37.8971620  28.5854260
  43.4366520  48.4860750  20.1074230  42.8183790  48.9510200  19.5436950
  43.9489770  49.1788230  20.5243740  38.2998280  48.0136620  26.7857830
  37.9667660  48.6405540  27.4278900  38.4764960  48.5398500  26.0059500
  46.8132190  41.8281700  24.2534170  46.1087760  42.1166590  24.8337280
  47.1744350  42.6381810  23.8933730  36.7310760  40.0851400  26.6154780
  37.0727570  40.9293450  26.3208650  35.7926570  40.2335140  26.7320120
  37.5117380  49.9817420  28.6007010  38.1291380  50.6568500  28.3191460
  36.6510500  50.3905400  28.5094510  32.8049720  49.1717280  17.4813860
  32.4277700  49.6604380  16.7498760  33.0622790  49.8442560  18.1120390
  48.4294970  51.4456830  26.5161650  47.7458490  52.1155940  26.5078320
  48.9689260  51.6437480  25.7506510  45.9653710  53.2900960  25.2306830
  45.9780870  52.8863250  24.3629090  45.4128930  54.0648250  25.1268260
  47.2599130  50.0117180  20.3197000  47.1495460  49.0691510  20.4446420
  47.2567380  50.3732820  21.2059760  45.3639150  48.1930800  26.5589440
  45.7807940  47.9790910  25.7242900  46.0878970  48.4503590  27.1298060
  42.8019410  45.6382500  19.6759490  41.8748690  45.5719880  19.9047960
  42.9544230  46.5762630  19.5614730  42.7888490  41.9099500  16.6726650
  41.8492160  42.0713460  16.7579110  43.1071750  42.6285180  16.1262640
  46.8316700  47.2002800  20.1794740  46.2129120  46.8622350  19.5321040
  46.8141150  46.5562560  20.8873930  46.2743260  43.3787340  27.5960550
  45.8614440  44.2041050  27.8500540  45.5419210  42.7932380  27.4036910
  38.4076050  46.1647240  22.4579220  38.0033050  45.4524490  21.9625120
  38.4939170  45.8200480  23.3467260  38.8757750  49.8514800  24.6218430
  38.5786040  49.2460270  23.9426210  39.8257570  49.8892110  24.5107790
  37.1204670  42.9390450  26.2378260  37.6719260  43.0485790  25.4631510
  37.6348180  43.3128050  26.9533490  46.9643360  53.4246670  28.2841530
  46.4873920  54.2318860  28.0914140  46.2805150  52.7725000  28.4367740
  37.9676180  49.5896490  31.2726230  37.0704710  49.8136460  31.5199630
  37.9929050  49.7131430  30.3237630  45.0081400  46.4389610  17.1867490
  45.4474680  45.6012040  17.0405310  45.7209820  47.0719010  17.2731630
  36.7947400  46.4609810  29.8483600  36.6555170  47.3332610  30.2171000
  35.9128760  46.1182620  29.7031540  43.1176780  51.3785680  21.1548730
  43.5572690  52.1210010  20.7404120  43.0563670  51.6212250  22.0787690
  38.5927750  52.4031510  32.0568750  38.5643180  52.8074460  31.1897180
  38.4292720  51.4741870  31.8940350  35.1080680  45.0592220  19.9585870
  34.9878280  45.7854310  19.3467140  34.7981570  44.2895130  19.4813780
  50.5442570  53.1858610  33.3532920  51.0202290  53.6641500  34.0322000
  51.1649730  53.1176100  32.6278420  32.7466050  48.2307360  25.7654510
  32.8246470  48.3656130  24.8210230  33.3607730  47.5223250  25.9582630
  33.9913680  49.9307550  22.1760690  33.5841760  50.0722140  21.3214290
  34.8826690  49.6467710  21.9731900  43.8092560  54.0799460  29.0827740
  44.3237230  53.9907470  29.8850170  42.9661640  54.4259160  29.3755650
  45.7846960  54.3654800  18.5111740  45.6248100  54.0757740  19.4093570
  45.6193670  53.5894930  17.9756970  38.2635340  54.1453330  20.2883360
  38.0877820  53.2288870  20.0751160  37.4091080  54.5040620  20.5281160
  45.4873090  51.8742360  17.0709740  44.7938250  51.8719650  16.4112020
  46.2295950  51.4501680  16.6403910  45.0523020  53.5005070  21.1458230
  45.5079970  52.7194450  21.4596850  45.3915540  54.2111890  21.6899410
  32.8025570  49.2721530  28.3048970  32.9656610  48.8026890  27.4868340
  33.2678020  48.7645090  28.9697810  37.5744340  38.4027290  23.3409540
  37.1312490  39.1836830  23.0094060  38.1329330  38.7257180  24.0480480
  41.8614150  41.2695810  28.9444860  41.3993520  41.4778830  29.7564800
  41.4592260  40.4555160  28.6415530  43.9568370  43.9906510  32.1740310
  44.2821780  43.1570260  31.8342540  44.7448700  44.5135030  32.3218640
  40.6903160  38.0237990  18.2215370  40.0657340  38.0197860  18.9468680
  40.6033280  37.1568950  17.8251340  39.6120240  38.9474620  25.1999140
  39.9092570  39.8537450  25.1191160  40.1605800  38.4593400  24.5858710
  37.3658560  43.5260860  21.0690790  37.1399480  43.3098030  21.9737410
  36.5851090  43.9589320  20.7236760  44.5956320  43.5324230  19.6681440
  43.9965210  44.2560030  19.4845060  45.1435930  43.4701010  18.8857890
  39.8057770  44.4246440  31.7351060  39.7101370  43.4841170  31.5851460
  40.6489750  44.6461510  31.3399130  43.2021190  42.1687770  21.6984720
  43.5950760  42.4859970  20.8853410  43.5638040  41.2899650  21.8129240
  32.2385360  38.7588570  23.9214920  31.9498410  39.3291430  24.6339900
  32.9831120  38.2793020  24.2846150  32.4255590  42.7008690  15.1317640
  32.3430260  43.6439450  15.2732630  32.0738650  42.5583600  14.2529990
  43.7876330  44.7593520  25.7935500  43.0557450  45.2680330  26.1425600
  43.3900670  43.9423500  25.4924280  40.2253720  41.4347720  24.1987990
  40.2289780  40.9937670  23.3492530  41.1204840  41.7565050  24.3059810
  36.0756100  41.3174210  23.1582200  35.7356150  41.7949440  23.9149250
  35.3133420  40.8639330  22.7983300  40.2873870  42.4359800  17.1894750
  40.4086690  42.3946280  18.1380570  39.9022380  43.2983950  17.0341480
  44.2502240  40.2127200  25.2058440  44.2674980  40.6635850  26.0500290
  44.0017820  39.3132840  25.4191880  39.2995370  44.7460940  16.5878050
  38.7312270  44.2979190  15.9613960  40.0084370  45.1053720  16.0543200
  34.3764550  48.6472960  30.4644780  33.9919340  48.0066630  31.0627740
  34.6876740  49.3509080  31.0339510  40.5261690  45.4949500  25.9453400
  40.8931820  45.0208070  26.6914740  40.3366750  46.3691070  26.2861740
  33.3902180  40.2393190  22.0746870  33.1049100  39.8748860  22.9125490
  33.3281040  39.5073650  21.4610010  38.3161060  44.5358140  28.2637610
  38.0118130  45.4150120  28.4887970  39.2707520  44.5957930  28.2995050
  36.8442850  48.7419130  18.8604460  36.0705110  48.2016750  18.7003180
  37.5737480  48.2225740  18.5222220  47.6030830  47.7384490  24.6530850
  48.3229950  48.2339780  24.2626960  47.4012650  47.0602380  24.0084720
  43.0640770  39.1322450  18.7960240  42.2505380  38.6335620  18.7205550
  42.8702720  39.9720700  18.3796590  42.9849630  47.8093550  30.5399850
  42.9186940  46.8889220  30.2857440  42.3554770  47.9068990  31.2544490
  45.7789160  43.5042100  17.0922400  46.6668780  43.8159330  16.9173740
  45.7494250  42.6314350  16.7002980  36.8880250  48.4099510  22.4983270
  37.4058920  47.6067770  22.4440160  36.4364270  48.3478650  23.3400100
  41.7749750  49.6765790  17.7710570  42.1165450  50.4208020  17.2753890
  40.9462460  49.9896910  18.1335400  34.3724790  45.3760880  29.4108970
  34.0139730  46.0414730  29.9982310  34.0779350  44.5444430  29.7821590
  37.5737910  45.8345120  32.2948520  37.2738050  45.9802300  31.3976340
  38.3449150  45.2750410  32.2021910  42.9166360  50.6314120  30.2903650
  42.9310900  49.6995080  30.0722560  42.2091460  50.7173880  30.9293420
  48.0503430  44.8153940  16.5602260  47.9667150  45.2468160  15.7098700
  48.7697620  45.2752290  16.9929080  44.6577160  48.9981630  23.1356080
  45.0100980  48.4009760  22.4757450  43.7739490  48.6725860  23.3064330
  40.7440440  49.7579320  20.5426490  41.4311570  50.3048530  20.9234080
  39.9572860  50.3020050  20.5776100  32.8832840  45.3752140  16.0343570
  33.7527690  45.6576940  16.3179490  32.3923160  46.1888010  15.9192380
  40.0467650  46.7625350  20.1551850  40.5030430  47.5730600  20.3812040
  39.6955860  46.4448490  20.9870340  42.3500260  52.2731690  27.3844150
  42.9942480  52.4791070  28.0617570  42.7129700  51.5120090  26.9315000
  35.9479430  37.1063000  20.6274370  35.8194060  37.0980900  21.5759290
  35.1241450  37.4446090  20.2765380  43.6232340  50.2764040  26.1021600
  44.2654570  49.5757200  26.2153770  44.1481690  51.0562480  25.9218490
  47.4688060  50.5612660  15.8260740  47.2425640  49.8443100  16.4185380
  47.0784260  50.3125100  14.9882490  45.3969960  51.0758940  29.3057660
  45.7326200  51.6625630  29.9835580  44.4770300  50.9451650  29.5355450
  33.2504090  54.5879520  16.6005200  33.6101730  55.1868860  15.9462470
  33.1096430  55.1339410  17.3740230  47.0504310  48.4784600  17.4874900
  46.7626010  48.9397290  18.2752780  47.8456480  48.0182370  17.7559120
  33.2345950  52.8534380  31.0747600  33.3437070  51.9129120  30.9342990
  32.5826510  53.1189130  30.4261330  41.2258540  51.1250270  32.4745720
  40.9055410  50.4059510  33.0191410  40.5516900  51.8005340  32.5481780
  39.2672710  51.9710720  17.4178870  39.2582810  52.7040410  16.8023380
  38.3471070  51.7242300  17.5105830  34.8679350  47.1925610  18.1625630
  34.2607300  47.9324510  18.1720930  35.3428700  47.2824970  17.3363830
  44.4412140  41.3576430  27.8382520  44.8092960  40.5371640  28.1662090
  43.5810340  41.4178320  28.2538170  47.8074170  40.3133370  18.6470080
  47.1787330  40.4179040  17.9328310  47.3126090  40.5330150  19.4363960
  42.2532310  52.0338960  16.0804060  42.3544290  51.8302950  15.1506040
  41.3534050  51.7797240  16.2851840  39.7758200  42.5919320  20.0627960
  39.0674350  43.0605660  20.5041570  40.0602680  41.9341330  20.6973150
  41.4014130  44.0116020  28.0620490  41.8999380  44.4861840  28.7272340
  41.5437080  43.0879540  28.2690520  43.8073630  39.3169980  21.5023750
  43.6841410  39.3356110  20.5533260  44.7558190  39.3648920  21.6222150
  40.8950420  54.5525280  20.7751730  41.1491920  54.5146670  19.8531100
  39.9462900  54.4258610  20.7679980  37.9793220  40.9004400  17.4378670
  38.8283750  41.3374550  17.3718860  37.6124490  41.2124660  18.2650730
  46.9003000  45.4717160  22.3510240  45.9593140  45.4867390  22.5257930
  47.2147070  44.6853120  22.7970540  36.8784640  47.1536760  15.9114200
  37.6447910  47.0418120  16.4739630  36.9559330  46.4574730  15.2590970
  35.5731400  44.5861830  16.5947090  35.6534990  43.6389340  16.7064490
  36.4651150  44.9168710  16.7007750  48.9028580  52.6426010  24.0264500
  49.0276000  53.4657180  24.4988310  49.7694140  52.4316740  23.6788650
  36.3746110  54.7357220  23.6981630  37.1108590  54.1872680  23.9690200
  36.7587030  55.6013230  23.5587620  33.2591590  50.8030790  19.5723140
  32.3331370  51.0451930  19.5628550  33.7248020  51.6305050  19.4507890
  35.3804390  53.9203290  32.8867210  36.1817120  54.2415340  33.3002610
  34.8656210  53.5598870  33.6087120  39.4848420  53.9087530  15.5207200
  40.2777030  54.1976360  15.0688990  38.9652770  53.4779700  14.8419680
  44.2169020  50.0283160  32.8342620  43.6107180  50.0514760  32.0938370
  43.9123130  49.2966200  33.3709870  45.6469390  53.7563450  31.4452030
  46.5991140  53.6721470  31.3952270  45.4997610  54.4205160  32.1185820
  48.5378590  53.1357660  16.9443940  48.2520100  52.7222800  16.1298120
  48.3398140  54.0645370  16.8244460  33.1002200  46.4076750  31.8303260
  33.6041220  45.8284030  32.4019490  32.3609620  46.6916980  32.3679630
  40.0025820  49.1290940  15.3849550  39.8976460  48.5143290  16.1110930
  39.8350040  48.6056830  14.6012560  40.1540140  47.8147740  31.3638780
  39.3885810  48.3832740  31.2793450  40.3356100  47.5223950  30.4707010
  43.2428550  48.1910970  15.9891540  42.6938650  48.6380270  16.6334280
  43.8647810  47.6860220  16.5129210  47.2963490  49.5453070  31.9213800
  48.0372960  49.8828830  31.4181260  46.5336170  49.7145130  31.3683570
  38.9103670  47.1501890  17.8856840  39.3320090  46.9841760  18.7288230
  39.0354510  46.3402120  17.3911980  37.0731090  43.1298440  30.6927820
  36.5427550  42.6389390  30.0651160  37.7419160  43.5582640  30.1585750
  41.4231310  46.1739500  15.1333940  41.9436970  45.4588520  14.7675090
  42.0699710  46.8125370  15.4334450  45.9709150  47.5967900  30.4569010
  46.3850170  47.7512980  31.3059430  45.0360150  47.7223120  30.6194790
  46.4431320  44.9364060  32.4608160  47.0252090  44.1816380  32.3728640
  46.6193090  45.4671500  31.6839640  40.3264830  38.6534050  27.8052500
  39.8782130  38.6758310  26.9598050  39.6930030  38.2553070  28.4022800
  40.7324380  47.5488380  28.4264940  41.1512490  48.3921110  28.2541180
  39.8133010  47.6860420  28.1971720  43.0688280  45.2804560  29.8102780
  43.1884490  44.6845700  30.5497620  43.9282280  45.3174250  29.3904080
  45.4076180  45.8341750  28.3865290  44.8811400  46.3584370  27.7830430
  45.7507520  46.4669140  29.0175020  37.8062570  43.2235120  14.8315000
  37.6051630  42.3602480  15.1928340  37.6354620  43.1368480  13.8936600
  38.5831800  53.8541390  29.5422670  38.0452890  54.5787450  29.2231370
  38.8365760  53.3771730  28.7520010  44.6550480  41.4391720  31.3011620
  43.9666000  40.7773260  31.2361610  45.3756500  40.9929990  31.7460080
  45.2850880  38.0343350  17.3601880  45.5653170  37.1911250  17.7161300
  44.5116610  38.2666460  17.8740630  36.6045370  40.3235740  14.8192880
  36.9071270  40.3303170  13.9112030  37.3439960  39.9733600  15.3160540
  41.4394010  55.0892600  29.8009320  41.3652710  55.9927740  30.1081690
  40.5372850  54.7704500  29.7731390  39.8230300  39.2670360  15.8049080
  39.4752300  38.5894350  15.2251530  40.0243070  38.8059870  16.6192470
  41.9879340  54.2551110  17.4235680  42.8830130  54.5936080  17.4454440
  42.0196970  53.5330520  16.7959960  35.6275500  49.6278160  15.6522680
  36.0650370  50.1707830  16.3080260  36.1123230  48.8025110  15.6619020
  32.8421300  52.4167190  23.1042940  33.1724310  51.5488250  22.8721580
  33.2712300  52.6225710  23.9347900  37.4383220  50.7476200  20.7644910
  37.1378760  50.6241170  21.6648820  37.3320710  49.8884790  20.3560640
  33.3311510  53.2837780  25.8424570  32.8942500  53.4638580  26.6748720
  33.8989190  54.0412400  25.7006290  48.9673690  52.7854780  30.1301880
  48.3675680  52.8447340  29.3865800  49.0967590  51.8459760  30.2598730
  50.2075140  50.5272600  15.4671590  49.3768100  50.5949250  15.9378820
  50.3846970  51.4176720  15.1638450  49.6631600  47.2720080  17.9705790
  50.4250510  47.8416730  18.0765480  49.6785970  46.7047280  18.7414100
  33.1635940  45.7958010  22.2013450  32.5084780  45.5269650  21.5573150
  34.0013890  45.6862490  21.7515430  50.6691570  48.1270180  22.8147720
  51.0400400  47.3437500  22.4083690  51.3093500  48.8159280  22.6365020
  49.7150770  47.5654450  15.1278310  49.9899610  48.4733330  14.9997530
  49.5261510  47.5016980  16.0640300  46.1126380  40.5899300  16.4231940
  46.5311260  40.4030280  15.5828600  45.8062440  39.7378350  16.7334870
  49.6116110  45.5023440  20.1207740  49.2359710  44.7351370  19.6889030
  48.8819230  45.8846140  20.6082670  34.2011870  46.1810580  26.7416790
  34.5684910  46.0937980  27.6212810  33.6322690  45.4177130  26.6423650
  32.3774020  43.0056940  18.1438780  31.4738100  43.2687140  17.9690440
  32.8614640  43.2768110  17.3638740  48.8867070  43.7280930  23.4214980
  49.4104550  43.2343580  22.7905150  49.4726490  43.8631290  24.1662550
  34.9201230  42.0622480  16.0533160  35.6292930  41.6405700  15.5680440
  34.2041170  42.1297710  15.4216510  34.5675390  38.1161810  15.0935810
  35.2903520  38.6570750  15.4117030  34.8399910  37.8425230  14.2177350
  48.3767040  42.9854280  19.3607390  48.8726160  42.7525150  20.1456270
  48.1783110  42.1466120  18.9445030  34.2567580  37.3668000  24.9958430
  34.9043770  36.8165380  24.5553590  34.6769420  37.6211150  25.8174240
  49.8054200  41.6215230  21.8945070  49.6953480  41.4671270  22.8327340
  50.5661790  41.0936170  21.6520480  34.0099580  37.5223670  27.7383750
  33.6614400  37.9787490  28.5041930  33.6787280  36.6280800  27.8206180
  35.6163950  50.6943270  31.9036940  35.5733580  50.3236180  32.7851400
  35.7474960  51.6320840  32.0438760  39.3169980  52.2502860  27.5046660
  39.0761340  52.5177420  26.6177180  40.2572620  52.4208590  27.5597520
  44.1598960  38.3705610  30.8995460  44.7739370  38.6884900  30.2376540
  44.7048520  37.8854200  31.5191320  50.5774140  54.2697240  28.3057300
  50.0832420  54.6666110  27.5884430  49.9687430  53.6446450  28.6994580
  35.4551980  53.6405520  29.0234720  34.8612300  53.5090220  29.7624760
  35.4475820  52.8043660  28.5576820  44.9007000  36.9337750  27.2264750
  44.0266840  37.2672860  27.0237680  44.7917750  36.4610930  28.0516620
  48.2613590  54.9120660  25.5844040  47.8016560  55.6636470  25.2102060
  47.6326050  54.1927130  25.5258840  35.0864210  51.0063900  27.9742760
  34.3598270  50.3869190  27.9068710  35.1473360  51.4004510  27.1040840
  38.6909310  53.2208900  24.7592170  39.2074330  52.6096260  24.2340430
  39.3406690  53.7237680  25.2503180  41.4304810  54.1117390  25.5861150
  41.7182620  53.8571690  24.7094160  41.9428030  53.5594750  26.1766720
  47.2002890  38.5530690  24.2106750  47.6410980  38.4975790  23.3628350
  46.9310480  39.4688700  24.2816930  49.0641460  38.1845930  22.2215570
  49.0029860  37.2407150  22.0746590  49.8433490  38.2926020  22.7669030
  33.3694210  54.3238290  21.1839520  33.2016250  53.6908970  21.8821410
  32.5028720  54.5297690  20.8333710  33.9922230  38.1555070  18.6871380
  34.7501590  38.2683950  18.1135410  33.5299400  38.9924270  18.6414810
  40.5336040  40.2694340  21.6773690  39.7210550  39.8951230  21.3369570
  41.0377680  39.5139420  21.9794880  48.1795620  37.3358350  18.1897040
  48.3746250  38.2341800  18.4564470  47.3925490  37.1045430  18.6829990
  34.9756910  53.0171520  18.6289660  34.4504530  53.3979550  17.9251620
  34.9001490  53.6422290  19.3499370  36.3647380  38.6819120  17.2273350
  36.8940140  37.8948920  17.0981300  36.9975700  39.3610310  17.4608880
  38.5585220  38.4194260  20.2818740  37.9287960  37.7181570  20.4488870
  38.0190360  39.1798390  20.0651900  41.4977170  55.0333490  32.9529350
  42.4244480  54.7977760  32.9965310  41.4827600  55.8605490  32.4715380
  37.5749880  54.9653900  17.5038910  38.3068700  54.6813180  16.9562800
  37.8343550  54.7267180  18.3938290  36.7364670  51.0818630  17.5085240
  36.1073550  51.5503730  18.0571070  36.8512500  50.2367850  17.9431430
  45.2856240  37.1131820  33.2951700  45.1721690  37.4326430  34.1903220
  46.1025980  37.5144330  32.9988980  48.0654730  54.2603350  32.7770390
  48.8580050  53.7652580  32.5696350  48.3587880  54.9393490  33.3846000
  44.1914390  45.1324290   3.6586440  44.1108440  44.2178900   3.3878150
  43.7778810  45.6291360   2.9526150  42.3232430  46.9103310   5.5395710
  41.5474530  46.4303750   5.8294280  42.9745360  46.2308960   5.3651870
  36.3398260  47.2223120   6.4171470  35.5083140  46.9671830   6.8167980
  36.9479240  47.2933890   7.1529390  46.3439860  51.3163500   4.3194840
  45.8821390  50.5450740   4.6482010  47.1565410  51.3429570   4.8247290
  36.3199520  51.2563210   6.6129490  36.6227560  50.3660950   6.4339710
  37.0643110  51.8133430   6.3851740  32.7123220  44.7830660   6.0853560
  33.2839330  44.0152860   6.0857200  32.7124760  45.0819420   5.1760170
  42.5703170  53.6021510   3.9398830  41.9514610  54.0579010   3.3693270
  43.4254950  53.7572970   3.5388530  41.7641420  49.5860500   5.5465870
  41.6949700  48.6450440   5.3855000  42.5261280  49.6761910   6.1188440
  33.9548090  40.1915020   7.8722490  33.7750930  39.2940770   8.1525250
  33.5528170  40.7386890   8.5469440  42.7946590  42.3930880   5.7734800
  43.1711410  41.5202760   5.6608470  42.6966100  42.7289580   4.8825240
  46.5770710  39.8881320   2.7063140  47.3980330  39.3977890   2.7488620
  46.6104790  40.4778980   3.4594980  34.5734760  42.6875520   6.4804830
  35.2544870  42.9513890   7.0992230  34.2582810  41.8476390   6.8142840
  38.7659330  43.7342880   5.5677420  39.2737550  44.2323850   6.2082440
  39.2972570  42.9578080   5.3916780  50.8670260  41.9048070   9.2706770
  50.1622430  42.2929780   8.7521880  51.1328180  42.5998360   9.8727700
  37.0495430  38.3741440   9.8340840  37.0513870  38.8913830   9.0286740
  36.2199740  37.8971620   9.8110770  38.2998280  48.0136620   8.0114340
  37.9667660  48.6405540   8.6535410  38.4764960  48.5398500   7.2316010
  46.8132190  41.8281700   5.4790680  46.1087760  42.1166590   6.0593790
  47.1744350  42.6381810   5.1190240  36.7310760  40.0851400   7.8411290
  37.0727570  40.9293450   7.5465160  35.7926570  40.2335140   7.9576630
  37.5117380  49.9817420   9.8263520  38.1291380  50.6568500   9.5447970
  36.6510500  50.3905400   9.7351020  48.4294970  51.4456830   7.7418160
  47.7458490  52.1155940   7.7334830  48.9689260  51.6437480   6.9763020
  49.8819110  41.2736490   5.8699890  48.9344020  41.3075470   6.0015320
  50.2069100  42.0875440   6.2549250  40.4138650  37.5733670   4.1655880
  40.7213630  37.0180560   3.4491380  39.4839350  37.7078130   3.9828870
  45.9653710  53.2900960   6.4563340  45.9780870  52.8863250   5.5885600
  45.4128930  54.0648250   6.3524770  45.3639150  48.1930800   7.7845950
  45.7807940  47.9790910   6.9499410  46.0878970  48.4503590   8.3554570
  49.3101250  46.5918020   7.8762190  48.4819880  46.6611110   7.4012320
  49.9051730  47.1772330   7.4078020  46.2743260  43.3787340   8.8217060
  45.8614440  44.2041050   9.0757050  45.5419210  42.7932380   8.6293420
  38.4076050  46.1647240   3.6835730  38.0033050  45.4524490   3.1881630
  38.4939170  45.8200480   4.5723770  38.8757750  49.8514800   5.8474940
  38.5786040  49.2460270   5.1682720  39.8257570  49.8892110   5.7364300
  37.1204670  42.9390450   7.4634770  37.6719260  43.0485790   6.6888020
  37.6348180  43.3128050   8.1790000  46.9643360  53.4246670   9.5098040
  46.4873920  54.2318860   9.3170650  46.2805150  52.7725000   9.6624250
  37.9676180  49.5896490  12.4982740  37.0704710  49.8136460  12.7456140
  37.9929050  49.7131430  11.5494140  36.7947400  46.4609810  11.0740110
  36.6555170  47.3332610  11.4427510  35.9128760  46.1182620  10.9288050
  43.1176780  51.3785680   2.3805240  43.5572690  52.1210010   1.9660630
  43.0563670  51.6212250   3.3044200  38.5927750  52.4031510  13.2825260
  38.5643180  52.8074460  12.4153690  38.4292720  51.4741870  13.1196860
  50.5442570  53.1858610  14.5789430  51.0202290  53.6641500  15.2578510
  51.1649730  53.1176100  13.8534930  32.7466050  48.2307360   6.9911020
  32.8246470  48.3656130   6.0466740  33.3607730  47.5223250   7.1839140
  33.9913680  49.9307550   3.4017200  33.5841760  50.0722140   2.5470800
  34.8826690  49.6467710   3.1988410  49.9475820  50.3771460  11.7389440
  50.0738880  50.1383340  10.8206620  49.9897200  49.5456000  12.2111520
  43.8092560  54.0799460  10.3084250  44.3237230  53.9907470  11.1106680
  42.9661640  54.4259160  10.6012160  45.0523020  53.5005070   2.3714740
  45.5079970  52.7194450   2.6853360  45.3915540  54.2111890   2.9155920
  49.7999830  42.4303920  12.7039180  49.1844100  42.9383590  12.1754640
  49.4796250  41.5302250  12.6465120  32.8025570  49.2721530   9.5305480
  32.9656610  48.8026890   8.7124850  33.2678020  48.7645090  10.1954320
  37.5744340  38.4027290   4.5666050  37.1312490  39.1836830   4.2350570
  38.1329330  38.7257180   5.2736990  41.8614150  41.2695810  10.1701370
  41.3993520  41.4778830  10.9821310  41.4592260  40.4555160   9.8672040
  46.8618660  42.4904760  11.2998030  46.0112250  42.1910510  11.6207100
  46.7020450  42.7346770  10.3881850  43.9568370  43.9906510  13.3996820
  44.2821780  43.1570260  13.0599050  44.7448700  44.5135030  13.5475150
  39.6120240  38.9474620   6.4255650  39.9092570  39.8537450   6.3447670
  40.1605800  38.4593400   5.8115220  37.3658560  43.5260860   2.2947300
  37.1399480  43.3098030   3.1993920  36.5851090  43.9589320   1.9493270
  39.8057770  44.4246440  12.9607570  39.7101370  43.4841170  12.8107970
  40.6489750  44.6461510  12.5655640  43.2021190  42.1687770   2.9241230
  43.5950760  42.4859970   2.1109920  43.5638040  41.2899650   3.0385750
  34.9368310  40.8360110  11.1141350  34.5431700  41.6835320  11.3214130
  34.2486710  40.1986480  11.3049990  41.5113360  40.9195080  14.1838090
  40.8211680  40.7267280  14.8184180  42.2545660  41.2029720  14.7162390
  32.2385360  38.7588570   5.1471430  31.9498410  39.3291430   5.8596410
  32.9831120  38.2793020   5.5102660  43.7876330  44.7593520   7.0192010
  43.0557450  45.2680330   7.3682110  43.3900670  43.9423500   6.7180790
  40.2253720  41.4347720   5.4244500  40.2289780  40.9937670   4.5749040
  41.1204840  41.7565050   5.5316320  36.0756100  41.3174210   4.3838710
  35.7356150  41.7949440   5.1405760  35.3133420  40.8639330   4.0239810
  44.2502240  40.2127200   6.4314950  44.2674980  40.6635850   7.2756800
  44.0017820  39.3132840   6.6448390  47.6772990  37.6259380  12.2701330
  48.0018760  36.8949040  12.7959310  47.7129500  37.3073020  11.3682320
  34.3764550  48.6472960  11.6901290  33.9919340  48.0066630  12.2884250
  34.6876740  49.3509080  12.2596020  40.5261690  45.4949500   7.1709910
  40.8931820  45.0208070   7.9171250  40.3366750  46.3691070   7.5118250
  33.3902180  40.2393190   3.3003380  33.1049100  39.8748860   4.1382000
  33.3281040  39.5073650   2.6866520  38.3161060  44.5358140   9.4894120
  38.0118130  45.4150120   9.7144480  39.2707520  44.5957930   9.5251560
  47.6030830  47.7384490   5.8787360  48.3229950  48.2339780   5.4883470
  47.4012650  47.0602380   5.2341230  42.9849630  47.8093550  11.7656360
  42.9186940  46.8889220  11.5113950  42.3554770  47.9068990  12.4801000
  36.8880250  48.4099510   3.7239780  37.4058920  47.6067770   3.6696670
  36.4364270  48.3478650   4.5656610  34.3724790  45.3760880  10.6365480
  34.0139730  46.0414730  11.2238820  34.0779350  44.5444430  11.0078100
  37.5737910  45.8345120  13.5205030  37.2738050  45.9802300  12.6232850
  38.3449150  45.2750410  13.4278420  42.9166360  50.6314120  11.5160160
  42.9310900  49.6995080  11.2979070  42.2091460  50.7173880  12.1549930
  49.1277570  47.2721460  10.8628740  48.4025760  47.8650240  10.6658130
  49.6553030  47.2645000  10.0642110  44.6577160  48.9981630   4.3612590
  45.0100980  48.4009760   3.7013960  43.7739490  48.6725860   4.5320840
  40.7440440  49.7579320   1.7683000  41.4311570  50.3048530   2.1490590
  39.9572860  50.3020050   1.8032610  42.3500260  52.2731690   8.6100660
  42.9942480  52.4791070   9.2874080  42.7129700  51.5120090   8.1571510
  43.6232340  50.2764040   7.3278110  44.2654570  49.5757200   7.4410280
  44.1481690  51.0562480   7.1475000  45.3969960  51.0758940  10.5314170
  45.7326200  51.6625630  11.2092090  44.4770300  50.9451650  10.7611960
  32.9473360  38.8654120  11.3137580  32.2331880  39.0651040  11.9190190
  33.3668400  38.0893690  11.6852380  33.2345950  52.8534380  12.3004110
  33.3437070  51.9129120  12.1599500  32.5826510  53.1189130  11.6517840
  41.2258540  51.1250270  13.7002230  40.9055410  50.4059510  14.2447920
  40.5516900  51.8005340  13.7738290  44.4412140  41.3576430   9.0639030
  44.8092960  40.5371640   9.3918600  43.5810340  41.4178320   9.4794680
  41.4014130  44.0116020   9.2877000  41.8999380  44.4861840   9.9528850
  41.5437080  43.0879540   9.4947030  43.8073630  39.3169980   2.7280260
  43.6841410  39.3356110   1.7789770  44.7558190  39.3648920   2.8478660
  48.6080990  40.2283980  10.1305390  48.1054590  40.9689380  10.4699200
  49.4237650  40.6167980   9.8142180  46.9003000  45.4717160   3.5766750
  45.9593140  45.4867390   3.7514440  47.2147070  44.6853120   4.0227050
  48.9028580  52.6426010   5.2521010  49.0276000  53.4657180   5.7244820
  49.7694140  52.4316740   4.9045160  36.3746110  54.7357220   4.9238140
  37.1108590  54.1872680   5.1946710  36.7587030  55.6013230   4.7844130
  35.3804390  53.9203290  14.1123720  36.1817120  54.2415340  14.5259120
  34.8656210  53.5598870  14.8343630  44.2169020  50.0283160  14.0599130
  43.6107180  50.0514760  13.3194880  43.9123130  49.2966200  14.5966380
  45.6469390  53.7563450  12.6708540  46.5991140  53.6721470  12.6208780
  45.4997610  54.4205160  13.3442330  33.1002200  46.4076750  13.0559770
  33.6041220  45.8284030  13.6276000  32.3609620  46.6916980  13.5936140
  40.1540140  47.8147740  12.5895290  39.3885810  48.3832740  12.5049960
  40.3356100  47.5223950  11.6963520  47.2963490  49.5453070  13.1470310
  48.0372960  49.8828830  12.6437770  46.5336170  49.7145130  12.5940080
  35.1325280  44.5506340  13.9509840  35.1730620  44.2520210  14.8595070
  35.9870780  44.9513950  13.7917360  37.0731090  43.1298440  11.9184330
  36.5427550  42.6389390  11.2907670  37.7419160  43.5582640  11.3842260
  45.9709150  47.5967900  11.6825520  46.3850170  47.7512980  12.5315940
  45.0360150  47.7223120  11.8451300  46.4431320  44.9364060  13.6864670
  47.0252090  44.1816380  13.5985150  46.6193090  45.4671500  12.9096150
  37.5603390  40.0960810  11.9981620  37.4660260  39.4781560  11.2732490
  36.9800780  40.8227100  11.7711530  40.3264830  38.6534050   9.0309010
  39.8782130  38.6758310   8.1854560  39.6930030  38.2553070   9.6279310
  40.7324380  47.5488380   9.6521450  41.1512490  48.3921110   9.4797690
  39.8133010  47.6860420   9.4228230  43.0688280  45.2804560  11.0359290
  43.1884490  44.6845700  11.7754130  43.9282280  45.3174250  10.6160590
  45.4076180  45.8341750   9.6121800  44.8811400  46.3584370   9.0086940
  45.7507520  46.4669140  10.2431530  38.5831800  53.8541390  10.7679180
  38.0452890  54.5787450  10.4487880  38.8365760  53.3771730   9.9776520
  39.8357050  41.8225910  12.2935110  40.4256740  41.5141760  12.9812930
  39.0177290  41.3505660  12.4495010  44.6550480  41.4391720  12.5268130
  43.9666000  40.7773260  12.4618120  45.3756500  40.9929990  12.9716590
  41.4394010  55.0892600  11.0265830  41.3652710  55.9927740  11.3338200
  40.5372850  54.7704500  10.9987900  32.8421300  52.4167190   4.3299450
  33.1724310  51.5488250   4.0978090  33.2712300  52.6225710   5.1604410
  33.3311510  53.2837780   7.0681080  32.8942500  53.4638580   7.9005230
  33.8989190  54.0412400   6.9262800  48.9673690  52.7854780  11.3558390
  48.3675680  52.8447340  10.6122310  49.0967590  51.8459760  11.4855240
  33.1635940  45.7958010   3.4269960  32.5084780  45.5269650   2.7829660
  34.0013890  45.6862490   2.9771940  50.6691570  48.1270180   4.0404230
  51.0400400  47.3437500   3.6340200  51.3093500  48.8159280   3.8621530
  47.6525330  49.5106760   9.4534550  46.8385170  49.9403920   9.7160340
  48.0599530  50.1225170   8.8403600  34.2011870  46.1810580   7.9673300
  34.5684910  46.0937980   8.8469320  33.6322690  45.4177130   7.8680160
  49.0015730  44.6494960  10.9803770  48.7701820  44.4207710  10.0801720
  49.2620280  45.5694510  10.9348660  33.7527870  43.0919670  11.8731720
  32.8583920  43.0586430  12.2125430  34.2925420  43.2906460  12.6382970
  48.8867070  43.7280930   4.6471490  49.4104550  43.2343580   4.0161660
  49.4726490  43.8631290   5.3919060  49.0656790  43.8120800   8.1691040
  48.1159500  43.7784340   8.2836030  49.2469800  44.7220910   7.9340810
  34.2567580  37.3668000   6.2214940  34.9043770  36.8165380   5.7810100
  34.6769420  37.6211150   7.0430750  49.8054200  41.6215230   3.1201580
  49.6953480  41.4671270   4.0583850  50.5661790  41.0936170   2.8776990
  48.1519920  37.5609360   9.5784580  48.7892140  38.1743500   9.9443770
  48.2994810  37.5970020   8.6333810  47.7101380  54.2625360   2.9802820
  48.3060450  53.9409930   2.3037240  47.9679530  53.7897180   3.7716090
  34.0099580  37.5223670   8.9640260  33.6614400  37.9787490   9.7298440
  33.6787280  36.6280800   9.0462690  35.6163950  50.6943270  13.1293450
  35.5733580  50.3236180  14.0107910  35.7474960  51.6320840  13.2695270
  39.3169980  52.2502860   8.7303170  39.0761340  52.5177420   7.8433690
  40.2572620  52.4208590   8.7854030  41.5224400  38.7135550  12.4859680
  41.4613290  39.3057380  13.2355090  42.4624780  38.6061510  12.3409940
  44.1598960  38.3705610  12.1251970  44.7739370  38.6884900  11.4633050
  44.7048520  37.8854200  12.7447830  50.5774140  54.2697240   9.5313810
  50.0832420  54.6666110   8.8140940  49.9687430  53.6446450   9.9251090
  34.6820220  37.0499870  12.2391030  35.2303210  36.8687920  11.4757140
  34.7475530  36.2593980  12.7747340  35.4551980  53.6405520  10.2491230
  34.8612300  53.5090220  10.9881270  35.4475820  52.8043660   9.7833330
  44.9007000  36.9337750   8.4521260  44.0266840  37.2672860   8.2494190
  44.7917750  36.4610930   9.2773130  45.8078980  39.1408620   9.8362980
  45.4792340  38.3260380   9.4564710  46.7561280  39.0978430   9.7128670
  48.2613590  54.9120660   6.8100550  47.8016560  55.6636470   6.4358570
  47.6326050  54.1927130   6.7515350  35.0864210  51.0063900   9.1999270
  34.3598270  50.3869190   9.1325220  35.1473360  51.4004510   8.3297350
  38.6909310  53.2208900   5.9848680  39.2074330  52.6096260   5.4596940
  39.3406690  53.7237680   6.4759690  41.4304810  54.1117390   6.8117660
  41.7182620  53.8571690   5.9350670  41.9428030  53.5594750   7.4023230
  42.6481820  37.8507590   7.3914170  41.8653610  38.3253090   7.6710930
  42.3544750  36.9462420   7.2827350  47.2002890  38.5530690   5.4363260
  47.6410980  38.4975790   4.5884860  46.9310480  39.4688700   5.5073440
  49.0641460  38.1845930   3.4472080  49.0029860  37.2407150   3.3003100
  49.8433490  38.2926020   3.9925540  33.3694210  54.3238290   2.4096030
  33.2016250  53.6908970   3.1077920  32.5028720  54.5297690   2.0590220
  40.5336040  40.2694340   2.9030200  39.7210550  39.8951230   2.5626080
  41.0377680  39.5139420   3.2051390  45.0361020  36.9336790   4.1413270
  45.6390390  37.5057000   4.6161790  44.2954010  37.4976230   3.9187170
  41.4977170  55.0333490  14.1785860  42.4244480  54.7977760  14.2221820
  41.4827600  55.8605490  13.6971890  38.6840780  37.6978240  13.9427740
  38.4025050  38.2011840  13.1788560  39.0660480  36.8999990  13.5769870
  45.2856240  37.1131820  14.5208210  45.1721690  37.4326430  15.4159730
  46.1025980  37.5144330  14.2245490  48.0654730  54.2603350  14.0026900
  48.8580050  53.7652580  13.7952860  48.3587880  54.9393490  14.6102510
  44.1914390  26.3580800  59.9816910  44.1108440  25.4435410  59.7108620
  43.7778810  26.8547870  59.2756620  42.3232430  28.1359820  61.8626180
  41.5474530  27.6560260  62.1524750  42.9745360  27.4565470  61.6882340
  36.3398260  28.4479630  62.7401940  35.5083140  28.1928340  63.1398450
  36.9479240  28.5190400  63.4759860  46.3439860  32.5420010  60.6425310
  45.8821390  31.7707250  60.9712480  47.1565410  32.5686080  61.1477760
  36.3199520  32.4819720  62.9359960  36.6227560  31.5917460  62.7570180
  37.0643110  33.0389940  62.7082210  34.7490210  23.4081520  56.5244330
  33.8606910  23.7497490  56.4224210  35.0331400  23.2081840  55.6325160
  32.7123220  26.0087170  62.4084030  33.2839330  25.2409370  62.4087670
  32.7124760  26.3075930  61.4990640  42.5703170  34.8278020  60.2629300
  41.9514610  35.2835520  59.6923740  43.4254950  34.9829480  59.8619000
  41.7641420  30.8117010  61.8696340  41.6949700  29.8706950  61.7085470
  42.5261280  30.9018420  62.4418910  33.9548090  21.4171530  64.1952960
  33.7750930  20.5197280  64.4755720  33.5528170  21.9643400  64.8699910
  42.7946590  23.6187390  62.0965270  43.1711410  22.7459270  61.9838940
  42.6966100  23.9546090  61.2055710  36.9251600  21.9913020  57.5582710
  37.0318350  22.8916750  57.8651470  36.0143960  21.9430990  57.2677360
  46.5770710  21.1137830  59.0293610  47.3980330  20.6234400  59.0719090
  46.6104790  21.7035490  59.7825450  34.5734760  23.9132030  62.8035300
  35.2544870  24.1770400  63.4222700  34.2582810  23.0732900  63.1373310
  38.7659330  24.9599390  61.8907890  39.2737550  25.4580360  62.5312910
  39.2972570  24.1834590  61.7147250  43.4366520  29.7117260  57.6561210
  42.8183790  30.1766710  57.0923930  43.9489770  30.4044740  58.0730720
  38.2998280  29.2393130  64.3344810  37.9667660  29.8662050  64.9765880
  38.4764960  29.7655010  63.5546480  46.8132190  23.0538210  61.8021150
  46.1087760  23.3423100  62.3824260  47.1744350  23.8638320  61.4420710
  36.7310760  21.3107910  64.1641760  37.0727570  22.1549960  63.8695630
  35.7926570  21.4591650  64.2807100  32.8049720  30.3973790  55.0300840
  32.4277700  30.8860890  54.2985740  33.0622790  31.0699070  55.6607370
  48.4294970  32.6713340  64.0648630  47.7458490  33.3412450  64.0565300
  48.9689260  32.8693990  63.2993490  49.8819110  22.4993000  62.1930360
  48.9344020  22.5331980  62.3245790  50.2069100  23.3131950  62.5779720
  40.4138650  18.7990180  60.4886350  40.7213630  18.2437070  59.7721850
  39.4839350  18.9334640  60.3059340  45.9653710  34.5157470  62.7793810
  45.9780870  34.1119760  61.9116070  45.4128930  35.2904760  62.6755240
  47.2599130  31.2373690  57.8683980  47.1495460  30.2948020  57.9933400
  47.2567380  31.5989330  58.7546740  45.3639150  29.4187310  64.1076420
  45.7807940  29.2047420  63.2729880  46.0878970  29.6760100  64.6785040
  42.8019410  26.8639010  57.2246470  41.8748690  26.7976390  57.4534940
  42.9544230  27.8019140  57.1101710  42.7888490  23.1356010  54.2213630
  41.8492160  23.2969970  54.3066090  43.1071750  23.8541690  53.6749620
  49.3101250  27.8174530  64.1992660  48.4819880  27.8867620  63.7242790
  49.9051730  28.4028840  63.7308490  46.8316700  28.4259310  57.7281720
  46.2129120  28.0878860  57.0808020  46.8141150  27.7819070  58.4360910
  38.4076050  27.3903750  60.0066200  38.0033050  26.6781000  59.5112100
  38.4939170  27.0456990  60.8954240  38.8757750  31.0771310  62.1705410
  38.5786040  30.4716780  61.4913190  39.8257570  31.1148620  62.0594770
  37.1204670  24.1646960  63.7865240  37.6719260  24.2742300  63.0118490
  37.6348180  24.5384560  64.5020470  45.0081400  27.6646120  54.7354470
  45.4474680  26.8268550  54.5892290  45.7209820  28.2975520  54.8218610
  43.1176780  32.6042190  58.7035710  43.5572690  33.3466520  58.2891100
  43.0563670  32.8468760  59.6274670  48.5898540  18.9188930  53.0495510
  48.2771200  19.0115760  53.9494580  49.3511010  19.4969960  52.9992940
  35.1080680  26.2848730  57.5072850  34.9878280  27.0110820  56.8954120
  34.7981570  25.5151640  57.0300760  32.7466050  29.4563870  63.3141490
  32.8246470  29.5912640  62.3697210  33.3607730  28.7479760  63.5069610
  33.9913680  31.1564060  59.7247670  33.5841760  31.2978650  58.8701270
  34.8826690  30.8724220  59.5218880  45.7846960  35.5911310  56.0598720
  45.6248100  35.3014250  56.9580550  45.6193670  34.8151440  55.5243950
  38.2635340  35.3709840  57.8370340  38.0877820  34.4545380  57.6238140
  37.4091080  35.7297130  58.0768140  45.4873090  33.0998870  54.6196720
  44.7938250  33.0976160  53.9599000  46.2295950  32.6758190  54.1890890
  45.0523020  34.7261580  58.6945210  45.5079970  33.9450960  59.0083830
  45.3915540  35.4368400  59.2386390  37.5744340  19.6283800  60.8896520
  37.1312490  20.4093340  60.5581040  38.1329330  19.9513690  61.5967460
  40.6903160  19.2494500  55.7702350  40.0657340  19.2454370  56.4955660
  40.6033280  18.3825460  55.3738320  39.6120240  20.1731130  62.7486120
  39.9092570  21.0793960  62.6678140  40.1605800  19.6849910  62.1345690
  37.3658560  24.7517370  58.6177770  37.1399480  24.5354540  59.5224390
  36.5851090  25.1845830  58.2723740  44.5956320  24.7580740  57.2168420
  43.9965210  25.4816540  57.0332040  45.1435930  24.6957520  56.4344870
  43.2021190  23.3944280  59.2471700  43.5950760  23.7116480  58.4340390
  43.5638040  22.5156160  59.3616220  32.2385360  19.9845080  61.4701900
  31.9498410  20.5547940  62.1826880  32.9831120  19.5049530  61.8333130
  32.4255590  23.9265200  52.6804620  32.3430260  24.8695960  52.8219610
  32.0738650  23.7840110  51.8016970  43.7876330  25.9850030  63.3422480
  43.0557450  26.4936840  63.6912580  43.3900670  25.1680010  63.0411260
  40.2253720  22.6604230  61.7474970  40.2289780  22.2194180  60.8979510
  41.1204840  22.9821560  61.8546790  36.0756100  22.5430720  60.7069180
  35.7356150  23.0205950  61.4636230  35.3133420  22.0895840  60.3470280
  40.2873870  23.6616310  54.7381730  40.4086690  23.6202790  55.6867550
  39.9022380  24.5240460  54.5828460  44.2502240  21.4383710  62.7545420
  44.2674980  21.8892360  63.5987270  44.0017820  20.5389350  62.9678860
  39.2995370  25.9717450  54.1365030  38.7312270  25.5235700  53.5100940
  40.0084370  26.3310230  53.6030180  40.5261690  26.7206010  63.4940380
  40.8931820  26.2464580  64.2401720  40.3366750  27.5947580  63.8348720
  33.3902180  21.4649700  59.6233850  33.1049100  21.1005370  60.4612470
  33.3281040  20.7330160  59.0096990  36.8442850  29.9675640  56.4091440
  36.0705110  29.4273260  56.2490160  37.5737480  29.4482250  56.0709200
  47.6030830  28.9641000  62.2017830  48.3229950  29.4596290  61.8113940
  47.4012650  28.2858890  61.5571700  43.0640770  20.3578960  56.3447220
  42.2505380  19.8592130  56.2692530  42.8702720  21.1977210  55.9283570
  45.7789160  24.7298610  54.6409380  46.6668780  25.0415840  54.4660720
  45.7494250  23.8570860  54.2489960  36.8880250  29.6356020  60.0470250
  37.4058920  28.8324280  59.9927140  36.4364270  29.5735160  60.8887080
  41.7749750  30.9022300  55.3197550  42.1165450  31.6464530  54.8240870
  40.9462460  31.2153420  55.6822380  48.0503430  26.0410450  54.1089240
  47.9667150  26.4724670  53.2585680  48.7697620  26.5008800  54.5416060
  49.0790680  32.8952710  56.8371370  48.4366840  32.2408330  57.1115090
  48.6921340  33.3007800  56.0612040  44.6577160  30.2238140  60.6843060
  45.0100980  29.6266270  60.0244430  43.7739490  29.8982370  60.8551310
  40.7440440  30.9835830  58.0913470  41.4311570  31.5305040  58.4721060
  39.9572860  31.5276560  58.1263080  32.8832840  26.6008650  53.5830550
  33.7527690  26.8833450  53.8666470  32.3923160  27.4144520  53.4679360
  40.0467650  27.9881860  57.7038830  40.5030430  28.7987110  57.9299020
  39.6955860  27.6705000  58.5357320  35.9479430  18.3319510  58.1761350
  35.8194060  18.3237410  59.1246270  35.1241450  18.6702600  57.8252360
  43.6232340  31.5020550  63.6508580  44.2654570  30.8013710  63.7640750
  44.1481690  32.2818990  63.4705470  47.4688060  31.7869170  53.3747720
  47.2425640  31.0699610  53.9672360  47.0784260  31.5381610  52.5369470
  33.2504090  35.8136030  54.1492180  33.6101730  36.4125370  53.4949450
  33.1096430  36.3595920  54.9227210  47.0504310  29.7041110  55.0361880
  46.7626010  30.1653800  55.8239760  47.8456480  29.2438880  55.3046100
  39.2672710  33.1967230  54.9665850  39.2582810  33.9296920  54.3510360
  38.3471070  32.9498810  55.0592810  34.8679350  28.4182120  55.7112610
  34.2607300  29.1581020  55.7207910  35.3428700  28.5081480  54.8850810
  47.8074170  21.5389880  56.1957060  47.1787330  21.6435550  55.4815290
  47.3126090  21.7586660  56.9850940  42.2532310  33.2595470  53.6291040
  42.3544290  33.0559460  52.6993020  41.3534050  33.0053750  53.8338820
  39.7758200  23.8175830  57.6114940  39.0674350  24.2862170  58.0528550
  40.0602680  23.1597840  58.2460130  43.8073630  20.5426490  59.0510730
  43.6841410  20.5612620  58.1020240  44.7558190  20.5905430  59.1709130
  40.8950420  35.7781790  58.3238710  41.1491920  35.7403180  57.4018080
  39.9462900  35.6515120  58.3166960  37.9793220  22.1260910  54.9865650
  38.8283750  22.5631060  54.9205840  37.6124490  22.4381170  55.8137710
  46.9003000  26.6973670  59.8997220  45.9593140  26.7123900  60.0744910
  47.2147070  25.9109630  60.3457520  36.8784640  28.3793270  53.4601180
  37.6447910  28.2674630  54.0226610  36.9559330  27.6831240  52.8077950
  35.5731400  25.8118340  54.1434070  35.6534990  24.8645850  54.2551470
  36.4651150  26.1425220  54.2494730  48.9028580  33.8682520  61.5751480
  49.0276000  34.6913690  62.0475290  49.7694140  33.6573250  61.2275630
  36.3746110  35.9613730  61.2468610  37.1108590  35.4129190  61.5177180
  36.7587030  36.8269740  61.1074600  33.2591590  32.0287300  57.1210120
  32.3331370  32.2708440  57.1115530  33.7248020  32.8561560  56.9994870
  39.4848420  35.1344040  53.0694180  40.2777030  35.4232870  52.6175970
  38.9652770  34.7036210  52.3906660  48.5378590  34.3614170  54.4930920
  48.2520100  33.9479310  53.6785100  48.3398140  35.2901880  54.3731440
  40.0025820  30.3547450  52.9336530  39.8976460  29.7399800  53.6597910
  39.8350040  29.8313340  52.1499540  43.2428550  29.4167480  53.5378520
  42.6938650  29.8636780  54.1821260  43.8647810  28.9116730  54.0616190
  38.9103670  28.3758400  55.4343820  39.3320090  28.2098270  56.2775210
  39.0354510  27.5658630  54.9398960  41.4231310  27.3996010  52.6820920
  41.9436970  26.6845030  52.3162070  42.0699710  28.0381880  52.9821430
  37.8062570  24.4491630  52.3801980  37.6051630  23.5858990  52.7415320
  37.6354620  24.3624990  51.4423580  45.2850880  19.2599860  54.9088860
  45.5653170  18.4167760  55.2648280  44.5116610  19.4922970  55.4227610
  36.6045370  21.5492250  52.3679860  36.9071270  21.5559680  51.4599010
  37.3439960  21.1990110  52.8647520  39.8230300  20.4926870  53.3536060
  39.4752300  19.8150860  52.7738510  40.0243070  20.0316380  54.1679450
  41.9879340  35.4807620  54.9722660  42.8830130  35.8192590  54.9941420
  42.0196970  34.7587030  54.3446940  35.6275500  30.8534670  53.2009660
  36.0650370  31.3964340  53.8567240  36.1123230  30.0281620  53.2106000
  32.8421300  33.6423700  60.6529920  33.1724310  32.7744760  60.4208560
  33.2712300  33.8482220  61.4834880  37.4383220  31.9732710  58.3131890
  37.1378760  31.8497680  59.2135800  37.3320710  31.1141300  57.9047620
  33.3311510  34.5094290  63.3911550  32.8942500  34.6895090  64.2235700
  33.8989190  35.2668910  63.2493270  50.2075140  31.7529110  53.0158570
  49.3768100  31.8205760  53.4865800  50.3846970  32.6433230  52.7125430
  49.6631600  28.4976590  55.5192770  50.4250510  29.0673240  55.6252460
  49.6785970  27.9303790  56.2901080  33.1635940  27.0214520  59.7500430
  32.5084780  26.7526160  59.1060130  34.0013890  26.9119000  59.3002410
  50.6691570  29.3526690  60.3634700  51.0400400  28.5694010  59.9570670
  51.3093500  30.0415790  60.1852000  49.7150770  28.7910960  52.6765290
  49.9899610  29.6989840  52.5484510  49.5261510  28.7273490  53.6127280
  46.1126380  21.8155810  53.9718920  46.5311260  21.6286790  53.1315580
  45.8062440  20.9634860  54.2821850  49.6116110  26.7279950  57.6694720
  49.2359710  25.9607880  57.2376010  48.8819230  27.1102650  58.1569650
  34.2011870  27.4067090  64.2903770  34.5684910  27.3194490  65.1699790
  33.6322690  26.6433640  64.1910630  32.3774020  24.2313450  55.6925760
  31.4738100  24.4943650  55.5177420  32.8614640  24.5024620  54.9125720
  48.8867070  24.9537440  60.9701960  49.4104550  24.4600090  60.3392130
  49.4726490  25.0887800  61.7149530  49.0656790  25.0377310  64.4921510
  48.1159500  25.0040850  64.6066500  49.2469800  25.9477420  64.2571280
  34.9201230  23.2878990  53.6020140  35.6292930  22.8662210  53.1167420
  34.2041170  23.3554220  52.9703490  34.5675390  19.3418320  52.6422790
  35.2903520  19.8827260  52.9604010  34.8399910  19.0681740  51.7664330
  48.3767040  24.2110790  56.9094370  48.8726160  23.9781660  57.6943250
  48.1783110  23.3722630  56.4932010  34.2567580  18.5924510  62.5445410
  34.9043770  18.0421890  62.1040570  34.6769420  18.8467660  63.3661220
  49.8054200  22.8471740  59.4432050  49.6953480  22.6927780  60.3814320
  50.5661790  22.3192680  59.2007460  50.6944470  20.6779660  52.6838190
  51.6193780  20.5460840  52.4756480  50.6720260  20.7572480  53.6374640
  50.7682960  21.4490320  55.3094900  49.9734460  21.3835440  55.8387810
  50.9726240  22.3840960  55.2980250  47.7101380  35.4881870  59.3033290
  48.3060450  35.1666440  58.6267710  47.9679530  35.0153690  60.0946560
  39.3169980  33.4759370  65.0533640  39.0761340  33.7433930  64.1664160
  40.2572620  33.6465100  65.1084500  48.2613590  36.1377170  63.1331020
  47.8016560  36.8892980  62.7589040  47.6326050  35.4183640  63.0745820
  38.6909310  34.4465410  62.3079150  39.2074330  33.8352770  61.7827410
  39.3406690  34.9494190  62.7990160  41.4304810  35.3373900  63.1348130
  41.7182620  35.0828200  62.2581140  41.9428030  34.7851260  63.7253700
  42.6481820  19.0764100  63.7144640  41.8653610  19.5509600  63.9941400
  42.3544750  18.1718930  63.6057820  47.2002890  19.7787200  61.7593730
  47.6410980  19.7232300  60.9115330  46.9310480  20.6945210  61.8303910
  49.0641460  19.4102440  59.7702550  49.0029860  18.4663660  59.6233570
  49.8433490  19.5182530  60.3156010  33.3694210  35.5494800  58.7326500
  33.2016250  34.9165480  59.4308390  32.5028720  35.7554200  58.3820690
  33.9922230  19.3811580  56.2358360  34.7501590  19.4940460  55.6622390
  33.5299400  20.2180780  56.1901790  40.5336040  21.4950850  59.2260670
  39.7210550  21.1207740  58.8856550  41.0377680  20.7395930  59.5281860
  45.0361020  18.1593300  60.4643740  45.6390390  18.7313510  60.9392260
  44.2954010  18.7232740  60.2417640  48.1795620  18.5614860  55.7384020
  48.3746250  19.4598310  56.0051450  47.3925490  18.3301940  56.2316970
  34.9756910  34.2428030  56.1776640  34.4504530  34.6236060  55.4738600
  34.9001490  34.8678800  56.8986350  36.3647380  19.9075630  54.7760330
  36.8940140  19.1205430  54.6468280  36.9975700  20.5866820  55.0095860
  38.5585220  19.6450770  57.8305720  37.9287960  18.9438080  57.9975850
  38.0190360  20.4054900  57.6138880  49.7322230  35.8015570  57.4990580
  49.9074420  35.1153310  56.8551500  49.0343800  36.3262620  57.1067250
  37.5749880  36.1910410  55.0525890  38.3068700  35.9069690  54.5049780
  37.8343550  35.9523690  55.9425270  36.7364670  32.3075140  55.0572220
  36.1073550  32.7760240  55.6058050  36.8512500  31.4624360  55.4918410
  46.3439860  32.5420010  41.8681820  45.8821390  31.7707250  42.1968990
  47.1565410  32.5686080  42.3734270  36.3199520  32.4819720  44.1616470
  36.6227560  31.5917460  43.9826690  37.0643110  33.0389940  43.9338720
  42.5703170  34.8278020  41.4885810  41.9514610  35.2835520  40.9180250
  43.4254950  34.9829480  41.0875510  33.9548090  21.4171530  45.4209470
  33.7750930  20.5197280  45.7012230  33.5528170  21.9643400  46.0956420
  46.5770710  21.1137830  40.2550120  47.3980330  20.6234400  40.2975600
  46.6104790  21.7035490  41.0081960  50.8670260  23.1304580  46.8193750
  50.1622430  23.5186290  46.3008860  51.1328180  23.8254870  47.4214680
  37.0495430  19.5997950  47.3827820  37.0513870  20.1170340  46.5773720
  36.2199740  19.1228130  47.3597750  46.8132190  23.0538210  43.0277660
  46.1087760  23.3423100  43.6080770  47.1744350  23.8638320  42.6677220
  36.7310760  21.3107910  45.3898270  37.0727570  22.1549960  45.0952140
  35.7926570  21.4591650  45.5063610  37.5117380  31.2073930  47.3750500
  38.1291380  31.8825010  47.0934950  36.6510500  31.6161910  47.2838000
  48.4294970  32.6713340  45.2905140  47.7458490  33.3412450  45.2821810
  48.9689260  32.8693990  44.5250000  49.8819110  22.4993000  43.4186870
  48.9344020  22.5331980  43.5502300  50.2069100  23.3131950  43.8036230
  40.4138650  18.7990180  41.7142860  40.7213630  18.2437070  40.9978360
  39.4839350  18.9334640  41.5315850  45.9653710  34.5157470  44.0050320
  45.9780870  34.1119760  43.1372580  45.4128930  35.2904760  43.9011750
  45.3639150  29.4187310  45.3332930  45.7807940  29.2047420  44.4986390
  46.0878970  29.6760100  45.9041550  49.3101250  27.8174530  45.4249170
  48.4819880  27.8867620  44.9499300  49.9051730  28.4028840  44.9565000
  46.8316700  28.4259310  38.9538230  46.2129120  28.0878860  38.3064530
  46.8141150  27.7819070  39.6617420  46.9643360  34.6503180  47.0585020
  46.4873920  35.4575370  46.8657630  46.2805150  33.9981510  47.2111230
  37.9676180  30.8153000  50.0469720  37.0704710  31.0392970  50.2943120
  37.9929050  30.9387940  49.0981120  43.1176780  32.6042190  39.9292220
  43.5572690  33.3466520  39.5147610  43.0563670  32.8468760  40.8531180
  38.5927750  33.6288020  50.8312240  38.5643180  34.0330970  49.9640670
  38.4292720  32.6998380  50.6683840  50.5442570  34.4115120  52.1276410
  51.0202290  34.8898010  52.8065490  51.1649730  34.3432610  51.4021910
  32.7466050  29.4563870  44.5398000  32.8246470  29.5912640  43.5953720
  33.3607730  28.7479760  44.7326120  49.9475820  31.6027970  49.2876420
  50.0738880  31.3639850  48.3693600  49.9897200  30.7712510  49.7598500
  43.8092560  35.3055970  47.8571230  44.3237230  35.2163980  48.6593660
  42.9661640  35.6515670  48.1499140  45.7846960  35.5911310  37.2855230
  45.6248100  35.3014250  38.1837060  45.6193670  34.8151440  36.7500460
  45.4873090  33.0998870  35.8453230  44.7938250  33.0976160  35.1855510
  46.2295950  32.6758190  35.4147400  45.0523020  34.7261580  39.9201720
  45.5079970  33.9450960  40.2340340  45.3915540  35.4368400  40.4642900
  49.7999830  23.6560430  50.2526160  49.1844100  24.1640100  49.7241620
  49.4796250  22.7558760  50.1952100  32.8025570  30.4978040  47.0792460
  32.9656610  30.0283400  46.2611830  33.2678020  29.9901600  47.7441300
  37.5744340  19.6283800  42.1153030  37.1312490  20.4093340  41.7837550
  38.1329330  19.9513690  42.8223970  41.8614150  22.4952320  47.7188350
  41.3993520  22.7035340  48.5308290  41.4592260  21.6811670  47.4159020
  46.8618660  23.7161270  48.8485010  46.0112250  23.4167020  49.1694080
  46.7020450  23.9603280  47.9368830  43.9568370  25.2163020  50.9483800
  44.2821780  24.3826770  50.6086030  44.7448700  25.7391540  51.0962130
  40.6903160  19.2494500  36.9958860  40.0657340  19.2454370  37.7212170
  40.6033280  18.3825460  36.5994830  39.6120240  20.1731130  43.9742630
  39.9092570  21.0793960  43.8934650  40.1605800  19.6849910  43.3602200
  44.5956320  24.7580740  38.4424930  43.9965210  25.4816540  38.2588550
  45.1435930  24.6957520  37.6601380  39.8057770  25.6502950  50.5094550
  39.7101370  24.7097680  50.3594950  40.6489750  25.8718020  50.1142620
  34.9368310  22.0616620  48.6628330  34.5431700  22.9091830  48.8701110
  34.2486710  21.4242990  48.8536970  41.5113360  22.1451590  51.7325070
  40.8211680  21.9523790  52.3671160  42.2545660  22.4286230  52.2649370
  44.2502240  21.4383710  43.9801930  44.2674980  21.8892360  44.8243780
  44.0017820  20.5389350  44.1935370  47.6772990  18.8515890  49.8188310
  48.0018760  18.1205550  50.3446290  47.7129500  18.5329530  48.9169300
  34.3764550  29.8729470  49.2388270  33.9919340  29.2323140  49.8371230
  34.6876740  30.5765590  49.8083000  47.6030830  28.9641000  43.4274340
  48.3229950  29.4596290  43.0370450  47.4012650  28.2858890  42.7828210
  43.0640770  20.3578960  37.5703730  42.2505380  19.8592130  37.4949040
  42.8702720  21.1977210  37.1540080  34.3724790  26.6017390  48.1852460
  34.0139730  27.2671240  48.7725800  34.0779350  25.7700940  48.5565080
  37.5737910  27.0601630  51.0692010  37.2738050  27.2058810  50.1719830
  38.3449150  26.5006920  50.9765400  42.9166360  31.8570630  49.0647140
  42.9310900  30.9251590  48.8466050  42.2091460  31.9430390  49.7036910
  49.1277570  28.4977970  48.4115720  48.4025760  29.0906750  48.2145110
  49.6553030  28.4901510  47.6129090  44.6577160  30.2238140  41.9099570
  45.0100980  29.6266270  41.2500940  43.7739490  29.8982370  42.0807820
  42.3500260  33.4988200  46.1587640  42.9942480  33.7047580  46.8361060
  42.7129700  32.7376600  45.7058490  35.9479430  18.3319510  39.4017860
  35.8194060  18.3237410  40.3502780  35.1241450  18.6702600  39.0508870
  43.6232340  31.5020550  44.8765090  44.2654570  30.8013710  44.9897260
  44.1481690  32.2818990  44.6961980  47.4688060  31.7869170  34.6004230
  47.2425640  31.0699610  35.1928870  47.0784260  31.5381610  33.7625980
  45.3969960  32.3015450  48.0801150  45.7326200  32.8882140  48.7579070
  44.4770300  32.1708160  48.3098940  32.9473360  20.0910630  48.8624560
  32.2331880  20.2907550  49.4677170  33.3668400  19.3150200  49.2339360
  47.0504310  29.7041110  36.2618390  46.7626010  30.1653800  37.0496270
  47.8456480  29.2438880  36.5302610  33.2345950  34.0790890  49.8491090
  33.3437070  33.1385630  49.7086480  32.5826510  34.3445640  49.2004820
  41.2258540  32.3506780  51.2489210  40.9055410  31.6316020  51.7934900
  40.5516900  33.0261850  51.3225270  44.4412140  22.5832940  46.6126010
  44.8092960  21.7628150  46.9405580  43.5810340  22.6434830  47.0281660
  47.8074170  21.5389880  37.4213570  47.1787330  21.6435550  36.7071800
  47.3126090  21.7586660  38.2107450  43.8073630  20.5426490  40.2767240
  43.6841410  20.5612620  39.3276750  44.7558190  20.5905430  40.3965640
  40.8950420  35.7781790  39.5495220  41.1491920  35.7403180  38.6274590
  39.9462900  35.6515120  39.5423470  48.6080990  21.4540490  47.6792370
  48.1054590  22.1945890  48.0186180  49.4237650  21.8424490  47.3629160
  46.9003000  26.6973670  41.1253730  45.9593140  26.7123900  41.3001420
  47.2147070  25.9109630  41.5714030  35.3804390  35.1459800  51.6610700
  36.1817120  35.4671850  52.0746100  34.8656210  34.7855380  52.3830610
  44.2169020  31.2539670  51.6086110  43.6107180  31.2771270  50.8681860
  43.9123130  30.5222710  52.1453360  45.6469390  34.9819960  50.2195520
  46.5991140  34.8977980  50.1695760  45.4997610  35.6461670  50.8929310
  33.1002200  27.6333260  50.6046750  33.6041220  27.0540540  51.1762980
  32.3609620  27.9173490  51.1423120  47.2963490  30.7709580  50.6957290
  48.0372960  31.1085340  50.1924750  46.5336170  30.9401640  50.1427060
  35.1325280  25.7762850  51.4996820  35.1730620  25.4776720  52.4082050
  35.9870780  26.1770460  51.3404340  37.0731090  24.3554950  49.4671310
  36.5427550  23.8645900  48.8394650  37.7419160  24.7839150  48.9329240
  45.9709150  28.8224410  49.2312500  46.3850170  28.9769490  50.0802920
  45.0360150  28.9479630  49.3938280  46.4431320  26.1620570  51.2351650
  47.0252090  25.4072890  51.1472130  46.6193090  26.6928010  50.4583130
  37.5603390  21.3217320  49.5468600  37.4660260  20.7038070  48.8219470
  36.9800780  22.0483610  49.3198510  40.3264830  19.8790560  46.5795990
  39.8782130  19.9014820  45.7341540  39.6930030  19.4809580  47.1766290
  38.5831800  35.0797900  48.3166160  38.0452890  35.8043960  47.9974860
  38.8365760  34.6028240  47.5263500  39.8357050  23.0482420  49.8422090
  40.4256740  22.7398270  50.5299910  39.0177290  22.5762170  49.9981990
  44.6550480  22.6648230  50.0755110  43.9666000  22.0029770  50.0105100
  45.3756500  22.2186500  50.5203570  45.2850880  19.2599860  36.1345370
  45.5653170  18.4167760  36.4904790  44.5116610  19.4922970  36.6484120
  41.4394010  36.3149110  48.5752810  41.3652710  37.2184250  48.8825180
  40.5372850  35.9961010  48.5474880  41.9879340  35.4807620  36.1979170
  42.8830130  35.8192590  36.2197930  42.0196970  34.7587030  35.5703450
  33.3311510  34.5094290  44.6168060  32.8942500  34.6895090  45.4492210
  33.8989190  35.2668910  44.4749780  48.9673690  34.0111290  48.9045370
  48.3675680  34.0703850  48.1609290  49.0967590  33.0716270  49.0342220
  47.6525330  30.7363270  47.0021530  46.8385170  31.1660430  47.2647320
  48.0599530  31.3481680  46.3890580  34.2011870  27.4067090  45.5160280
  34.5684910  27.3194490  46.3956300  33.6322690  26.6433640  45.4167140
  49.0015730  25.8751470  48.5290750  48.7701820  25.6464220  47.6288700
  49.2620280  26.7951020  48.4835640  33.7527870  24.3176180  49.4218700
  32.8583920  24.2842940  49.7612410  34.2925420  24.5162970  50.1869950
  47.4403800  21.1007900  51.3070450  48.3173980  21.1091300  51.6904450
  47.4524640  20.3638740  50.6962800  48.8867070  24.9537440  42.1958470
  49.4104550  24.4600090  41.5648640  49.4726490  25.0887800  42.9406040
  49.0656790  25.0377310  45.7178020  48.1159500  25.0040850  45.8323010
  49.2469800  25.9477420  45.4827790  48.3767040  24.2110790  38.1350880
  48.8726160  23.9781660  38.9199760  48.1783110  23.3722630  37.7188520
  34.2567580  18.5924510  43.7701920  34.9043770  18.0421890  43.3297080
  34.6769420  18.8467660  44.5917730  49.8054200  22.8471740  40.6688560
  49.6953480  22.6927780  41.6070830  50.5661790  22.3192680  40.4263970
  48.1519920  18.7865870  47.1271560  48.7892140  19.4000010  47.4930750
  48.2994810  18.8226530  46.1820790  34.0099580  18.7480180  46.5127240
  33.6614400  19.2044000  47.2785420  33.6787280  17.8537310  46.5949670
  35.6163950  31.9199780  50.6780430  35.5733580  31.5492690  51.5594890
  35.7474960  32.8577350  50.8182250  39.3169980  33.4759370  46.2790150
  39.0761340  33.7433930  45.3920670  40.2572620  33.6465100  46.3341010
  41.5224400  19.9392060  50.0346660  41.4613290  20.5313890  50.7842070
  42.4624780  19.8318020  49.8896920  44.1598960  19.5962120  49.6738950
  44.7739370  19.9141410  49.0120030  44.7048520  19.1110710  50.2934810
  50.5774140  35.4953750  47.0800790  50.0832420  35.8922620  46.3627920
  49.9687430  34.8702960  47.4738070  34.6820220  18.2756380  49.7878010
  35.2303210  18.0944430  49.0244120  34.7475530  17.4850490  50.3234320
  35.4551980  34.8662030  47.7978210  34.8612300  34.7346730  48.5368250
  35.4475820  34.0300170  47.3320310  44.9007000  18.1594260  46.0008240
  44.0266840  18.4929370  45.7981170  44.7917750  17.6867440  46.8260110
  45.8078980  20.3665130  47.3849960  45.4792340  19.5516890  47.0051690
  46.7561280  20.3234940  47.2615650  35.0864210  32.2320410  46.7486250
  34.3598270  31.6125700  46.6812200  35.1473360  32.6261020  45.8784330
  38.6909310  34.4465410  43.5335660  39.2074330  33.8352770  43.0083920
  39.3406690  34.9494190  44.0246670  41.4304810  35.3373900  44.3604640
  41.7182620  35.0828200  43.4837650  41.9428030  34.7851260  44.9510210
  42.6481820  19.0764100  44.9401150  41.8653610  19.5509600  45.2197910
  42.3544750  18.1718930  44.8314330  47.2002890  19.7787200  42.9850240
  47.6410980  19.7232300  42.1371840  46.9310480  20.6945210  43.0560420
  49.0641460  19.4102440  40.9959060  49.0029860  18.4663660  40.8490080
  49.8433490  19.5182530  41.5412520  45.0361020  18.1593300  41.6900250
  45.6390390  18.7313510  42.1648770  44.2954010  18.7232740  41.4674150
  48.1795620  18.5614860  36.9640530  48.3746250  19.4598310  37.2307960
  47.3925490  18.3301940  37.4573480  38.5585220  19.6450770  39.0562230
  37.9287960  18.9438080  39.2232360  38.0190360  20.4054900  38.8395390
  41.4977170  36.2590000  51.7272840  42.4244480  36.0234270  51.7708800
  41.4827600  37.0862000  51.2458870  38.6840780  18.9234750  51.4914720
  38.4025050  19.4268350  50.7275540  39.0660480  18.1256500  51.1256850
  45.2856240  18.3388330  52.0695190  45.1721690  18.6582940  52.9646710
  46.1025980  18.7400840  51.7732470  48.0654730  35.4859860  51.5513880
  48.8580050  34.9909090  51.3439840  48.3587880  36.1650000  52.1589490
  44.1914390  26.3580800  22.4329930  44.1108440  25.4435410  22.1621640
  43.7778810  26.8547870  21.7269640  36.3398260  28.4479630  25.1914960
  35.5083140  28.1928340  25.5911470  36.9479240  28.5190400  25.9272880
  46.3439860  32.5420010  23.0938330  45.8821390  31.7707250  23.4225500
  47.1565410  32.5686080  23.5990780  34.7490210  23.4081520  18.9757350
  33.8606910  23.7497490  18.8737230  35.0331400  23.2081840  18.0838180
  32.7123220  26.0087170  24.8597050  33.2839330  25.2409370  24.8600690
  32.7124760  26.3075930  23.9503660  33.9548090  21.4171530  26.6465980
  33.7750930  20.5197280  26.9268740  33.5528170  21.9643400  27.3212930
  42.7946590  23.6187390  24.5478290  43.1711410  22.7459270  24.4351960
  42.6966100  23.9546090  23.6568730  36.9251600  21.9913020  20.0095730
  37.0318350  22.8916750  20.3164490  36.0143960  21.9430990  19.7190380
  46.5770710  21.1137830  21.4806630  47.3980330  20.6234400  21.5232110
  46.6104790  21.7035490  22.2338470  34.5734760  23.9132030  25.2548320
  35.2544870  24.1770400  25.8735720  34.2582810  23.0732900  25.5886330
  38.7659330  24.9599390  24.3420910  39.2737550  25.4580360  24.9825930
  39.2972570  24.1834590  24.1660270  43.4366520  29.7117260  20.1074230
  42.8183790  30.1766710  19.5436950  43.9489770  30.4044740  20.5243740
  46.8132190  23.0538210  24.2534170  46.1087760  23.3423100  24.8337280
  47.1744350  23.8638320  23.8933730  32.8049720  30.3973790  17.4813860
  32.4277700  30.8860890  16.7498760  33.0622790  31.0699070  18.1120390
  49.8819110  22.4993000  24.6443380  48.9344020  22.5331980  24.7758810
  50.2069100  23.3131950  25.0292740  40.4138650  18.7990180  22.9399370
  40.7213630  18.2437070  22.2234870  39.4839350  18.9334640  22.7572360
  47.2599130  31.2373690  20.3197000  47.1495460  30.2948020  20.4446420
  47.2567380  31.5989330  21.2059760  42.8019410  26.8639010  19.6759490
  41.8748690  26.7976390  19.9047960  42.9544230  27.8019140  19.5614730
  42.7888490  23.1356010  16.6726650  41.8492160  23.2969970  16.7579110
  43.1071750  23.8541690  16.1262640  46.8316700  28.4259310  20.1794740
  46.2129120  28.0878860  19.5321040  46.8141150  27.7819070  20.8873930
  38.4076050  27.3903750  22.4579220  38.0033050  26.6781000  21.9625120
  38.4939170  27.0456990  23.3467260  37.1204670  24.1646960  26.2378260
  37.6719260  24.2742300  25.4631510  37.6348180  24.5384560  26.9533490
  46.9643360  34.6503180  28.2841530  46.4873920  35.4575370  28.0914140
  46.2805150  33.9981510  28.4367740  45.0081400  27.6646120  17.1867490
  45.4474680  26.8268550  17.0405310  45.7209820  28.2975520  17.2731630
  43.1176780  32.6042190  21.1548730  43.5572690  33.3466520  20.7404120
  43.0563670  32.8468760  22.0787690  48.5898540  18.9188930  15.5008530
  48.2771200  19.0115760  16.4007600  49.3511010  19.4969960  15.4505960
  35.1080680  26.2848730  19.9585870  34.9878280  27.0110820  19.3467140
  34.7981570  25.5151640  19.4813780  32.7466050  29.4563870  25.7654510
  32.8246470  29.5912640  24.8210230  33.3607730  28.7479760  25.9582630
  33.9913680  31.1564060  22.1760690  33.5841760  31.2978650  21.3214290
  34.8826690  30.8724220  21.9731900  45.7846960  35.5911310  18.5111740
  45.6248100  35.3014250  19.4093570  45.6193670  34.8151440  17.9756970
  38.2635340  35.3709840  20.2883360  38.0877820  34.4545380  20.0751160
  37.4091080  35.7297130  20.5281160  45.4873090  33.0998870  17.0709740
  44.7938250  33.0976160  16.4112020  46.2295950  32.6758190  16.6403910
  45.0523020  34.7261580  21.1458230  45.5079970  33.9450960  21.4596850
  45.3915540  35.4368400  21.6899410  37.5744340  19.6283800  23.3409540
  37.1312490  20.4093340  23.0094060  38.1329330  19.9513690  24.0480480
  40.6903160  19.2494500  18.2215370  40.0657340  19.2454370  18.9468680
  40.6033280  18.3825460  17.8251340  37.3658560  24.7517370  21.0690790
  37.1399480  24.5354540  21.9737410  36.5851090  25.1845830  20.7236760
  44.5956320  24.7580740  19.6681440  43.9965210  25.4816540  19.4845060
  45.1435930  24.6957520  18.8857890  43.2021190  23.3944280  21.6984720
  43.5950760  23.7116480  20.8853410  43.5638040  22.5156160  21.8129240
  32.2385360  19.9845080  23.9214920  31.9498410  20.5547940  24.6339900
  32.9831120  19.5049530  24.2846150  32.4255590  23.9265200  15.1317640
  32.3430260  24.8695960  15.2732630  32.0738650  23.7840110  14.2529990
  40.2253720  22.6604230  24.1987990  40.2289780  22.2194180  23.3492530
  41.1204840  22.9821560  24.3059810  36.0756100  22.5430720  23.1582200
  35.7356150  23.0205950  23.9149250  35.3133420  22.0895840  22.7983300
  40.2873870  23.6616310  17.1894750  40.4086690  23.6202790  18.1380570
  39.9022380  24.5240460  17.0341480  44.2502240  21.4383710  25.2058440
  44.2674980  21.8892360  26.0500290  44.0017820  20.5389350  25.4191880
  39.2995370  25.9717450  16.5878050  38.7312270  25.5235700  15.9613960
  40.0084370  26.3310230  16.0543200  47.6772990  18.8515890  31.0444820
  48.0018760  18.1205550  31.5702800  47.7129500  18.5329530  30.1425810
  33.3902180  21.4649700  22.0746870  33.1049100  21.1005370  22.9125490
  33.3281040  20.7330160  21.4610010  36.8442850  29.9675640  18.8604460
  36.0705110  29.4273260  18.7003180  37.5737480  29.4482250  18.5222220
  47.6030830  28.9641000  24.6530850  48.3229950  29.4596290  24.2626960
  47.4012650  28.2858890  24.0084720  43.0640770  20.3578960  18.7960240
  42.2505380  19.8592130  18.7205550  42.8702720  21.1977210  18.3796590
  45.7789160  24.7298610  17.0922400  46.6668780  25.0415840  16.9173740
  45.7494250  23.8570860  16.7002980  36.8880250  29.6356020  22.4983270
  37.4058920  28.8324280  22.4440160  36.4364270  29.5735160  23.3400100
  41.7749750  30.9022300  17.7710570  42.1165450  31.6464530  17.2753890
  40.9462460  31.2153420  18.1335400  34.3724790  26.6017390  29.4108970
  34.0139730  27.2671240  29.9982310  34.0779350  25.7700940  29.7821590
  48.0503430  26.0410450  16.5602260  47.9667150  26.4724670  15.7098700
  48.7697620  26.5008800  16.9929080  49.0790680  32.8952710  19.2884390
  48.4366840  32.2408330  19.5628110  48.6921340  33.3007800  18.5125060
  40.7440440  30.9835830  20.5426490  41.4311570  31.5305040  20.9234080
  39.9572860  31.5276560  20.5776100  32.8832840  26.6008650  16.0343570
  33.7527690  26.8833450  16.3179490  32.3923160  27.4144520  15.9192380
  40.0467650  27.9881860  20.1551850  40.5030430  28.7987110  20.3812040
  39.6955860  27.6705000  20.9870340  35.9479430  18.3319510  20.6274370
  35.8194060  18.3237410  21.5759290  35.1241450  18.6702600  20.2765380
  47.4688060  31.7869170  15.8260740  47.2425640  31.0699610  16.4185380
  47.0784260  31.5381610  14.9882490  33.2504090  35.8136030  16.6005200
  33.6101730  36.4125370  15.9462470  33.1096430  36.3595920  17.3740230
  32.9473360  20.0910630  30.0881070  32.2331880  20.2907550  30.6933680
  33.3668400  19.3150200  30.4595870  47.0504310  29.7041110  17.4874900
  46.7626010  30.1653800  18.2752780  47.8456480  29.2438880  17.7559120
  39.2672710  33.1967230  17.4178870  39.2582810  33.9296920  16.8023380
  38.3471070  32.9498810  17.5105830  34.8679350  28.4182120  18.1625630
  34.2607300  29.1581020  18.1720930  35.3428700  28.5081480  17.3363830
  47.8074170  21.5389880  18.6470080  47.1787330  21.6435550  17.9328310
  47.3126090  21.7586660  19.4363960  42.2532310  33.2595470  16.0804060
  42.3544290  33.0559460  15.1506040  41.3534050  33.0053750  16.2851840
  39.7758200  23.8175830  20.0627960  39.0674350  24.2862170  20.5041570
  40.0602680  23.1597840  20.6973150  43.8073630  20.5426490  21.5023750
  43.6841410  20.5612620  20.5533260  44.7558190  20.5905430  21.6222150
  40.8950420  35.7781790  20.7751730  41.1491920  35.7403180  19.8531100
  39.9462900  35.6515120  20.7679980  37.9793220  22.1260910  17.4378670
  38.8283750  22.5631060  17.3718860  37.6124490  22.4381170  18.2650730
  46.9003000  26.6973670  22.3510240  45.9593140  26.7123900  22.5257930
  47.2147070  25.9109630  22.7970540  36.8784640  28.3793270  15.9114200
  37.6447910  28.2674630  16.4739630  36.9559330  27.6831240  15.2590970
  35.5731400  25.8118340  16.5947090  35.6534990  24.8645850  16.7064490
  36.4651150  26.1425220  16.7007750  36.3746110  35.9613730  23.6981630
  37.1108590  35.4129190  23.9690200  36.7587030  36.8269740  23.5587620
  33.2591590  32.0287300  19.5723140  32.3331370  32.2708440  19.5628550
  33.7248020  32.8561560  19.4507890  39.4848420  35.1344040  15.5207200
  40.2777030  35.4232870  15.0688990  38.9652770  34.7036210  14.8419680
  45.6469390  34.9819960  31.4452030  46.5991140  34.8977980  31.3952270
  45.4997610  35.6461670  32.1185820  48.5378590  34.3614170  16.9443940
  48.2520100  33.9479310  16.1298120  48.3398140  35.2901880  16.8244460
  40.0025820  30.3547450  15.3849550  39.8976460  29.7399800  16.1110930
  39.8350040  29.8313340  14.6012560  43.2428550  29.4167480  15.9891540
  42.6938650  29.8636780  16.6334280  43.8647810  28.9116730  16.5129210
  38.9103670  28.3758400  17.8856840  39.3320090  28.2098270  18.7288230
  39.0354510  27.5658630  17.3911980  41.4231310  27.3996010  15.1333940
  41.9436970  26.6845030  14.7675090  42.0699710  28.0381880  15.4334450
  37.8062570  24.4491630  14.8315000  37.6051630  23.5858990  15.1928340
  37.6354620  24.3624990  13.8936600  45.2850880  19.2599860  17.3601880
  45.5653170  18.4167760  17.7161300  44.5116610  19.4922970  17.8740630
  36.6045370  21.5492250  14.8192880  36.9071270  21.5559680  13.9112030
  37.3439960  21.1990110  15.3160540  39.8230300  20.4926870  15.8049080
  39.4752300  19.8150860  15.2251530  40.0243070  20.0316380  16.6192470
  41.9879340  35.4807620  17.4235680  42.8830130  35.8192590  17.4454440
  42.0196970  34.7587030  16.7959960  35.6275500  30.8534670  15.6522680
  36.0650370  31.3964340  16.3080260  36.1123230  30.0281620  15.6619020
  32.8421300  33.6423700  23.1042940  33.1724310  32.7744760  22.8721580
  33.2712300  33.8482220  23.9347900  37.4383220  31.9732710  20.7644910
  37.1378760  31.8497680  21.6648820  37.3320710  31.1141300  20.3560640
  33.3311510  34.5094290  25.8424570  32.8942500  34.6895090  26.6748720
  33.8989190  35.2668910  25.7006290  48.9673690  34.0111290  30.1301880
  48.3675680  34.0703850  29.3865800  49.0967590  33.0716270  30.2598730
  50.2075140  31.7529110  15.4671590  49.3768100  31.8205760  15.9378820
  50.3846970  32.6433230  15.1638450  49.6631600  28.4976590  17.9705790
  50.4250510  29.0673240  18.0765480  49.6785970  27.9303790  18.7414100
  33.1635940  27.0214520  22.2013450  32.5084780  26.7526160  21.5573150
  34.0013890  26.9119000  21.7515430  49.7150770  28.7910960  15.1278310
  49.9899610  29.6989840  14.9997530  49.5261510  28.7273490  16.0640300
  46.1126380  21.8155810  16.4231940  46.5311260  21.6286790  15.5828600
  45.8062440  20.9634860  16.7334870  49.6116110  26.7279950  20.1207740
  49.2359710  25.9607880  19.6889030  48.8819230  27.1102650  20.6082670
  34.2011870  27.4067090  26.7416790  34.5684910  27.3194490  27.6212810
  33.6322690  26.6433640  26.6423650  32.3774020  24.2313450  18.1438780
  31.4738100  24.4943650  17.9690440  32.8614640  24.5024620  17.3638740
  48.8867070  24.9537440  23.4214980  49.4104550  24.4600090  22.7905150
  49.4726490  25.0887800  24.1662550  34.9201230  23.2878990  16.0533160
  35.6292930  22.8662210  15.5680440  34.2041170  23.3554220  15.4216510
  34.5675390  19.3418320  15.0935810  35.2903520  19.8827260  15.4117030
  34.8399910  19.0681740  14.2177350  48.3767040  24.2110790  19.3607390
  48.8726160  23.9781660  20.1456270  48.1783110  23.3722630  18.9445030
  34.2567580  18.5924510  24.9958430  34.9043770  18.0421890  24.5553590
  34.6769420  18.8467660  25.8174240  49.8054200  22.8471740  21.8945070
  49.6953480  22.6927780  22.8327340  50.5661790  22.3192680  21.6520480
  48.1519920  18.7865870  28.3528070  48.7892140  19.4000010  28.7187260
  48.2994810  18.8226530  27.4077300  50.6944470  20.6779660  15.1351210
  51.6193780  20.5460840  14.9269500  50.6720260  20.7572480  16.0887660
  50.7682960  21.4490320  17.7607920  49.9734460  21.3835440  18.2900830
  50.9726240  22.3840960  17.7493270  47.7101380  35.4881870  21.7546310
  48.3060450  35.1666440  21.0780730  47.9679530  35.0153690  22.5459580
  34.0099580  18.7480180  27.7383750  33.6614400  19.2044000  28.5041930
  33.6787280  17.8537310  27.8206180  44.9007000  18.1594260  27.2264750
  44.0266840  18.4929370  27.0237680  44.7917750  17.6867440  28.0516620
  48.2613590  36.1377170  25.5844040  47.8016560  36.8892980  25.2102060
  47.6326050  35.4183640  25.5258840  47.2002890  19.7787200  24.2106750
  47.6410980  19.7232300  23.3628350  46.9310480  20.6945210  24.2816930
  49.0641460  19.4102440  22.2215570  49.0029860  18.4663660  22.0746590
  49.8433490  19.5182530  22.7669030  33.3694210  35.5494800  21.1839520
  33.2016250  34.9165480  21.8821410  32.5028720  35.7554200  20.8333710
  33.9922230  19.3811580  18.6871380  34.7501590  19.4940460  18.1135410
  33.5299400  20.2180780  18.6414810  40.5336040  21.4950850  21.6773690
  39.7210550  21.1207740  21.3369570  41.0377680  20.7395930  21.9794880
  45.0361020  18.1593300  22.9156760  45.6390390  18.7313510  23.3905280
  44.2954010  18.7232740  22.6930660  48.1795620  18.5614860  18.1897040
  48.3746250  19.4598310  18.4564470  47.3925490  18.3301940  18.6829990
  34.9756910  34.2428030  18.6289660  34.4504530  34.6236060  17.9251620
  34.9001490  34.8678800  19.3499370  36.3647380  19.9075630  17.2273350
  36.8940140  19.1205430  17.0981300  36.9975700  20.5866820  17.4608880
  38.5585220  19.6450770  20.2818740  37.9287960  18.9438080  20.4488870
  38.0190360  20.4054900  20.0651900  49.7322230  35.8015570  19.9503600
  49.9074420  35.1153310  19.3064520  49.0343800  36.3262620  19.5580270
  37.5749880  36.1910410  17.5038910  38.3068700  35.9069690  16.9562800
  37.8343550  35.9523690  18.3938290  36.7364670  32.3075140  17.5085240
  36.1073550  32.7760240  18.0571070  36.8512500  31.4624360  17.9431430
  45.2856240  18.3388330  33.2951700  45.1721690  18.6582940  34.1903220
  46.1025980  18.7400840  32.9988980  48.0654730  35.4859860  32.7770390
  48.8580050  34.9909090  32.5696350  48.3587880  36.1650000  33.3846000
  44.1914390  26.3580800   3.6586440  44.1108440  25.4435410   3.3878150
  43.7778810  26.8547870   2.9526150  42.3232430  28.1359820   5.5395710
  41.5474530  27.6560260   5.8294280  42.9745360  27.4565470   5.3651870
  36.3398260  28.4479630   6.4171470  35.5083140  28.1928340   6.8167980
  36.9479240  28.5190400   7.1529390  46.3439860  32.5420010   4.3194840
  45.8821390  31.7707250   4.6482010  47.1565410  32.5686080   4.8247290
  36.3199520  32.4819720   6.6129490  36.6227560  31.5917460   6.4339710
  37.0643110  33.0389940   6.3851740  32.7123220  26.0087170   6.0853560
  33.2839330  25.2409370   6.0857200  32.7124760  26.3075930   5.1760170
  42.5703170  34.8278020   3.9398830  41.9514610  35.2835520   3.3693270
  43.4254950  34.9829480   3.5388530  41.7641420  30.8117010   5.5465870
  41.6949700  29.8706950   5.3855000  42.5261280  30.9018420   6.1188440
  33.9548090  21.4171530   7.8722490  33.7750930  20.5197280   8.1525250
  33.5528170  21.9643400   8.5469440  42.7946590  23.6187390   5.7734800
  43.1711410  22.7459270   5.6608470  42.6966100  23.9546090   4.8825240
  46.5770710  21.1137830   2.7063140  47.3980330  20.6234400   2.7488620
  46.6104790  21.7035490   3.4594980  34.5734760  23.9132030   6.4804830
  35.2544870  24.1770400   7.0992230  34.2582810  23.0732900   6.8142840
  38.7659330  24.9599390   5.5677420  39.2737550  25.4580360   6.2082440
  39.2972570  24.1834590   5.3916780  50.8670260  23.1304580   9.2706770
  50.1622430  23.5186290   8.7521880  51.1328180  23.8254870   9.8727700
  37.0495430  19.5997950   9.8340840  37.0513870  20.1170340   9.0286740
  36.2199740  19.1228130   9.8110770  38.2998280  29.2393130   8.0114340
  37.9667660  29.8662050   8.6535410  38.4764960  29.7655010   7.2316010
  46.8132190  23.0538210   5.4790680  46.1087760  23.3423100   6.0593790
  47.1744350  23.8638320   5.1190240  36.7310760  21.3107910   7.8411290
  37.0727570  22.1549960   7.5465160  35.7926570  21.4591650   7.9576630
  37.5117380  31.2073930   9.8263520  38.1291380  31.8825010   9.5447970
  36.6510500  31.6161910   9.7351020  48.4294970  32.6713340   7.7418160
  47.7458490  33.3412450   7.7334830  48.9689260  32.8693990   6.9763020
  49.8819110  22.4993000   5.8699890  48.9344020  22.5331980   6.0015320
  50.2069100  23.3131950   6.2549250  40.4138650  18.7990180   4.1655880
  40.7213630  18.2437070   3.4491380  39.4839350  18.9334640   3.9828870
  45.9653710  34.5157470   6.4563340  45.9780870  34.1119760   5.5885600
  45.4128930  35.2904760   6.3524770  45.3639150  29.4187310   7.7845950
  45.7807940  29.2047420   6.9499410  46.0878970  29.6760100   8.3554570
  49.3101250  27.8174530   7.8762190  48.4819880  27.8867620   7.4012320
  49.9051730  28.4028840   7.4078020  46.2743260  24.6043850   8.8217060
  45.8614440  25.4297560   9.0757050  45.5419210  24.0188890   8.6293420
  38.4076050  27.3903750   3.6835730  38.0033050  26.6781000   3.1881630
  38.4939170  27.0456990   4.5723770  38.8757750  31.0771310   5.8474940
  38.5786040  30.4716780   5.1682720  39.8257570  31.1148620   5.7364300
  37.1204670  24.1646960   7.4634770  37.6719260  24.2742300   6.6888020
  37.6348180  24.5384560   8.1790000  46.9643360  34.6503180   9.5098040
  46.4873920  35.4575370   9.3170650  46.2805150  33.9981510   9.6624250
  37.9676180  30.8153000  12.4982740  37.0704710  31.0392970  12.7456140
  37.9929050  30.9387940  11.5494140  36.7947400  27.6866320  11.0740110
  36.6555170  28.5589120  11.4427510  35.9128760  27.3439130  10.9288050
  43.1176780  32.6042190   2.3805240  43.5572690  33.3466520   1.9660630
  43.0563670  32.8468760   3.3044200  38.5927750  33.6288020  13.2825260
  38.5643180  34.0330970  12.4153690  38.4292720  32.6998380  13.1196860
  32.7466050  29.4563870   6.9911020  32.8246470  29.5912640   6.0466740
  33.3607730  28.7479760   7.1839140  33.9913680  31.1564060   3.4017200
  33.5841760  31.2978650   2.5470800  34.8826690  30.8724220   3.1988410
  49.9475820  31.6027970  11.7389440  50.0738880  31.3639850  10.8206620
  49.9897200  30.7712510  12.2111520  43.8092560  35.3055970  10.3084250
  44.3237230  35.2163980  11.1106680  42.9661640  35.6515670  10.6012160
  45.0523020  34.7261580   2.3714740  45.5079970  33.9450960   2.6853360
  45.3915540  35.4368400   2.9155920  49.7999830  23.6560430  12.7039180
  49.1844100  24.1640100  12.1754640  49.4796250  22.7558760  12.6465120
  32.8025570  30.4978040   9.5305480  32.9656610  30.0283400   8.7124850
  33.2678020  29.9901600  10.1954320  37.5744340  19.6283800   4.5666050
  37.1312490  20.4093340   4.2350570  38.1329330  19.9513690   5.2736990
  41.8614150  22.4952320  10.1701370  41.3993520  22.7035340  10.9821310
  41.4592260  21.6811670   9.8672040  46.8618660  23.7161270  11.2998030
  46.0112250  23.4167020  11.6207100  46.7020450  23.9603280  10.3881850
  43.9568370  25.2163020  13.3996820  44.2821780  24.3826770  13.0599050
  44.7448700  25.7391540  13.5475150  39.6120240  20.1731130   6.4255650
  39.9092570  21.0793960   6.3447670  40.1605800  19.6849910   5.8115220
  37.3658560  24.7517370   2.2947300  37.1399480  24.5354540   3.1993920
  36.5851090  25.1845830   1.9493270  39.8057770  25.6502950  12.9607570
  39.7101370  24.7097680  12.8107970  40.6489750  25.8718020  12.5655640
  43.2021190  23.3944280   2.9241230  43.5950760  23.7116480   2.1109920
  43.5638040  22.5156160   3.0385750  34.9368310  22.0616620  11.1141350
  34.5431700  22.9091830  11.3214130  34.2486710  21.4242990  11.3049990
  41.5113360  22.1451590  14.1838090  40.8211680  21.9523790  14.8184180
  42.2545660  22.4286230  14.7162390  32.2385360  19.9845080   5.1471430
  31.9498410  20.5547940   5.8596410  32.9831120  19.5049530   5.5102660
  43.7876330  25.9850030   7.0192010  43.0557450  26.4936840   7.3682110
  43.3900670  25.1680010   6.7180790  40.2253720  22.6604230   5.4244500
  40.2289780  22.2194180   4.5749040  41.1204840  22.9821560   5.5316320
  36.0756100  22.5430720   4.3838710  35.7356150  23.0205950   5.1405760
  35.3133420  22.0895840   4.0239810  44.2502240  21.4383710   6.4314950
  44.2674980  21.8892360   7.2756800  44.0017820  20.5389350   6.6448390
  47.6772990  18.8515890  12.2701330  48.0018760  18.1205550  12.7959310
  47.7129500  18.5329530  11.3682320  34.3764550  29.8729470  11.6901290
  33.9919340  29.2323140  12.2884250  34.6876740  30.5765590  12.2596020
  40.5261690  26.7206010   7.1709910  40.8931820  26.2464580   7.9171250
  40.3366750  27.5947580   7.5118250  33.3902180  21.4649700   3.3003380
  33.1049100  21.1005370   4.1382000  33.3281040  20.7330160   2.6866520
  38.3161060  25.7614650   9.4894120  38.0118130  26.6406630   9.7144480
  39.2707520  25.8214440   9.5251560  47.6030830  28.9641000   5.8787360
  48.3229950  29.4596290   5.4883470  47.4012650  28.2858890   5.2341230
  42.9849630  29.0350060  11.7656360  42.9186940  28.1145730  11.5113950
  42.3554770  29.1325500  12.4801000  36.8880250  29.6356020   3.7239780
  37.4058920  28.8324280   3.6696670  36.4364270  29.5735160   4.5656610
  34.3724790  26.6017390  10.6365480  34.0139730  27.2671240  11.2238820
  34.0779350  25.7700940  11.0078100  37.5737910  27.0601630  13.5205030
  37.2738050  27.2058810  12.6232850  38.3449150  26.5006920  13.4278420
  42.9166360  31.8570630  11.5160160  42.9310900  30.9251590  11.2979070
  42.2091460  31.9430390  12.1549930  49.1277570  28.4977970  10.8628740
  48.4025760  29.0906750  10.6658130  49.6553030  28.4901510  10.0642110
  44.6577160  30.2238140   4.3612590  45.0100980  29.6266270   3.7013960
  43.7739490  29.8982370   4.5320840  40.7440440  30.9835830   1.7683000
  41.4311570  31.5305040   2.1490590  39.9572860  31.5276560   1.8032610
  42.3500260  33.4988200   8.6100660  42.9942480  33.7047580   9.2874080
  42.7129700  32.7376600   8.1571510  43.6232340  31.5020550   7.3278110
  44.2654570  30.8013710   7.4410280  44.1481690  32.2818990   7.1475000
  45.3969960  32.3015450  10.5314170  45.7326200  32.8882140  11.2092090
  44.4770300  32.1708160  10.7611960  32.9473360  20.0910630  11.3137580
  32.2331880  20.2907550  11.9190190  33.3668400  19.3150200  11.6852380
  33.2345950  34.0790890  12.3004110  33.3437070  33.1385630  12.1599500
  32.5826510  34.3445640  11.6517840  41.2258540  32.3506780  13.7002230
  40.9055410  31.6316020  14.2447920  40.5516900  33.0261850  13.7738290
  44.4412140  22.5832940   9.0639030  44.8092960  21.7628150   9.3918600
  43.5810340  22.6434830   9.4794680  41.4014130  25.2372530   9.2877000
  41.8999380  25.7118350   9.9528850  41.5437080  24.3136050   9.4947030
  43.8073630  20.5426490   2.7280260  43.6841410  20.5612620   1.7789770
  44.7558190  20.5905430   2.8478660  48.6080990  21.4540490  10.1305390
  48.1054590  22.1945890  10.4699200  49.4237650  21.8424490   9.8142180
  46.9003000  26.6973670   3.5766750  45.9593140  26.7123900   3.7514440
  47.2147070  25.9109630   4.0227050  48.9028580  33.8682520   5.2521010
  49.0276000  34.6913690   5.7244820  49.7694140  33.6573250   4.9045160
  36.3746110  35.9613730   4.9238140  37.1108590  35.4129190   5.1946710
  36.7587030  36.8269740   4.7844130  35.3804390  35.1459800  14.1123720
  36.1817120  35.4671850  14.5259120  34.8656210  34.7855380  14.8343630
  44.2169020  31.2539670  14.0599130  43.6107180  31.2771270  13.3194880
  43.9123130  30.5222710  14.5966380  45.6469390  34.9819960  12.6708540
  46.5991140  34.8977980  12.6208780  45.4997610  35.6461670  13.3442330
  33.1002200  27.6333260  13.0559770  33.6041220  27.0540540  13.6276000
  32.3609620  27.9173490  13.5936140  40.1540140  29.0404250  12.5895290
  39.3885810  29.6089250  12.5049960  40.3356100  28.7480460  11.6963520
  47.2963490  30.7709580  13.1470310  48.0372960  31.1085340  12.6437770
  46.5336170  30.9401640  12.5940080  35.1325280  25.7762850  13.9509840
  35.1730620  25.4776720  14.8595070  35.9870780  26.1770460  13.7917360
  37.0731090  24.3554950  11.9184330  36.5427550  23.8645900  11.2907670
  37.7419160  24.7839150  11.3842260  45.9709150  28.8224410  11.6825520
  46.3850170  28.9769490  12.5315940  45.0360150  28.9479630  11.8451300
  46.4431320  26.1620570  13.6864670  47.0252090  25.4072890  13.5985150
  46.6193090  26.6928010  12.9096150  37.5603390  21.3217320  11.9981620
  37.4660260  20.7038070  11.2732490  36.9800780  22.0483610  11.7711530
  40.3264830  19.8790560   9.0309010  39.8782130  19.9014820   8.1854560
  39.6930030  19.4809580   9.6279310  40.7324380  28.7744890   9.6521450
  41.1512490  29.6177620   9.4797690  39.8133010  28.9116930   9.4228230
  43.0688280  26.5061070  11.0359290  43.1884490  25.9102210  11.7754130
  43.9282280  26.5430760  10.6160590  45.4076180  27.0598260   9.6121800
  44.8811400  27.5840880   9.0086940  45.7507520  27.6925650  10.2431530
  38.5831800  35.0797900  10.7679180  38.0452890  35.8043960  10.4487880
  38.8365760  34.6028240   9.9776520  39.8357050  23.0482420  12.2935110
  40.4256740  22.7398270  12.9812930  39.0177290  22.5762170  12.4495010
  44.6550480  22.6648230  12.5268130  43.9666000  22.0029770  12.4618120
  45.3756500  22.2186500  12.9716590  41.4394010  36.3149110  11.0265830
  41.3652710  37.2184250  11.3338200  40.5372850  35.9961010  10.9987900
  32.8421300  33.6423700   4.3299450  33.1724310  32.7744760   4.0978090
  33.2712300  33.8482220   5.1604410  33.3311510  34.5094290   7.0681080
  32.8942500  34.6895090   7.9005230  33.8989190  35.2668910   6.9262800
  48.9673690  34.0111290  11.3558390  48.3675680  34.0703850  10.6122310
  49.0967590  33.0716270  11.4855240  33.1635940  27.0214520   3.4269960
  32.5084780  26.7526160   2.7829660  34.0013890  26.9119000   2.9771940
  50.6691570  29.3526690   4.0404230  51.0400400  28.5694010   3.6340200
  51.3093500  30.0415790   3.8621530  47.6525330  30.7363270   9.4534550
  46.8385170  31.1660430   9.7160340  48.0599530  31.3481680   8.8403600
  34.2011870  27.4067090   7.9673300  34.5684910  27.3194490   8.8469320
  33.6322690  26.6433640   7.8680160  49.0015730  25.8751470  10.9803770
  48.7701820  25.6464220  10.0801720  49.2620280  26.7951020  10.9348660
  33.7527870  24.3176180  11.8731720  32.8583920  24.2842940  12.2125430
  34.2925420  24.5162970  12.6382970  47.4403800  21.1007900  13.7583470
  48.3173980  21.1091300  14.1417470  47.4524640  20.3638740  13.1475820
  48.8867070  24.9537440   4.6471490  49.4104550  24.4600090   4.0161660
  49.4726490  25.0887800   5.3919060  49.0656790  25.0377310   8.1691040
  48.1159500  25.0040850   8.2836030  49.2469800  25.9477420   7.9340810
  34.2567580  18.5924510   6.2214940  34.9043770  18.0421890   5.7810100
  34.6769420  18.8467660   7.0430750  49.8054200  22.8471740   3.1201580
  49.6953480  22.6927780   4.0583850  50.5661790  22.3192680   2.8776990
  48.1519920  18.7865870   9.5784580  48.7892140  19.4000010   9.9443770
  48.2994810  18.8226530   8.6333810  47.7101380  35.4881870   2.9802820
  48.3060450  35.1666440   2.3037240  47.9679530  35.0153690   3.7716090
  34.0099580  18.7480180   8.9640260  33.6614400  19.2044000   9.7298440
  33.6787280  17.8537310   9.0462690  35.6163950  31.9199780  13.1293450
  35.5733580  31.5492690  14.0107910  35.7474960  32.8577350  13.2695270
  39.3169980  33.4759370   8.7303170  39.0761340  33.7433930   7.8433690
  40.2572620  33.6465100   8.7854030  41.5224400  19.9392060  12.4859680
  41.4613290  20.5313890  13.2355090  42.4624780  19.8318020  12.3409940
  44.1598960  19.5962120  12.1251970  44.7739370  19.9141410  11.4633050
  44.7048520  19.1110710  12.7447830  50.5774140  35.4953750   9.5313810
  50.0832420  35.8922620   8.8140940  49.9687430  34.8702960   9.9251090
  34.6820220  18.2756380  12.2391030  35.2303210  18.0944430  11.4757140
  34.7475530  17.4850490  12.7747340  35.4551980  34.8662030  10.2491230
  34.8612300  34.7346730  10.9881270  35.4475820  34.0300170   9.7833330
  44.9007000  18.1594260   8.4521260  44.0266840  18.4929370   8.2494190
  44.7917750  17.6867440   9.2773130  45.8078980  20.3665130   9.8362980
  45.4792340  19.5516890   9.4564710  46.7561280  20.3234940   9.7128670
  48.2613590  36.1377170   6.8100550  47.8016560  36.8892980   6.4358570
  47.6326050  35.4183640   6.7515350  35.0864210  32.2320410   9.1999270
  34.3598270  31.6125700   9.1325220  35.1473360  32.6261020   8.3297350
  38.6909310  34.4465410   5.9848680  39.2074330  33.8352770   5.4596940
  39.3406690  34.9494190   6.4759690  41.4304810  35.3373900   6.8117660
  41.7182620  35.0828200   5.9350670  41.9428030  34.7851260   7.4023230
  42.6481820  19.0764100   7.3914170  41.8653610  19.5509600   7.6710930
  42.3544750  18.1718930   7.2827350  47.2002890  19.7787200   5.4363260
  47.6410980  19.7232300   4.5884860  46.9310480  20.6945210   5.5073440
  49.0641460  19.4102440   3.4472080  49.0029860  18.4663660   3.3003100
  49.8433490  19.5182530   3.9925540  33.3694210  35.5494800   2.4096030
  33.2016250  34.9165480   3.1077920  32.5028720  35.7554200   2.0590220
  40.5336040  21.4950850   2.9030200  39.7210550  21.1207740   2.5626080
  41.0377680  20.7395930   3.2051390  45.0361020  18.1593300   4.1413270
  45.6390390  18.7313510   4.6161790  44.2954010  18.7232740   3.9187170
  41.4977170  36.2590000  14.1785860  42.4244480  36.0234270  14.2221820
  41.4827600  37.0862000  13.6971890  38.6840780  18.9234750  13.9427740
  38.4025050  19.4268350  13.1788560  39.0660480  18.1256500  13.5769870
  45.2856240  18.3388330  14.5208210  45.1721690  18.6582940  15.4159730
  46.1025980  18.7400840  14.2245490  48.0654730  35.4859860  14.0026900
  48.8580050  34.9909090  13.7952860  48.3587880  36.1650000  14.6102510
  44.1914390   7.5837310  59.9816910  44.1108440   6.6691920  59.7108620
  43.7778810   8.0804380  59.2756620  42.3232430   9.3616330  61.8626180
  41.5474530   8.8816770  62.1524750  42.9745360   8.6821980  61.6882340
  36.3398260   9.6736140  62.7401940  35.5083140   9.4184850  63.1398450
  36.9479240   9.7446910  63.4759860  46.3439860  13.7676520  60.6425310
  45.8821390  12.9963760  60.9712480  47.1565410  13.7942590  61.1477760
  36.3199520  13.7076230  62.9359960  36.6227560  12.8173970  62.7570180
  37.0643110  14.2646450  62.7082210  34.7490210   4.6338030  56.5244330
  33.8606910   4.9754000  56.4224210  35.0331400   4.4338350  55.6325160
  32.7123220   7.2343680  62.4084030  33.2839330   6.4665880  62.4087670
  32.7124760   7.5332440  61.4990640  42.5703170  16.0534530  60.2629300
  41.9514610  16.5092030  59.6923740  43.4254950  16.2085990  59.8619000
  41.7641420  12.0373520  61.8696340  41.6949700  11.0963460  61.7085470
  42.5261280  12.1274930  62.4418910  33.9548090   2.6428040  64.1952960
  33.7750930   1.7453790  64.4755720  33.5528170   3.1899910  64.8699910
  42.7946590   4.8443900  62.0965270  43.1711410   3.9715780  61.9838940
  42.6966100   5.1802600  61.2055710  36.9251600   3.2169530  57.5582710
  37.0318350   4.1173260  57.8651470  36.0143960   3.1687500  57.2677360
  46.5770710   2.3394340  59.0293610  47.3980330   1.8490910  59.0719090
  46.6104790   2.9292000  59.7825450  34.5734760   5.1388540  62.8035300
  35.2544870   5.4026910  63.4222700  34.2582810   4.2989410  63.1373310
  38.7659330   6.1855900  61.8907890  39.2737550   6.6836870  62.5312910
  39.2972570   5.4091100  61.7147250  43.4366520  10.9373770  57.6561210
  42.8183790  11.4023220  57.0923930  43.9489770  11.6301250  58.0730720
  38.2998280  10.4649640  64.3344810  37.9667660  11.0918560  64.9765880
  38.4764960  10.9911520  63.5546480  46.8132190   4.2794720  61.8021150
  46.1087760   4.5679610  62.3824260  47.1744350   5.0894830  61.4420710
  36.7310760   2.5364420  64.1641760  37.0727570   3.3806470  63.8695630
  35.7926570   2.6848160  64.2807100  32.8049720  11.6230300  55.0300840
  32.4277700  12.1117400  54.2985740  33.0622790  12.2955580  55.6607370
  48.4294970  13.8969850  64.0648630  47.7458490  14.5668960  64.0565300
  48.9689260  14.0950500  63.2993490  49.8819110   3.7249510  62.1930360
  48.9344020   3.7588490  62.3245790  50.2069100   4.5388460  62.5779720
  45.9653710  15.7413980  62.7793810  45.9780870  15.3376270  61.9116070
  45.4128930  16.5161270  62.6755240  47.2599130  12.4630200  57.8683980
  47.1495460  11.5204530  57.9933400  47.2567380  12.8245840  58.7546740
  45.3639150  10.6443820  64.1076420  45.7807940  10.4303930  63.2729880
  46.0878970  10.9016610  64.6785040  42.8019410   8.0895520  57.2246470
  41.8748690   8.0232900  57.4534940  42.9544230   9.0275650  57.1101710
  42.7888490   4.3612520  54.2213630  41.8492160   4.5226480  54.3066090
  43.1071750   5.0798200  53.6749620  49.3101250   9.0431040  64.1992660
  48.4819880   9.1124130  63.7242790  49.9051730   9.6285350  63.7308490
  46.8316700   9.6515820  57.7281720  46.2129120   9.3135370  57.0808020
  46.8141150   9.0075580  58.4360910  38.4076050   8.6160260  60.0066200
  38.0033050   7.9037510  59.5112100  38.4939170   8.2713500  60.8954240
  38.8757750  12.3027820  62.1705410  38.5786040  11.6973290  61.4913190
  39.8257570  12.3405130  62.0594770  37.1204670   5.3903470  63.7865240
  37.6719260   5.4998810  63.0118490  37.6348180   5.7641070  64.5020470
  45.0081400   8.8902630  54.7354470  45.4474680   8.0525060  54.5892290
  45.7209820   9.5232030  54.8218610  43.1176780  13.8298700  58.7035710
  43.5572690  14.5723030  58.2891100  43.0563670  14.0725270  59.6274670
  35.1080680   7.5105240  57.5072850  34.9878280   8.2367330  56.8954120
  34.7981570   6.7408150  57.0300760  32.7466050  10.6820380  63.3141490
  32.8246470  10.8169150  62.3697210  33.3607730   9.9736270  63.5069610
  33.9913680  12.3820570  59.7247670  33.5841760  12.5235160  58.8701270
  34.8826690  12.0980730  59.5218880  45.7846960  16.8167820  56.0598720
  45.6248100  16.5270760  56.9580550  45.6193670  16.0407950  55.5243950
  38.2635340  16.5966350  57.8370340  38.0877820  15.6801890  57.6238140
  37.4091080  16.9553640  58.0768140  45.4873090  14.3255380  54.6196720
  44.7938250  14.3232670  53.9599000  46.2295950  13.9014700  54.1890890
  45.0523020  15.9518090  58.6945210  45.5079970  15.1707470  59.0083830
  45.3915540  16.6624910  59.2386390  37.3658560   5.9773880  58.6177770
  37.1399480   5.7611050  59.5224390  36.5851090   6.4102340  58.2723740
  44.5956320   5.9837250  57.2168420  43.9965210   6.7073050  57.0332040
  45.1435930   5.9214030  56.4344870  43.2021190   4.6200790  59.2471700
  43.5950760   4.9372990  58.4340390  43.5638040   3.7412670  59.3616220
  32.4255590   5.1521710  52.6804620  32.3430260   6.0952470  52.8219610
  32.0738650   5.0096620  51.8016970  43.7876330   7.2106540  63.3422480
  43.0557450   7.7193350  63.6912580  43.3900670   6.3936520  63.0411260
  40.2253720   3.8860740  61.7474970  40.2289780   3.4450690  60.8979510
  41.1204840   4.2078070  61.8546790  36.0756100   3.7687230  60.7069180
  35.7356150   4.2462460  61.4636230  35.3133420   3.3152350  60.3470280
  40.2873870   4.8872820  54.7381730  40.4086690   4.8459300  55.6867550
  39.9022380   5.7496970  54.5828460  44.2502240   2.6640220  62.7545420
  44.2674980   3.1148870  63.5987270  44.0017820   1.7645860  62.9678860
  39.2995370   7.1973960  54.1365030  38.7312270   6.7492210  53.5100940
  40.0084370   7.5566740  53.6030180  40.5261690   7.9462520  63.4940380
  40.8931820   7.4721090  64.2401720  40.3366750   8.8204090  63.8348720
  33.3902180   2.6906210  59.6233850  33.1049100   2.3261880  60.4612470
  33.3281040   1.9586670  59.0096990  36.8442850  11.1932150  56.4091440
  36.0705110  10.6529770  56.2490160  37.5737480  10.6738760  56.0709200
  47.6030830  10.1897510  62.2017830  48.3229950  10.6852800  61.8113940
  47.4012650   9.5115400  61.5571700  45.7789160   5.9555120  54.6409380
  46.6668780   6.2672350  54.4660720  45.7494250   5.0827370  54.2489960
  36.8880250  10.8612530  60.0470250  37.4058920  10.0580790  59.9927140
  36.4364270  10.7991670  60.8887080  41.7749750  12.1278810  55.3197550
  42.1165450  12.8721040  54.8240870  40.9462460  12.4409930  55.6822380
  48.0503430   7.2666960  54.1089240  47.9667150   7.6981180  53.2585680
  48.7697620   7.7265310  54.5416060  49.0790680  14.1209220  56.8371370
  48.4366840  13.4664840  57.1115090  48.6921340  14.5264310  56.0612040
  44.6577160  11.4494650  60.6843060  45.0100980  10.8522780  60.0244430
  43.7739490  11.1238880  60.8551310  40.7440440  12.2092340  58.0913470
  41.4311570  12.7561550  58.4721060  39.9572860  12.7533070  58.1263080
  32.8832840   7.8265160  53.5830550  33.7527690   8.1089960  53.8666470
  32.3923160   8.6401030  53.4679360  40.0467650   9.2138370  57.7038830
  40.5030430  10.0243620  57.9299020  39.6955860   8.8961510  58.5357320
  43.6232340  12.7277060  63.6508580  44.2654570  12.0270220  63.7640750
  44.1481690  13.5075500  63.4705470  47.4688060  13.0125680  53.3747720
  47.2425640  12.2956120  53.9672360  47.0784260  12.7638120  52.5369470
  33.2504090  17.0392540  54.1492180  33.6101730  17.6381880  53.4949450
  33.1096430  17.5852430  54.9227210  47.0504310  10.9297620  55.0361880
  46.7626010  11.3910310  55.8239760  47.8456480  10.4695390  55.3046100
  39.2672710  14.4223740  54.9665850  39.2582810  15.1553430  54.3510360
  38.3471070  14.1755320  55.0592810  34.8679350   9.6438630  55.7112610
  34.2607300  10.3837530  55.7207910  35.3428700   9.7337990  54.8850810
  47.8074170   2.7646390  56.1957060  47.1787330   2.8692060  55.4815290
  47.3126090   2.9843170  56.9850940  42.2532310  14.4851980  53.6291040
  42.3544290  14.2815970  52.6993020  41.3534050  14.2310260  53.8338820
  39.7758200   5.0432340  57.6114940  39.0674350   5.5118680  58.0528550
  40.0602680   4.3854350  58.2460130  43.8073630   1.7683000  59.0510730
  43.6841410   1.7869130  58.1020240  44.7558190   1.8161940  59.1709130
  40.8950420  17.0038300  58.3238710  41.1491920  16.9659690  57.4018080
  39.9462900  16.8771630  58.3166960  37.9793220   3.3517420  54.9865650
  38.8283750   3.7887570  54.9205840  37.6124490   3.6637680  55.8137710
  46.9003000   7.9230180  59.8997220  45.9593140   7.9380410  60.0744910
  47.2147070   7.1366140  60.3457520  36.8784640   9.6049780  53.4601180
  37.6447910   9.4931140  54.0226610  36.9559330   8.9087750  52.8077950
  35.5731400   7.0374850  54.1434070  35.6534990   6.0902360  54.2551470
  36.4651150   7.3681730  54.2494730  48.9028580  15.0939030  61.5751480
  49.0276000  15.9170200  62.0475290  49.7694140  14.8829760  61.2275630
  36.3746110  17.1870240  61.2468610  37.1108590  16.6385700  61.5177180
  36.7587030  18.0526250  61.1074600  33.2591590  13.2543810  57.1210120
  32.3331370  13.4964950  57.1115530  33.7248020  14.0818070  56.9994870
  39.4848420  16.3600550  53.0694180  40.2777030  16.6489380  52.6175970
  38.9652770  15.9292720  52.3906660  48.5378590  15.5870680  54.4930920
  48.2520100  15.1735820  53.6785100  48.3398140  16.5158390  54.3731440
  40.0025820  11.5803960  52.9336530  39.8976460  10.9656310  53.6597910
  39.8350040  11.0569850  52.1499540  43.2428550  10.6423990  53.5378520
  42.6938650  11.0893290  54.1821260  43.8647810  10.1373240  54.0616190
  38.9103670   9.6014910  55.4343820  39.3320090   9.4354780  56.2775210
  39.0354510   8.7915140  54.9398960  41.4231310   8.6252520  52.6820920
  41.9436970   7.9101540  52.3162070  42.0699710   9.2638390  52.9821430
  37.8062570   5.6748140  52.3801980  37.6051630   4.8115500  52.7415320
  37.6354620   5.5881500  51.4423580  36.6045370   2.7748760  52.3679860
  36.9071270   2.7816190  51.4599010  37.3439960   2.4246620  52.8647520
  41.9879340  16.7064130  54.9722660  42.8830130  17.0449100  54.9941420
  42.0196970  15.9843540  54.3446940  35.6275500  12.0791180  53.2009660
  36.0650370  12.6220850  53.8567240  36.1123230  11.2538130  53.2106000
  32.8421300  14.8680210  60.6529920  33.1724310  14.0001270  60.4208560
  33.2712300  15.0738730  61.4834880  37.4383220  13.1989220  58.3131890
  37.1378760  13.0754190  59.2135800  37.3320710  12.3397810  57.9047620
  33.3311510  15.7350800  63.3911550  32.8942500  15.9151600  64.2235700
  33.8989190  16.4925420  63.2493270  50.2075140  12.9785620  53.0158570
  49.3768100  13.0462270  53.4865800  50.3846970  13.8689740  52.7125430
  49.6631600   9.7233100  55.5192770  50.4250510  10.2929750  55.6252460
  49.6785970   9.1560300  56.2901080  33.1635940   8.2471030  59.7500430
  32.5084780   7.9782670  59.1060130  34.0013890   8.1375510  59.3002410
  50.6691570  10.5783200  60.3634700  51.0400400   9.7950520  59.9570670
  51.3093500  11.2672300  60.1852000  49.7150770  10.0167470  52.6765290
  49.9899610  10.9246350  52.5484510  49.5261510   9.9530000  53.6127280
  46.1126380   3.0412320  53.9718920  46.5311260   2.8543300  53.1315580
  45.8062440   2.1891370  54.2821850  49.6116110   7.9536460  57.6694720
  49.2359710   7.1864390  57.2376010  48.8819230   8.3359160  58.1569650
  34.2011870   8.6323600  64.2903770  34.5684910   8.5451000  65.1699790
  33.6322690   7.8690150  64.1910630  32.3774020   5.4569960  55.6925760
  31.4738100   5.7200160  55.5177420  32.8614640   5.7281130  54.9125720
  48.8867070   6.1793950  60.9701960  49.4104550   5.6856600  60.3392130
  49.4726490   6.3144310  61.7149530  49.0656790   6.2633820  64.4921510
  48.1159500   6.2297360  64.6066500  49.2469800   7.1733930  64.2571280
  34.9201230   4.5135500  53.6020140  35.6292930   4.0918720  53.1167420
  34.2041170   4.5810730  52.9703490  48.3767040   5.4367300  56.9094370
  48.8726160   5.2038170  57.6943250  48.1783110   4.5979140  56.4932010
  49.8054200   4.0728250  59.4432050  49.6953480   3.9184290  60.3814320
  50.5661790   3.5449190  59.2007460  50.6944470   1.9036170  52.6838190
  51.6193780   1.7717350  52.4756480  50.6720260   1.9828990  53.6374640
  50.7682960   2.6746830  55.3094900  49.9734460   2.6091950  55.8387810
  50.9726240   3.6097470  55.2980250  47.7101380  16.7138380  59.3033290
  48.3060450  16.3922950  58.6267710  47.9679530  16.2410200  60.0946560
  39.3169980  14.7015880  65.0533640  39.0761340  14.9690440  64.1664160
  40.2572620  14.8721610  65.1084500  48.2613590  17.3633680  63.1331020
  47.8016560  18.1149490  62.7589040  47.6326050  16.6440150  63.0745820
  38.6909310  15.6721920  62.3079150  39.2074330  15.0609280  61.7827410
  39.3406690  16.1750700  62.7990160  41.4304810  16.5630410  63.1348130
  41.7182620  16.3084710  62.2581140  41.9428030  16.0107770  63.7253700
  33.3694210  16.7751310  58.7326500  33.2016250  16.1421990  59.4308390
  32.5028720  16.9810710  58.3820690  40.5336040   2.7207360  59.2260670
  39.7210550   2.3464250  58.8856550  41.0377680   1.9652440  59.5281860
  34.9756910  15.4684540  56.1776640  34.4504530  15.8492570  55.4738600
  34.9001490  16.0935310  56.8986350  49.7322230  17.0272080  57.4990580
  49.9074420  16.3409820  56.8551500  49.0343800  17.5519130  57.1067250
  37.5749880  17.4166920  55.0525890  38.3068700  17.1326200  54.5049780
  37.8343550  17.1780200  55.9425270  36.7364670  13.5331650  55.0572220
  36.1073550  14.0016750  55.6058050  36.8512500  12.6880870  55.4918410
  44.1914390   7.5837310  41.2073420  44.1108440   6.6691920  40.9365130
  43.7778810   8.0804380  40.5013130  42.3232430   9.3616330  43.0882690
  41.5474530   8.8816770  43.3781260  42.9745360   8.6821980  42.9138850
  36.3398260   9.6736140  43.9658450  35.5083140   9.4184850  44.3654960
  36.9479240   9.7446910  44.7016370  46.3439860  13.7676520  41.8681820
  45.8821390  12.9963760  42.1968990  47.1565410  13.7942590  42.3734270
  36.3199520  13.7076230  44.1616470  36.6227560  12.8173970  43.9826690
  37.0643110  14.2646450  43.9338720  34.7490210   4.6338030  37.7500840
  33.8606910   4.9754000  37.6480720  35.0331400   4.4338350  36.8581670
  32.7123220   7.2343680  43.6340540  33.2839330   6.4665880  43.6344180
  32.7124760   7.5332440  42.7247150  42.5703170  16.0534530  41.4885810
  41.9514610  16.5092030  40.9180250  43.4254950  16.2085990  41.0875510
  41.7641420  12.0373520  43.0952850  41.6949700  11.0963460  42.9341980
  42.5261280  12.1274930  43.6675420  33.9548090   2.6428040  45.4209470
  33.7750930   1.7453790  45.7012230  33.5528170   3.1899910  46.0956420
  42.7946590   4.8443900  43.3221780  43.1711410   3.9715780  43.2095450
  42.6966100   5.1802600  42.4312220  36.9251600   3.2169530  38.7839220
  37.0318350   4.1173260  39.0907980  36.0143960   3.1687500  38.4933870
  46.5770710   2.3394340  40.2550120  47.3980330   1.8490910  40.2975600
  46.6104790   2.9292000  41.0081960  34.5734760   5.1388540  44.0291810
  35.2544870   5.4026910  44.6479210  34.2582810   4.2989410  44.3629820
  38.7659330   6.1855900  43.1164400  39.2737550   6.6836870  43.7569420
  39.2972570   5.4091100  42.9403760  50.8670260   4.3561090  46.8193750
  50.1622430   4.7442800  46.3008860  51.1328180   5.0511380  47.4214680
  43.4366520  10.9373770  38.8817720  42.8183790  11.4023220  38.3180440
  43.9489770  11.6301250  39.2987230  38.2998280  10.4649640  45.5601320
  37.9667660  11.0918560  46.2022390  38.4764960  10.9911520  44.7802990
  46.8132190   4.2794720  43.0277660  46.1087760   4.5679610  43.6080770
  47.1744350   5.0894830  42.6677220  36.7310760   2.5364420  45.3898270
  37.0727570   3.3806470  45.0952140  35.7926570   2.6848160  45.5063610
  37.5117380  12.4330440  47.3750500  38.1291380  13.1081520  47.0934950
  36.6510500  12.8418420  47.2838000  32.8049720  11.6230300  36.2557350
  32.4277700  12.1117400  35.5242250  33.0622790  12.2955580  36.8863880
  48.4294970  13.8969850  45.2905140  47.7458490  14.5668960  45.2821810
  48.9689260  14.0950500  44.5250000  49.8819110   3.7249510  43.4186870
  48.9344020   3.7588490  43.5502300  50.2069100   4.5388460  43.8036230
  45.9653710  15.7413980  44.0050320  45.9780870  15.3376270  43.1372580
  45.4128930  16.5161270  43.9011750  47.2599130  12.4630200  39.0940490
  47.1495460  11.5204530  39.2189910  47.2567380  12.8245840  39.9803250
  45.3639150  10.6443820  45.3332930  45.7807940  10.4303930  44.4986390
  46.0878970  10.9016610  45.9041550  42.8019410   8.0895520  38.4502980
  41.8748690   8.0232900  38.6791450  42.9544230   9.0275650  38.3358220
  42.7888490   4.3612520  35.4470140  41.8492160   4.5226480  35.5322600
  43.1071750   5.0798200  34.9006130  49.3101250   9.0431040  45.4249170
  48.4819880   9.1124130  44.9499300  49.9051730   9.6285350  44.9565000
  46.8316700   9.6515820  38.9538230  46.2129120   9.3135370  38.3064530
  46.8141150   9.0075580  39.6617420  46.2743260   5.8300360  46.3704040
  45.8614440   6.6554070  46.6244030  45.5419210   5.2445400  46.1780400
  38.4076050   8.6160260  41.2322710  38.0033050   7.9037510  40.7368610
  38.4939170   8.2713500  42.1210750  38.8757750  12.3027820  43.3961920
  38.5786040  11.6973290  42.7169700  39.8257570  12.3405130  43.2851280
  37.1204670   5.3903470  45.0121750  37.6719260   5.4998810  44.2375000
  37.6348180   5.7641070  45.7276980  46.9643360  15.8759690  47.0585020
  46.4873920  16.6831880  46.8657630  46.2805150  15.2238020  47.2111230
  37.9676180  12.0409510  50.0469720  37.0704710  12.2649480  50.2943120
  37.9929050  12.1644450  49.0981120  45.0081400   8.8902630  35.9610980
  45.4474680   8.0525060  35.8148800  45.7209820   9.5232030  36.0475120
  36.7947400   8.9122830  48.6227090  36.6555170   9.7845630  48.9914490
  35.9128760   8.5695640  48.4775030  43.1176780  13.8298700  39.9292220
  43.5572690  14.5723030  39.5147610  43.0563670  14.0725270  40.8531180
  38.5927750  14.8544530  50.8312240  38.5643180  15.2587480  49.9640670
  38.4292720  13.9254890  50.6683840  35.1080680   7.5105240  38.7329360
  34.9878280   8.2367330  38.1210630  34.7981570   6.7408150  38.2557270
  50.5442570  15.6371630  52.1276410  51.0202290  16.1154520  52.8065490
  51.1649730  15.5689120  51.4021910  32.7466050  10.6820380  44.5398000
  32.8246470  10.8169150  43.5953720  33.3607730   9.9736270  44.7326120
  33.9913680  12.3820570  40.9504180  33.5841760  12.5235160  40.0957780
  34.8826690  12.0980730  40.7475390  49.9475820  12.8284480  49.2876420
  50.0738880  12.5896360  48.3693600  49.9897200  11.9969020  49.7598500
  43.8092560  16.5312480  47.8571230  44.3237230  16.4420490  48.6593660
  42.9661640  16.8772180  48.1499140  45.7846960  16.8167820  37.2855230
  45.6248100  16.5270760  38.1837060  45.6193670  16.0407950  36.7500460
  38.2635340  16.5966350  39.0626850  38.0877820  15.6801890  38.8494650
  37.4091080  16.9553640  39.3024650  45.4873090  14.3255380  35.8453230
  44.7938250  14.3232670  35.1855510  46.2295950  13.9014700  35.4147400
  45.0523020  15.9518090  39.9201720  45.5079970  15.1707470  40.2340340
  45.3915540  16.6624910  40.4642900  49.7999830   4.8816940  50.2526160
  49.1844100   5.3896610  49.7241620  49.4796250   3.9815270  50.1952100
  32.8025570  11.7234550  47.0792460  32.9656610  11.2539910  46.2611830
  33.2678020  11.2158110  47.7441300  41.8614150   3.7208830  47.7188350
  41.3993520   3.9291850  48.5308290  41.4592260   2.9068180  47.4159020
  46.8618660   4.9417780  48.8485010  46.0112250   4.6423530  49.1694080
  46.7020450   5.1859790  47.9368830  43.9568370   6.4419530  50.9483800
  44.2821780   5.6083280  50.6086030  44.7448700   6.9648050  51.0962130
  37.3658560   5.9773880  39.8434280  37.1399480   5.7611050  40.7480900
  36.5851090   6.4102340  39.4980250  44.5956320   5.9837250  38.4424930
  43.9965210   6.7073050  38.2588550  45.1435930   5.9214030  37.6601380
  39.8057770   6.8759460  50.5094550  39.7101370   5.9354190  50.3594950
  40.6489750   7.0974530  50.1142620  43.2021190   4.6200790  40.4728210
  43.5950760   4.9372990  39.6596900  43.5638040   3.7412670  40.5872730
  34.9368310   3.2873130  48.6628330  34.5431700   4.1348340  48.8701110
  34.2486710   2.6499500  48.8536970  41.5113360   3.3708100  51.7325070
  40.8211680   3.1780300  52.3671160  42.2545660   3.6542740  52.2649370
  32.4255590   5.1521710  33.9061130  32.3430260   6.0952470  34.0476120
  32.0738650   5.0096620  33.0273480  43.7876330   7.2106540  44.5678990
  43.0557450   7.7193350  44.9169090  43.3900670   6.3936520  44.2667770
  40.2253720   3.8860740  42.9731480  40.2289780   3.4450690  42.1236020
  41.1204840   4.2078070  43.0803300  36.0756100   3.7687230  41.9325690
  35.7356150   4.2462460  42.6892740  35.3133420   3.3152350  41.5726790
  40.2873870   4.8872820  35.9638240  40.4086690   4.8459300  36.9124060
  39.9022380   5.7496970  35.8084970  44.2502240   2.6640220  43.9801930
  44.2674980   3.1148870  44.8243780  44.0017820   1.7645860  44.1935370
  39.2995370   7.1973960  35.3621540  38.7312270   6.7492210  34.7357450
  40.0084370   7.5566740  34.8286690  34.3764550  11.0985980  49.2388270
  33.9919340  10.4579650  49.8371230  34.6876740  11.8022100  49.8083000
  40.5261690   7.9462520  44.7196890  40.8931820   7.4721090  45.4658230
  40.3366750   8.8204090  45.0605230  33.3902180   2.6906210  40.8490360
  33.1049100   2.3261880  41.6868980  33.3281040   1.9586670  40.2353500
  38.3161060   6.9871160  47.0381100  38.0118130   7.8663140  47.2631460
  39.2707520   7.0470950  47.0738540  36.8442850  11.1932150  37.6347950
  36.0705110  10.6529770  37.4746670  37.5737480  10.6738760  37.2965710
  47.6030830  10.1897510  43.4274340  48.3229950  10.6852800  43.0370450
  47.4012650   9.5115400  42.7828210  42.9849630  10.2606570  49.3143340
  42.9186940   9.3402240  49.0600930  42.3554770  10.3582010  50.0287980
  45.7789160   5.9555120  35.8665890  46.6668780   6.2672350  35.6917230
  45.7494250   5.0827370  35.4746470  36.8880250  10.8612530  41.2726760
  37.4058920  10.0580790  41.2183650  36.4364270  10.7991670  42.1143590
  41.7749750  12.1278810  36.5454060  42.1165450  12.8721040  36.0497380
  40.9462460  12.4409930  36.9078890  34.3724790   7.8273900  48.1852460
  34.0139730   8.4927750  48.7725800  34.0779350   6.9957450  48.5565080
  37.5737910   8.2858140  51.0692010  37.2738050   8.4315320  50.1719830
  38.3449150   7.7263430  50.9765400  42.9166360  13.0827140  49.0647140
  42.9310900  12.1508100  48.8466050  42.2091460  13.1686900  49.7036910
  48.0503430   7.2666960  35.3345750  47.9667150   7.6981180  34.4842190
  48.7697620   7.7265310  35.7672570  49.1277570   9.7234480  48.4115720
  48.4025760  10.3163260  48.2145110  49.6553030   9.7158020  47.6129090
  49.0790680  14.1209220  38.0627880  48.4366840  13.4664840  38.3371600
  48.6921340  14.5264310  37.2868550  44.6577160  11.4494650  41.9099570
  45.0100980  10.8522780  41.2500940  43.7739490  11.1238880  42.0807820
  40.7440440  12.2092340  39.3169980  41.4311570  12.7561550  39.6977570
  39.9572860  12.7533070  39.3519590  32.8832840   7.8265160  34.8087060
  33.7527690   8.1089960  35.0922980  32.3923160   8.6401030  34.6935870
  40.0467650   9.2138370  38.9295340  40.5030430  10.0243620  39.1555530
  39.6955860   8.8961510  39.7613830  42.3500260  14.7244710  46.1587640
  42.9942480  14.9304090  46.8361060  42.7129700  13.9633110  45.7058490
  43.6232340  12.7277060  44.8765090  44.2654570  12.0270220  44.9897260
  44.1481690  13.5075500  44.6961980  47.4688060  13.0125680  34.6004230
  47.2425640  12.2956120  35.1928870  47.0784260  12.7638120  33.7625980
  45.3969960  13.5271960  48.0801150  45.7326200  14.1138650  48.7579070
  44.4770300  13.3964670  48.3098940  33.2504090  17.0392540  35.3748690
  33.6101730  17.6381880  34.7205960  33.1096430  17.5852430  36.1483720
  47.0504310  10.9297620  36.2618390  46.7626010  11.3910310  37.0496270
  47.8456480  10.4695390  36.5302610  33.2345950  15.3047400  49.8491090
  33.3437070  14.3642140  49.7086480  32.5826510  15.5702150  49.2004820
  41.2258540  13.5763290  51.2489210  40.9055410  12.8572530  51.7934900
  40.5516900  14.2518360  51.3225270  39.2672710  14.4223740  36.1922360
  39.2582810  15.1553430  35.5766870  38.3471070  14.1755320  36.2849320
  34.8679350   9.6438630  36.9369120  34.2607300  10.3837530  36.9464420
  35.3428700   9.7337990  36.1107320  44.4412140   3.8089450  46.6126010
  44.8092960   2.9884660  46.9405580  43.5810340   3.8691340  47.0281660
  47.8074170   2.7646390  37.4213570  47.1787330   2.8692060  36.7071800
  47.3126090   2.9843170  38.2107450  42.2532310  14.4851980  34.8547550
  42.3544290  14.2815970  33.9249530  41.3534050  14.2310260  35.0595330
  39.7758200   5.0432340  38.8371450  39.0674350   5.5118680  39.2785060
  40.0602680   4.3854350  39.4716640  41.4014130   6.4629040  46.8363980
  41.8999380   6.9374860  47.5015830  41.5437080   5.5392560  47.0434010
  43.8073630   1.7683000  40.2767240  43.6841410   1.7869130  39.3276750
  44.7558190   1.8161940  40.3965640  40.8950420  17.0038300  39.5495220
  41.1491920  16.9659690  38.6274590  39.9462900  16.8771630  39.5423470
  37.9793220   3.3517420  36.2122160  38.8283750   3.7887570  36.1462350
  37.6124490   3.6637680  37.0394220  48.6080990   2.6797000  47.6792370
  48.1054590   3.4202400  48.0186180  49.4237650   3.0681000  47.3629160
  46.9003000   7.9230180  41.1253730  45.9593140   7.9380410  41.3001420
  47.2147070   7.1366140  41.5714030  36.8784640   9.6049780  34.6857690
  37.6447910   9.4931140  35.2483120  36.9559330   8.9087750  34.0334460
  35.5731400   7.0374850  35.3690580  35.6534990   6.0902360  35.4807980
  36.4651150   7.3681730  35.4751240  48.9028580  15.0939030  42.8007990
  49.0276000  15.9170200  43.2731800  49.7694140  14.8829760  42.4532140
  36.3746110  17.1870240  42.4725120  37.1108590  16.6385700  42.7433690
  36.7587030  18.0526250  42.3331110  33.2591590  13.2543810  38.3466630
  32.3331370  13.4964950  38.3372040  33.7248020  14.0818070  38.2251380
  35.3804390  16.3716310  51.6610700  36.1817120  16.6928360  52.0746100
  34.8656210  16.0111890  52.3830610  44.2169020  12.4796180  51.6086110
  43.6107180  12.5027780  50.8681860  43.9123130  11.7479220  52.1453360
  45.6469390  16.2076470  50.2195520  46.5991140  16.1234490  50.1695760
  45.4997610  16.8718180  50.8929310  48.5378590  15.5870680  35.7187430
  48.2520100  15.1735820  34.9041610  48.3398140  16.5158390  35.5987950
  33.1002200   8.8589770  50.6046750  33.6041220   8.2797050  51.1762980
  32.3609620   9.1430000  51.1423120  40.0025820  11.5803960  34.1593040
  39.8976460  10.9656310  34.8854420  39.8350040  11.0569850  33.3756050
  40.1540140  10.2660760  50.1382270  39.3885810  10.8345760  50.0536940
  40.3356100   9.9736970  49.2450500  43.2428550  10.6423990  34.7635030
  42.6938650  11.0893290  35.4077770  43.8647810  10.1373240  35.2872700
  47.2963490  11.9966090  50.6957290  48.0372960  12.3341850  50.1924750
  46.5336170  12.1658150  50.1427060  35.1325280   7.0019360  51.4996820
  35.1730620   6.7033230  52.4082050  35.9870780   7.4026970  51.3404340
  38.9103670   9.6014910  36.6600330  39.3320090   9.4354780  37.5031720
  39.0354510   8.7915140  36.1655470  37.0731090   5.5811460  49.4671310
  36.5427550   5.0902410  48.8394650  37.7419160   6.0095660  48.9329240
  41.4231310   8.6252520  33.9077430  41.9436970   7.9101540  33.5418580
  42.0699710   9.2638390  34.2077940  45.9709150  10.0480920  49.2312500
  46.3850170  10.2026000  50.0802920  45.0360150  10.1736140  49.3938280
  46.4431320   7.3877080  51.2351650  47.0252090   6.6329400  51.1472130
  46.6193090   7.9184520  50.4583130  37.5603390   2.5473830  49.5468600
  37.4660260   1.9294580  48.8219470  36.9800780   3.2740120  49.3198510
  40.7324380  10.0001400  47.2008430  41.1512490  10.8434130  47.0284670
  39.8133010  10.1373440  46.9715210  43.0688280   7.7317580  48.5846270
  43.1884490   7.1358720  49.3241110  43.9282280   7.7687270  48.1647570
  45.4076180   8.2854770  47.1608780  44.8811400   8.8097390  46.5573920
  45.7507520   8.9182160  47.7918510  37.8062570   5.6748140  33.6058490
  37.6051630   4.8115500  33.9671830  37.6354620   5.5881500  32.6680090
  38.5831800  16.3054410  48.3166160  38.0452890  17.0300470  47.9974860
  38.8365760  15.8284750  47.5263500  39.8357050   4.2738930  49.8422090
  40.4256740   3.9654780  50.5299910  39.0177290   3.8018680  49.9981990
  44.6550480   3.8904740  50.0755110  43.9666000   3.2286280  50.0105100
  45.3756500   3.4443010  50.5203570  36.6045370   2.7748760  33.5936370
  36.9071270   2.7816190  32.6855520  37.3439960   2.4246620  34.0904030
  41.4394010  17.5405620  48.5752810  41.3652710  18.4440760  48.8825180
  40.5372850  17.2217520  48.5474880  41.9879340  16.7064130  36.1979170
  42.8830130  17.0449100  36.2197930  42.0196970  15.9843540  35.5703450
  35.6275500  12.0791180  34.4266170  36.0650370  12.6220850  35.0823750
  36.1123230  11.2538130  34.4362510  32.8421300  14.8680210  41.8786430
  33.1724310  14.0001270  41.6465070  33.2712300  15.0738730  42.7091390
  37.4383220  13.1989220  39.5388400  37.1378760  13.0754190  40.4392310
  37.3320710  12.3397810  39.1304130  33.3311510  15.7350800  44.6168060
  32.8942500  15.9151600  45.4492210  33.8989190  16.4925420  44.4749780
  48.9673690  15.2367800  48.9045370  48.3675680  15.2960360  48.1609290
  49.0967590  14.2972780  49.0342220  50.2075140  12.9785620  34.2415080
  49.3768100  13.0462270  34.7122310  50.3846970  13.8689740  33.9381940
  49.6631600   9.7233100  36.7449280  50.4250510  10.2929750  36.8508970
  49.6785970   9.1560300  37.5157590  33.1635940   8.2471030  40.9756940
  32.5084780   7.9782670  40.3316640  34.0013890   8.1375510  40.5258920
  50.6691570  10.5783200  41.5891210  51.0400400   9.7950520  41.1827180
  51.3093500  11.2672300  41.4108510  47.6525330  11.9619780  47.0021530
  46.8385170  12.3916940  47.2647320  48.0599530  12.5738190  46.3890580
  49.7150770  10.0167470  33.9021800  49.9899610  10.9246350  33.7741020
  49.5261510   9.9530000  34.8383790  46.1126380   3.0412320  35.1975430
  46.5311260   2.8543300  34.3572090  45.8062440   2.1891370  35.5078360
  49.6116110   7.9536460  38.8951230  49.2359710   7.1864390  38.4632520
  48.8819230   8.3359160  39.3826160  34.2011870   8.6323600  45.5160280
  34.5684910   8.5451000  46.3956300  33.6322690   7.8690150  45.4167140
  49.0015730   7.1007980  48.5290750  48.7701820   6.8720730  47.6288700
  49.2620280   8.0207530  48.4835640  33.7527870   5.5432690  49.4218700
  32.8583920   5.5099450  49.7612410  34.2925420   5.7419480  50.1869950
  47.4403800   2.3264410  51.3070450  48.3173980   2.3347810  51.6904450
  47.4524640   1.5895250  50.6962800  32.3774020   5.4569960  36.9182270
  31.4738100   5.7200160  36.7433930  32.8614640   5.7281130  36.1382230
  48.8867070   6.1793950  42.1958470  49.4104550   5.6856600  41.5648640
  49.4726490   6.3144310  42.9406040  49.0656790   6.2633820  45.7178020
  48.1159500   6.2297360  45.8323010  49.2469800   7.1733930  45.4827790
  34.9201230   4.5135500  34.8276650  35.6292930   4.0918720  34.3423930
  34.2041170   4.5810730  34.1960000  48.3767040   5.4367300  38.1350880
  48.8726160   5.2038170  38.9199760  48.1783110   4.5979140  37.7188520
  49.8054200   4.0728250  40.6688560  49.6953480   3.9184290  41.6070830
  50.5661790   3.5449190  40.4263970  50.6944470   1.9036170  33.9094700
  51.6193780   1.7717350  33.7012990  50.6720260   1.9828990  34.8631150
  50.7682960   2.6746830  36.5351410  49.9734460   2.6091950  37.0644320
  50.9726240   3.6097470  36.5236760  47.7101380  16.7138380  40.5289800
  48.3060450  16.3922950  39.8524220  47.9679530  16.2410200  41.3203070
  35.6163950  13.1456290  50.6780430  35.5733580  12.7749200  51.5594890
  35.7474960  14.0833860  50.8182250  39.3169980  14.7015880  46.2790150
  39.0761340  14.9690440  45.3920670  40.2572620  14.8721610  46.3341010
  50.5774140  16.7210260  47.0800790  50.0832420  17.1179130  46.3627920
  49.9687430  16.0959470  47.4738070  35.4551980  16.0918540  47.7978210
  34.8612300  15.9603240  48.5368250  35.4475820  15.2556680  47.3320310
  48.2613590  17.3633680  44.3587530  47.8016560  18.1149490  43.9845550
  47.6326050  16.6440150  44.3002330  35.0864210  13.4576920  46.7486250
  34.3598270  12.8382210  46.6812200  35.1473360  13.8517530  45.8784330
  38.6909310  15.6721920  43.5335660  39.2074330  15.0609280  43.0083920
  39.3406690  16.1750700  44.0246670  41.4304810  16.5630410  44.3604640
  41.7182620  16.3084710  43.4837650  41.9428030  16.0107770  44.9510210
  33.3694210  16.7751310  39.9583010  33.2016250  16.1421990  40.6564900
  32.5028720  16.9810710  39.6077200  40.5336040   2.7207360  40.4517180
  39.7210550   2.3464250  40.1113060  41.0377680   1.9652440  40.7538370
  34.9756910  15.4684540  37.4033150  34.4504530  15.8492570  36.6995110
  34.9001490  16.0935310  38.1242860  41.4977170  17.4846510  51.7272840
  42.4244480  17.2490780  51.7708800  41.4827600  18.3118510  51.2458870
  49.7322230  17.0272080  38.7247090  49.9074420  16.3409820  38.0808010
  49.0343800  17.5519130  38.3323760  36.7364670  13.5331650  36.2828730
  36.1073550  14.0016750  36.8314560  36.8512500  12.6880870  36.7174920
  48.0654730  16.7116370  51.5513880  48.8580050  16.2165600  51.3439840
  48.3587880  17.3906510  52.1589490  44.1914390   7.5837310  22.4329930
  44.1108440   6.6691920  22.1621640  43.7778810   8.0804380  21.7269640
  42.3232430   9.3616330  24.3139200  41.5474530   8.8816770  24.6037770
  42.9745360   8.6821980  24.1395360  36.3398260   9.6736140  25.1914960
  35.5083140   9.4184850  25.5911470  36.9479240   9.7446910  25.9272880
  46.3439860  13.7676520  23.0938330  45.8821390  12.9963760  23.4225500
  47.1565410  13.7942590  23.5990780  36.3199520  13.7076230  25.3872980
  36.6227560  12.8173970  25.2083200  37.0643110  14.2646450  25.1595230
  34.7490210   4.6338030  18.9757350  33.8606910   4.9754000  18.8737230
  35.0331400   4.4338350  18.0838180  32.7123220   7.2343680  24.8597050
  33.2839330   6.4665880  24.8600690  32.7124760   7.5332440  23.9503660
  42.5703170  16.0534530  22.7142320  41.9514610  16.5092030  22.1436760
  43.4254950  16.2085990  22.3132020  41.7641420  12.0373520  24.3209360
  41.6949700  11.0963460  24.1598490  42.5261280  12.1274930  24.8931930
  33.9548090   2.6428040  26.6465980  33.7750930   1.7453790  26.9268740
  33.5528170   3.1899910  27.3212930  42.7946590   4.8443900  24.5478290
  43.1711410   3.9715780  24.4351960  42.6966100   5.1802600  23.6568730
  36.9251600   3.2169530  20.0095730  37.0318350   4.1173260  20.3164490
  36.0143960   3.1687500  19.7190380  46.5770710   2.3394340  21.4806630
  47.3980330   1.8490910  21.5232110  46.6104790   2.9292000  22.2338470
  34.5734760   5.1388540  25.2548320  35.2544870   5.4026910  25.8735720
  34.2582810   4.2989410  25.5886330  38.7659330   6.1855900  24.3420910
  39.2737550   6.6836870  24.9825930  39.2972570   5.4091100  24.1660270
  50.8670260   4.3561090  28.0450260  50.1622430   4.7442800  27.5265370
  51.1328180   5.0511380  28.6471190  43.4366520  10.9373770  20.1074230
  42.8183790  11.4023220  19.5436950  43.9489770  11.6301250  20.5243740
  38.2998280  10.4649640  26.7857830  37.9667660  11.0918560  27.4278900
  38.4764960  10.9911520  26.0059500  46.8132190   4.2794720  24.2534170
  46.1087760   4.5679610  24.8337280  47.1744350   5.0894830  23.8933730
  36.7310760   2.5364420  26.6154780  37.0727570   3.3806470  26.3208650
  35.7926570   2.6848160  26.7320120  32.8049720  11.6230300  17.4813860
  32.4277700  12.1117400  16.7498760  33.0622790  12.2955580  18.1120390
  48.4294970  13.8969850  26.5161650  47.7458490  14.5668960  26.5078320
  48.9689260  14.0950500  25.7506510  49.8819110   3.7249510  24.6443380
  48.9344020   3.7588490  24.7758810  50.2069100   4.5388460  25.0292740
  45.9653710  15.7413980  25.2306830  45.9780870  15.3376270  24.3629090
  45.4128930  16.5161270  25.1268260  47.2599130  12.4630200  20.3197000
  47.1495460  11.5204530  20.4446420  47.2567380  12.8245840  21.2059760
  45.3639150  10.6443820  26.5589440  45.7807940  10.4303930  25.7242900
  46.0878970  10.9016610  27.1298060  42.8019410   8.0895520  19.6759490
  41.8748690   8.0232900  19.9047960  42.9544230   9.0275650  19.5614730
  42.7888490   4.3612520  16.6726650  41.8492160   4.5226480  16.7579110
  43.1071750   5.0798200  16.1262640  49.3101250   9.0431040  26.6505680
  48.4819880   9.1124130  26.1755810  49.9051730   9.6285350  26.1821510
  46.8316700   9.6515820  20.1794740  46.2129120   9.3135370  19.5321040
  46.8141150   9.0075580  20.8873930  46.2743260   5.8300360  27.5960550
  45.8614440   6.6554070  27.8500540  45.5419210   5.2445400  27.4036910
  38.4076050   8.6160260  22.4579220  38.0033050   7.9037510  21.9625120
  38.4939170   8.2713500  23.3467260  38.8757750  12.3027820  24.6218430
  38.5786040  11.6973290  23.9426210  39.8257570  12.3405130  24.5107790
  37.1204670   5.3903470  26.2378260  37.6719260   5.4998810  25.4631510
  37.6348180   5.7641070  26.9533490  46.9643360  15.8759690  28.2841530
  46.4873920  16.6831880  28.0914140  46.2805150  15.2238020  28.4367740
  45.0081400   8.8902630  17.1867490  45.4474680   8.0525060  17.0405310
  45.7209820   9.5232030  17.2731630  36.7947400   8.9122830  29.8483600
  36.6555170   9.7845630  30.2171000  35.9128760   8.5695640  29.7031540
  43.1176780  13.8298700  21.1548730  43.5572690  14.5723030  20.7404120
  43.0563670  14.0725270  22.0787690  35.1080680   7.5105240  19.9585870
  34.9878280   8.2367330  19.3467140  34.7981570   6.7408150  19.4813780
  50.5442570  15.6371630  33.3532920  51.0202290  16.1154520  34.0322000
  51.1649730  15.5689120  32.6278420  32.7466050  10.6820380  25.7654510
  32.8246470  10.8169150  24.8210230  33.3607730   9.9736270  25.9582630
  33.9913680  12.3820570  22.1760690  33.5841760  12.5235160  21.3214290
  34.8826690  12.0980730  21.9731900  49.9475820  12.8284480  30.5132930
  50.0738880  12.5896360  29.5950110  49.9897200  11.9969020  30.9855010
  43.8092560  16.5312480  29.0827740  44.3237230  16.4420490  29.8850170
  42.9661640  16.8772180  29.3755650  45.7846960  16.8167820  18.5111740
  45.6248100  16.5270760  19.4093570  45.6193670  16.0407950  17.9756970
  38.2635340  16.5966350  20.2883360  38.0877820  15.6801890  20.0751160
  37.4091080  16.9553640  20.5281160  45.4873090  14.3255380  17.0709740
  44.7938250  14.3232670  16.4112020  46.2295950  13.9014700  16.6403910
  45.0523020  15.9518090  21.1458230  45.5079970  15.1707470  21.4596850
  45.3915540  16.6624910  21.6899410  49.7999830   4.8816940  31.4782670
  49.1844100   5.3896610  30.9498130  49.4796250   3.9815270  31.4208610
  32.8025570  11.7234550  28.3048970  32.9656610  11.2539910  27.4868340
  33.2678020  11.2158110  28.9697810  41.8614150   3.7208830  28.9444860
  41.3993520   3.9291850  29.7564800  41.4592260   2.9068180  28.6415530
  46.8618660   4.9417780  30.0741520  46.0112250   4.6423530  30.3950590
  46.7020450   5.1859790  29.1625340  43.9568370   6.4419530  32.1740310
  44.2821780   5.6083280  31.8342540  44.7448700   6.9648050  32.3218640
  37.3658560   5.9773880  21.0690790  37.1399480   5.7611050  21.9737410
  36.5851090   6.4102340  20.7236760  44.5956320   5.9837250  19.6681440
  43.9965210   6.7073050  19.4845060  45.1435930   5.9214030  18.8857890
  39.8057770   6.8759460  31.7351060  39.7101370   5.9354190  31.5851460
  40.6489750   7.0974530  31.3399130  43.2021190   4.6200790  21.6984720
  43.5950760   4.9372990  20.8853410  43.5638040   3.7412670  21.8129240
  34.9368310   3.2873130  29.8884840  34.5431700   4.1348340  30.0957620
  34.2486710   2.6499500  30.0793480  41.5113360   3.3708100  32.9581580
  40.8211680   3.1780300  33.5927670  42.2545660   3.6542740  33.4905880
  32.4255590   5.1521710  15.1317640  32.3430260   6.0952470  15.2732630
  32.0738650   5.0096620  14.2529990  43.7876330   7.2106540  25.7935500
  43.0557450   7.7193350  26.1425600  43.3900670   6.3936520  25.4924280
  40.2253720   3.8860740  24.1987990  40.2289780   3.4450690  23.3492530
  41.1204840   4.2078070  24.3059810  36.0756100   3.7687230  23.1582200
  35.7356150   4.2462460  23.9149250  35.3133420   3.3152350  22.7983300
  40.2873870   4.8872820  17.1894750  40.4086690   4.8459300  18.1380570
  39.9022380   5.7496970  17.0341480  44.2502240   2.6640220  25.2058440
  44.2674980   3.1148870  26.0500290  44.0017820   1.7645860  25.4191880
  39.2995370   7.1973960  16.5878050  38.7312270   6.7492210  15.9613960
  40.0084370   7.5566740  16.0543200  34.3764550  11.0985980  30.4644780
  33.9919340  10.4579650  31.0627740  34.6876740  11.8022100  31.0339510
  40.5261690   7.9462520  25.9453400  40.8931820   7.4721090  26.6914740
  40.3366750   8.8204090  26.2861740  33.3902180   2.6906210  22.0746870
  33.1049100   2.3261880  22.9125490  33.3281040   1.9586670  21.4610010
  38.3161060   6.9871160  28.2637610  38.0118130   7.8663140  28.4887970
  39.2707520   7.0470950  28.2995050  36.8442850  11.1932150  18.8604460
  36.0705110  10.6529770  18.7003180  37.5737480  10.6738760  18.5222220
  47.6030830  10.1897510  24.6530850  48.3229950  10.6852800  24.2626960
  47.4012650   9.5115400  24.0084720  42.9849630  10.2606570  30.5399850
  42.9186940   9.3402240  30.2857440  42.3554770  10.3582010  31.2544490
  45.7789160   5.9555120  17.0922400  46.6668780   6.2672350  16.9173740
  45.7494250   5.0827370  16.7002980  36.8880250  10.8612530  22.4983270
  37.4058920  10.0580790  22.4440160  36.4364270  10.7991670  23.3400100
  41.7749750  12.1278810  17.7710570  42.1165450  12.8721040  17.2753890
  40.9462460  12.4409930  18.1335400  34.3724790   7.8273900  29.4108970
  34.0139730   8.4927750  29.9982310  34.0779350   6.9957450  29.7821590
  37.5737910   8.2858140  32.2948520  37.2738050   8.4315320  31.3976340
  38.3449150   7.7263430  32.2021910  42.9166360  13.0827140  30.2903650
  42.9310900  12.1508100  30.0722560  42.2091460  13.1686900  30.9293420
  48.0503430   7.2666960  16.5602260  47.9667150   7.6981180  15.7098700
  48.7697620   7.7265310  16.9929080  49.1277570   9.7234480  29.6372230
  48.4025760  10.3163260  29.4401620  49.6553030   9.7158020  28.8385600
  49.0790680  14.1209220  19.2884390  48.4366840  13.4664840  19.5628110
  48.6921340  14.5264310  18.5125060  44.6577160  11.4494650  23.1356080
  45.0100980  10.8522780  22.4757450  43.7739490  11.1238880  23.3064330
  40.7440440  12.2092340  20.5426490  41.4311570  12.7561550  20.9234080
  39.9572860  12.7533070  20.5776100  32.8832840   7.8265160  16.0343570
  33.7527690   8.1089960  16.3179490  32.3923160   8.6401030  15.9192380
  40.0467650   9.2138370  20.1551850  40.5030430  10.0243620  20.3812040
  39.6955860   8.8961510  20.9870340  42.3500260  14.7244710  27.3844150
  42.9942480  14.9304090  28.0617570  42.7129700  13.9633110  26.9315000
  43.6232340  12.7277060  26.1021600  44.2654570  12.0270220  26.2153770
  44.1481690  13.5075500  25.9218490  47.4688060  13.0125680  15.8260740
  47.2425640  12.2956120  16.4185380  47.0784260  12.7638120  14.9882490
  45.3969960  13.5271960  29.3057660  45.7326200  14.1138650  29.9835580
  44.4770300  13.3964670  29.5355450  33.2504090  17.0392540  16.6005200
  33.6101730  17.6381880  15.9462470  33.1096430  17.5852430  17.3740230
  47.0504310  10.9297620  17.4874900  46.7626010  11.3910310  18.2752780
  47.8456480  10.4695390  17.7559120  33.2345950  15.3047400  31.0747600
  33.3437070  14.3642140  30.9342990  32.5826510  15.5702150  30.4261330
  41.2258540  13.5763290  32.4745720  40.9055410  12.8572530  33.0191410
  40.5516900  14.2518360  32.5481780  39.2672710  14.4223740  17.4178870
  39.2582810  15.1553430  16.8023380  38.3471070  14.1755320  17.5105830
  34.8679350   9.6438630  18.1625630  34.2607300  10.3837530  18.1720930
  35.3428700   9.7337990  17.3363830  44.4412140   3.8089450  27.8382520
  44.8092960   2.9884660  28.1662090  43.5810340   3.8691340  28.2538170
  47.8074170   2.7646390  18.6470080  47.1787330   2.8692060  17.9328310
  47.3126090   2.9843170  19.4363960  42.2532310  14.4851980  16.0804060
  42.3544290  14.2815970  15.1506040  41.3534050  14.2310260  16.2851840
  39.7758200   5.0432340  20.0627960  39.0674350   5.5118680  20.5041570
  40.0602680   4.3854350  20.6973150  41.4014130   6.4629040  28.0620490
  41.8999380   6.9374860  28.7272340  41.5437080   5.5392560  28.2690520
  43.8073630   1.7683000  21.5023750  43.6841410   1.7869130  20.5533260
  44.7558190   1.8161940  21.6222150  40.8950420  17.0038300  20.7751730
  41.1491920  16.9659690  19.8531100  39.9462900  16.8771630  20.7679980
  37.9793220   3.3517420  17.4378670  38.8283750   3.7887570  17.3718860
  37.6124490   3.6637680  18.2650730  48.6080990   2.6797000  28.9048880
  48.1054590   3.4202400  29.2442690  49.4237650   3.0681000  28.5885670
  46.9003000   7.9230180  22.3510240  45.9593140   7.9380410  22.5257930
  47.2147070   7.1366140  22.7970540  36.8784640   9.6049780  15.9114200
  37.6447910   9.4931140  16.4739630  36.9559330   8.9087750  15.2590970
  35.5731400   7.0374850  16.5947090  35.6534990   6.0902360  16.7064490
  36.4651150   7.3681730  16.7007750  48.9028580  15.0939030  24.0264500
  49.0276000  15.9170200  24.4988310  49.7694140  14.8829760  23.6788650
  36.3746110  17.1870240  23.6981630  37.1108590  16.6385700  23.9690200
  36.7587030  18.0526250  23.5587620  33.2591590  13.2543810  19.5723140
  32.3331370  13.4964950  19.5628550  33.7248020  14.0818070  19.4507890
  39.4848420  16.3600550  15.5207200  40.2777030  16.6489380  15.0688990
  38.9652770  15.9292720  14.8419680  44.2169020  12.4796180  32.8342620
  43.6107180  12.5027780  32.0938370  43.9123130  11.7479220  33.3709870
  45.6469390  16.2076470  31.4452030  46.5991140  16.1234490  31.3952270
  45.4997610  16.8718180  32.1185820  48.5378590  15.5870680  16.9443940
  48.2520100  15.1735820  16.1298120  48.3398140  16.5158390  16.8244460
  33.1002200   8.8589770  31.8303260  33.6041220   8.2797050  32.4019490
  32.3609620   9.1430000  32.3679630  40.0025820  11.5803960  15.3849550
  39.8976460  10.9656310  16.1110930  39.8350040  11.0569850  14.6012560
  40.1540140  10.2660760  31.3638780  39.3885810  10.8345760  31.2793450
  40.3356100   9.9736970  30.4707010  43.2428550  10.6423990  15.9891540
  42.6938650  11.0893290  16.6334280  43.8647810  10.1373240  16.5129210
  47.2963490  11.9966090  31.9213800  48.0372960  12.3341850  31.4181260
  46.5336170  12.1658150  31.3683570  35.1325280   7.0019360  32.7253330
  35.1730620   6.7033230  33.6338560  35.9870780   7.4026970  32.5660850
  38.9103670   9.6014910  17.8856840  39.3320090   9.4354780  18.7288230
  39.0354510   8.7915140  17.3911980  37.0731090   5.5811460  30.6927820
  36.5427550   5.0902410  30.0651160  37.7419160   6.0095660  30.1585750
  41.4231310   8.6252520  15.1333940  41.9436970   7.9101540  14.7675090
  42.0699710   9.2638390  15.4334450  45.9709150  10.0480920  30.4569010
  46.3850170  10.2026000  31.3059430  45.0360150  10.1736140  30.6194790
  46.4431320   7.3877080  32.4608160  47.0252090   6.6329400  32.3728640
  46.6193090   7.9184520  31.6839640  37.5603390   2.5473830  30.7725110
  37.4660260   1.9294580  30.0475980  36.9800780   3.2740120  30.5455020
  40.7324380  10.0001400  28.4264940  41.1512490  10.8434130  28.2541180
  39.8133010  10.1373440  28.1971720  43.0688280   7.7317580  29.8102780
  43.1884490   7.1358720  30.5497620  43.9282280   7.7687270  29.3904080
  45.4076180   8.2854770  28.3865290  44.8811400   8.8097390  27.7830430
  45.7507520   8.9182160  29.0175020  37.8062570   5.6748140  14.8315000
  37.6051630   4.8115500  15.1928340  37.6354620   5.5881500  13.8936600
  39.8357050   4.2738930  31.0678600  40.4256740   3.9654780  31.7556420
  39.0177290   3.8018680  31.2238500  44.6550480   3.8904740  31.3011620
  43.9666000   3.2286280  31.2361610  45.3756500   3.4443010  31.7460080
  36.6045370   2.7748760  14.8192880  36.9071270   2.7816190  13.9112030
  37.3439960   2.4246620  15.3160540  41.9879340  16.7064130  17.4235680
  42.8830130  17.0449100  17.4454440  42.0196970  15.9843540  16.7959960
  35.6275500  12.0791180  15.6522680  36.0650370  12.6220850  16.3080260
  36.1123230  11.2538130  15.6619020  32.8421300  14.8680210  23.1042940
  33.1724310  14.0001270  22.8721580  33.2712300  15.0738730  23.9347900
  37.4383220  13.1989220  20.7644910  37.1378760  13.0754190  21.6648820
  37.3320710  12.3397810  20.3560640  33.3311510  15.7350800  25.8424570
  32.8942500  15.9151600  26.6748720  33.8989190  16.4925420  25.7006290
  48.9673690  15.2367800  30.1301880  48.3675680  15.2960360  29.3865800
  49.0967590  14.2972780  30.2598730  50.2075140  12.9785620  15.4671590
  49.3768100  13.0462270  15.9378820  50.3846970  13.8689740  15.1638450
  49.6631600   9.7233100  17.9705790  50.4250510  10.2929750  18.0765480
  49.6785970   9.1560300  18.7414100  33.1635940   8.2471030  22.2013450
  32.5084780   7.9782670  21.5573150  34.0013890   8.1375510  21.7515430
  50.6691570  10.5783200  22.8147720  51.0400400   9.7950520  22.4083690
  51.3093500  11.2672300  22.6365020  47.6525330  11.9619780  28.2278040
  46.8385170  12.3916940  28.4903830  48.0599530  12.5738190  27.6147090
  49.7150770  10.0167470  15.1278310  49.9899610  10.9246350  14.9997530
  49.5261510   9.9530000  16.0640300  46.1126380   3.0412320  16.4231940
  46.5311260   2.8543300  15.5828600  45.8062440   2.1891370  16.7334870
  49.6116110   7.9536460  20.1207740  49.2359710   7.1864390  19.6889030
  48.8819230   8.3359160  20.6082670  34.2011870   8.6323600  26.7416790
  34.5684910   8.5451000  27.6212810  33.6322690   7.8690150  26.6423650
  49.0015730   7.1007980  29.7547260  48.7701820   6.8720730  28.8545210
  49.2620280   8.0207530  29.7092150  33.7527870   5.5432690  30.6475210
  32.8583920   5.5099450  30.9868920  34.2925420   5.7419480  31.4126460
  47.4403800   2.3264410  32.5326960  48.3173980   2.3347810  32.9160960
  47.4524640   1.5895250  31.9219310  32.3774020   5.4569960  18.1438780
  31.4738100   5.7200160  17.9690440  32.8614640   5.7281130  17.3638740
  48.8867070   6.1793950  23.4214980  49.4104550   5.6856600  22.7905150
  49.4726490   6.3144310  24.1662550  49.0656790   6.2633820  26.9434530
  48.1159500   6.2297360  27.0579520  49.2469800   7.1733930  26.7084300
  34.9201230   4.5135500  16.0533160  35.6292930   4.0918720  15.5680440
  34.2041170   4.5810730  15.4216510  48.3767040   5.4367300  19.3607390
  48.8726160   5.2038170  20.1456270  48.1783110   4.5979140  18.9445030
  49.8054200   4.0728250  21.8945070  49.6953480   3.9184290  22.8327340
  50.5661790   3.5449190  21.6520480  50.6944470   1.9036170  15.1351210
  51.6193780   1.7717350  14.9269500  50.6720260   1.9828990  16.0887660
  50.7682960   2.6746830  17.7607920  49.9734460   2.6091950  18.2900830
  50.9726240   3.6097470  17.7493270  47.7101380  16.7138380  21.7546310
  48.3060450  16.3922950  21.0780730  47.9679530  16.2410200  22.5459580
  50.5774140  16.7210260  28.3057300  50.0832420  17.1179130  27.5884430
  49.9687430  16.0959470  28.6994580  48.2613590  17.3633680  25.5844040
  47.8016560  18.1149490  25.2102060  47.6326050  16.6440150  25.5258840
  35.0864210  13.4576920  27.9742760  34.3598270  12.8382210  27.9068710
  35.1473360  13.8517530  27.1040840  38.6909310  15.6721920  24.7592170
  39.2074330  15.0609280  24.2340430  39.3406690  16.1750700  25.2503180
  41.4304810  16.5630410  25.5861150  41.7182620  16.3084710  24.7094160
  41.9428030  16.0107770  26.1766720  33.3694210  16.7751310  21.1839520
  33.2016250  16.1421990  21.8821410  32.5028720  16.9810710  20.8333710
  40.5336040   2.7207360  21.6773690  39.7210550   2.3464250  21.3369570
  41.0377680   1.9652440  21.9794880  34.9756910  15.4684540  18.6289660
  34.4504530  15.8492570  17.9251620  34.9001490  16.0935310  19.3499370
  49.7322230  17.0272080  19.9503600  49.9074420  16.3409820  19.3064520
  49.0343800  17.5519130  19.5580270  37.5749880  17.4166920  17.5038910
  38.3068700  17.1326200  16.9562800  37.8343550  17.1780200  18.3938290
  36.7364670  13.5331650  17.5085240  36.1073550  14.0016750  18.0571070
  36.8512500  12.6880870  17.9431430  48.0654730  16.7116370  32.7770390
  48.8580050  16.2165600  32.5696350  48.3587880  17.3906510  33.3846000
  44.1914390   7.5837310   3.6586440  44.1108440   6.6691920   3.3878150
  43.7778810   8.0804380   2.9526150  42.3232430   9.3616330   5.5395710
  41.5474530   8.8816770   5.8294280  42.9745360   8.6821980   5.3651870
  36.3398260   9.6736140   6.4171470  35.5083140   9.4184850   6.8167980
  36.9479240   9.7446910   7.1529390  46.3439860  13.7676520   4.3194840
  45.8821390  12.9963760   4.6482010  47.1565410  13.7942590   4.8247290
  36.3199520  13.7076230   6.6129490  36.6227560  12.8173970   6.4339710
  37.0643110  14.2646450   6.3851740  32.7123220   7.2343680   6.0853560
  33.2839330   6.4665880   6.0857200  32.7124760   7.5332440   5.1760170
  42.5703170  16.0534530   3.9398830  41.9514610  16.5092030   3.3693270
  43.4254950  16.2085990   3.5388530  41.7641420  12.0373520   5.5465870
  41.6949700  11.0963460   5.3855000  42.5261280  12.1274930   6.1188440
  33.9548090   2.6428040   7.8722490  33.7750930   1.7453790   8.1525250
  33.5528170   3.1899910   8.5469440  42.7946590   4.8443900   5.7734800
  43.1711410   3.9715780   5.6608470  42.6966100   5.1802600   4.8825240
  46.5770710   2.3394340   2.7063140  47.3980330   1.8490910   2.7488620
  46.6104790   2.9292000   3.4594980  34.5734760   5.1388540   6.4804830
  35.2544870   5.4026910   7.0992230  34.2582810   4.2989410   6.8142840
  38.7659330   6.1855900   5.5677420  39.2737550   6.6836870   6.2082440
  39.2972570   5.4091100   5.3916780  50.8670260   4.3561090   9.2706770
  50.1622430   4.7442800   8.7521880  51.1328180   5.0511380   9.8727700
  38.2998280  10.4649640   8.0114340  37.9667660  11.0918560   8.6535410
  38.4764960  10.9911520   7.2316010  46.8132190   4.2794720   5.4790680
  46.1087760   4.5679610   6.0593790  47.1744350   5.0894830   5.1190240
  36.7310760   2.5364420   7.8411290  37.0727570   3.3806470   7.5465160
  35.7926570   2.6848160   7.9576630  37.5117380  12.4330440   9.8263520
  38.1291380  13.1081520   9.5447970  36.6510500  12.8418420   9.7351020
  48.4294970  13.8969850   7.7418160  47.7458490  14.5668960   7.7334830
  48.9689260  14.0950500   6.9763020  49.8819110   3.7249510   5.8699890
  48.9344020   3.7588490   6.0015320  50.2069100   4.5388460   6.2549250
  45.9653710  15.7413980   6.4563340  45.9780870  15.3376270   5.5885600
  45.4128930  16.5161270   6.3524770  45.3639150  10.6443820   7.7845950
  45.7807940  10.4303930   6.9499410  46.0878970  10.9016610   8.3554570
  49.3101250   9.0431040   7.8762190  48.4819880   9.1124130   7.4012320
  49.9051730   9.6285350   7.4078020  46.2743260   5.8300360   8.8217060
  45.8614440   6.6554070   9.0757050  45.5419210   5.2445400   8.6293420
  38.4076050   8.6160260   3.6835730  38.0033050   7.9037510   3.1881630
  38.4939170   8.2713500   4.5723770  38.8757750  12.3027820   5.8474940
  38.5786040  11.6973290   5.1682720  39.8257570  12.3405130   5.7364300
  37.1204670   5.3903470   7.4634770  37.6719260   5.4998810   6.6888020
  37.6348180   5.7641070   8.1790000  46.9643360  15.8759690   9.5098040
  46.4873920  16.6831880   9.3170650  46.2805150  15.2238020   9.6624250
  37.9676180  12.0409510  12.4982740  37.0704710  12.2649480  12.7456140
  37.9929050  12.1644450  11.5494140  36.7947400   8.9122830  11.0740110
  36.6555170   9.7845630  11.4427510  35.9128760   8.5695640  10.9288050
  43.1176780  13.8298700   2.3805240  43.5572690  14.5723030   1.9660630
  43.0563670  14.0725270   3.3044200  38.5927750  14.8544530  13.2825260
  38.5643180  15.2587480  12.4153690  38.4292720  13.9254890  13.1196860
  50.5442570  15.6371630  14.5789430  51.0202290  16.1154520  15.2578510
  51.1649730  15.5689120  13.8534930  32.7466050  10.6820380   6.9911020
  32.8246470  10.8169150   6.0466740  33.3607730   9.9736270   7.1839140
  33.9913680  12.3820570   3.4017200  33.5841760  12.5235160   2.5470800
  34.8826690  12.0980730   3.1988410  49.9475820  12.8284480  11.7389440
  50.0738880  12.5896360  10.8206620  49.9897200  11.9969020  12.2111520
  43.8092560  16.5312480  10.3084250  44.3237230  16.4420490  11.1106680
  42.9661640  16.8772180  10.6012160  45.0523020  15.9518090   2.3714740
  45.5079970  15.1707470   2.6853360  45.3915540  16.6624910   2.9155920
  49.7999830   4.8816940  12.7039180  49.1844100   5.3896610  12.1754640
  49.4796250   3.9815270  12.6465120  32.8025570  11.7234550   9.5305480
  32.9656610  11.2539910   8.7124850  33.2678020  11.2158110  10.1954320
  41.8614150   3.7208830  10.1701370  41.3993520   3.9291850  10.9821310
  41.4592260   2.9068180   9.8672040  46.8618660   4.9417780  11.2998030
  46.0112250   4.6423530  11.6207100  46.7020450   5.1859790  10.3881850
  43.9568370   6.4419530  13.3996820  44.2821780   5.6083280  13.0599050
  44.7448700   6.9648050  13.5475150  37.3658560   5.9773880   2.2947300
  37.1399480   5.7611050   3.1993920  36.5851090   6.4102340   1.9493270
  39.8057770   6.8759460  12.9607570  39.7101370   5.9354190  12.8107970
  40.6489750   7.0974530  12.5655640  43.2021190   4.6200790   2.9241230
  43.5950760   4.9372990   2.1109920  43.5638040   3.7412670   3.0385750
  34.9368310   3.2873130  11.1141350  34.5431700   4.1348340  11.3214130
  34.2486710   2.6499500  11.3049990  41.5113360   3.3708100  14.1838090
  40.8211680   3.1780300  14.8184180  42.2545660   3.6542740  14.7162390
  43.7876330   7.2106540   7.0192010  43.0557450   7.7193350   7.3682110
  43.3900670   6.3936520   6.7180790  40.2253720   3.8860740   5.4244500
  40.2289780   3.4450690   4.5749040  41.1204840   4.2078070   5.5316320
  36.0756100   3.7687230   4.3838710  35.7356150   4.2462460   5.1405760
  35.3133420   3.3152350   4.0239810  44.2502240   2.6640220   6.4314950
  44.2674980   3.1148870   7.2756800  44.0017820   1.7645860   6.6448390
  34.3764550  11.0985980  11.6901290  33.9919340  10.4579650  12.2884250
  34.6876740  11.8022100  12.2596020  40.5261690   7.9462520   7.1709910
  40.8931820   7.4721090   7.9171250  40.3366750   8.8204090   7.5118250
  33.3902180   2.6906210   3.3003380  33.1049100   2.3261880   4.1382000
  33.3281040   1.9586670   2.6866520  38.3161060   6.9871160   9.4894120
  38.0118130   7.8663140   9.7144480  39.2707520   7.0470950   9.5251560
  47.6030830  10.1897510   5.8787360  48.3229950  10.6852800   5.4883470
  47.4012650   9.5115400   5.2341230  42.9849630  10.2606570  11.7656360
  42.9186940   9.3402240  11.5113950  42.3554770  10.3582010  12.4801000
  36.8880250  10.8612530   3.7239780  37.4058920  10.0580790   3.6696670
  36.4364270  10.7991670   4.5656610  34.3724790   7.8273900  10.6365480
  34.0139730   8.4927750  11.2238820  34.0779350   6.9957450  11.0078100
  37.5737910   8.2858140  13.5205030  37.2738050   8.4315320  12.6232850
  38.3449150   7.7263430  13.4278420  42.9166360  13.0827140  11.5160160
  42.9310900  12.1508100  11.2979070  42.2091460  13.1686900  12.1549930
  49.1277570   9.7234480  10.8628740  48.4025760  10.3163260  10.6658130
  49.6553030   9.7158020  10.0642110  44.6577160  11.4494650   4.3612590
  45.0100980  10.8522780   3.7013960  43.7739490  11.1238880   4.5320840
  40.7440440  12.2092340   1.7683000  41.4311570  12.7561550   2.1490590
  39.9572860  12.7533070   1.8032610  42.3500260  14.7244710   8.6100660
  42.9942480  14.9304090   9.2874080  42.7129700  13.9633110   8.1571510
  43.6232340  12.7277060   7.3278110  44.2654570  12.0270220   7.4410280
  44.1481690  13.5075500   7.1475000  45.3969960  13.5271960  10.5314170
  45.7326200  14.1138650  11.2092090  44.4770300  13.3964670  10.7611960
  33.2345950  15.3047400  12.3004110  33.3437070  14.3642140  12.1599500
  32.5826510  15.5702150  11.6517840  41.2258540  13.5763290  13.7002230
  40.9055410  12.8572530  14.2447920  40.5516900  14.2518360  13.7738290
  44.4412140   3.8089450   9.0639030  44.8092960   2.9884660   9.3918600
  43.5810340   3.8691340   9.4794680  41.4014130   6.4629040   9.2877000
  41.8999380   6.9374860   9.9528850  41.5437080   5.5392560   9.4947030
  43.8073630   1.7683000   2.7280260  43.6841410   1.7869130   1.7789770
  44.7558190   1.8161940   2.8478660  48.6080990   2.6797000  10.1305390
  48.1054590   3.4202400  10.4699200  49.4237650   3.0681000   9.8142180
  46.9003000   7.9230180   3.5766750  45.9593140   7.9380410   3.7514440
  47.2147070   7.1366140   4.0227050  48.9028580  15.0939030   5.2521010
  49.0276000  15.9170200   5.7244820  49.7694140  14.8829760   4.9045160
  36.3746110  17.1870240   4.9238140  37.1108590  16.6385700   5.1946710
  36.7587030  18.0526250   4.7844130  35.3804390  16.3716310  14.1123720
  36.1817120  16.6928360  14.5259120  34.8656210  16.0111890  14.8343630
  44.2169020  12.4796180  14.0599130  43.6107180  12.5027780  13.3194880
  43.9123130  11.7479220  14.5966380  45.6469390  16.2076470  12.6708540
  46.5991140  16.1234490  12.6208780  45.4997610  16.8718180  13.3442330
  33.1002200   8.8589770  13.0559770  33.6041220   8.2797050  13.6276000
  32.3609620   9.1430000  13.5936140  40.1540140  10.2660760  12.5895290
  39.3885810  10.8345760  12.5049960  40.3356100   9.9736970  11.6963520
  47.2963490  11.9966090  13.1470310  48.0372960  12.3341850  12.6437770
  46.5336170  12.1658150  12.5940080  35.1325280   7.0019360  13.9509840
  35.1730620   6.7033230  14.8595070  35.9870780   7.4026970  13.7917360
  37.0731090   5.5811460  11.9184330  36.5427550   5.0902410  11.2907670
  37.7419160   6.0095660  11.3842260  45.9709150  10.0480920  11.6825520
  46.3850170  10.2026000  12.5315940  45.0360150  10.1736140  11.8451300
  46.4431320   7.3877080  13.6864670  47.0252090   6.6329400  13.5985150
  46.6193090   7.9184520  12.9096150  37.5603390   2.5473830  11.9981620
  37.4660260   1.9294580  11.2732490  36.9800780   3.2740120  11.7711530
  40.7324380  10.0001400   9.6521450  41.1512490  10.8434130   9.4797690
  39.8133010  10.1373440   9.4228230  43.0688280   7.7317580  11.0359290
  43.1884490   7.1358720  11.7754130  43.9282280   7.7687270  10.6160590
  45.4076180   8.2854770   9.6121800  44.8811400   8.8097390   9.0086940
  45.7507520   8.9182160  10.2431530  38.5831800  16.3054410  10.7679180
  38.0452890  17.0300470  10.4487880  38.8365760  15.8284750   9.9776520
  39.8357050   4.2738930  12.2935110  40.4256740   3.9654780  12.9812930
  39.0177290   3.8018680  12.4495010  44.6550480   3.8904740  12.5268130
  43.9666000   3.2286280  12.4618120  45.3756500   3.4443010  12.9716590
  41.4394010  17.5405620  11.0265830  41.3652710  18.4440760  11.3338200
  40.5372850  17.2217520  10.9987900  32.8421300  14.8680210   4.3299450
  33.1724310  14.0001270   4.0978090  33.2712300  15.0738730   5.1604410
  33.3311510  15.7350800   7.0681080  32.8942500  15.9151600   7.9005230
  33.8989190  16.4925420   6.9262800  48.9673690  15.2367800  11.3558390
  48.3675680  15.2960360  10.6122310  49.0967590  14.2972780  11.4855240
  33.1635940   8.2471030   3.4269960  32.5084780   7.9782670   2.7829660
  34.0013890   8.1375510   2.9771940  50.6691570  10.5783200   4.0404230
  51.0400400   9.7950520   3.6340200  51.3093500  11.2672300   3.8621530
  47.6525330  11.9619780   9.4534550  46.8385170  12.3916940   9.7160340
  48.0599530  12.5738190   8.8403600  34.2011870   8.6323600   7.9673300
  34.5684910   8.5451000   8.8469320  33.6322690   7.8690150   7.8680160
  49.0015730   7.1007980  10.9803770  48.7701820   6.8720730  10.0801720
  49.2620280   8.0207530  10.9348660  33.7527870   5.5432690  11.8731720
  32.8583920   5.5099450  12.2125430  34.2925420   5.7419480  12.6382970
  47.4403800   2.3264410  13.7583470  48.3173980   2.3347810  14.1417470
  47.4524640   1.5895250  13.1475820  48.8867070   6.1793950   4.6471490
  49.4104550   5.6856600   4.0161660  49.4726490   6.3144310   5.3919060
  49.0656790   6.2633820   8.1691040  48.1159500   6.2297360   8.2836030
  49.2469800   7.1733930   7.9340810  49.8054200   4.0728250   3.1201580
  49.6953480   3.9184290   4.0583850  50.5661790   3.5449190   2.8776990
  47.7101380  16.7138380   2.9802820  48.3060450  16.3922950   2.3037240
  47.9679530  16.2410200   3.7716090  35.6163950  13.1456290  13.1293450
  35.5733580  12.7749200  14.0107910  35.7474960  14.0833860  13.2695270
  39.3169980  14.7015880   8.7303170  39.0761340  14.9690440   7.8433690
  40.2572620  14.8721610   8.7854030  50.5774140  16.7210260   9.5313810
  50.0832420  17.1179130   8.8140940  49.9687430  16.0959470   9.9251090
  35.4551980  16.0918540  10.2491230  34.8612300  15.9603240  10.9881270
  35.4475820  15.2556680   9.7833330  48.2613590  17.3633680   6.8100550
  47.8016560  18.1149490   6.4358570  47.6326050  16.6440150   6.7515350
  35.0864210  13.4576920   9.1999270  34.3598270  12.8382210   9.1325220
  35.1473360  13.8517530   8.3297350  38.6909310  15.6721920   5.9848680
  39.2074330  15.0609280   5.4596940  39.3406690  16.1750700   6.4759690
  41.4304810  16.5630410   6.8117660  41.7182620  16.3084710   5.9350670
  41.9428030  16.0107770   7.4023230  33.3694210  16.7751310   2.4096030
  33.2016250  16.1421990   3.1077920  32.5028720  16.9810710   2.0590220
  40.5336040   2.7207360   2.9030200  39.7210550   2.3464250   2.5626080
  41.0377680   1.9652440   3.2051390  41.4977170  17.4846510  14.1785860
  42.4244480  17.2490780  14.2221820  41.4827600  18.3118510  13.6971890
  48.0654730  16.7116370  14.0026900  48.8580050  16.2165600  13.7952860
  48.3587880  17.3906510  14.6102510  25.4170900  63.9067780  59.9816910
  25.3364950  62.9922390  59.7108620  25.0035320  64.4034850  59.2756620
  23.5488940  65.6846800  61.8626180  22.7731040  65.2047240  62.1524750
  24.2001870  65.0052450  61.6882340  17.5654770  65.9966610  62.7401940
  16.7339650  65.7415320  63.1398450  18.1735750  66.0677380  63.4759860
  27.5696370  70.0906990  60.6425310  27.1077900  69.3194230  60.9712480
  28.3821920  70.1173060  61.1477760  17.5456030  70.0306700  62.9359960
  17.8484070  69.1404440  62.7570180  18.2899620  70.5876920  62.7082210
  15.9746720  60.9568500  56.5244330  15.0863420  61.2984470  56.4224210
  16.2587910  60.7568820  55.6325160  13.9379730  63.5574150  62.4084030
  14.5095840  62.7896350  62.4087670  13.9381270  63.8562910  61.4990640
  22.9897930  68.3603990  61.8696340  22.9206210  67.4193930  61.7085470
  23.7517790  68.4505400  62.4418910  15.1804600  58.9658510  64.1952960
  15.0007440  58.0684260  64.4755720  14.7784680  59.5130380  64.8699910
  24.0203100  61.1674370  62.0965270  24.3967920  60.2946250  61.9838940
  23.9222610  61.5033070  61.2055710  18.1508110  59.5400000  57.5582710
  18.2574860  60.4403730  57.8651470  17.2400470  59.4917970  57.2677360
  27.8027220  58.6624810  59.0293610  28.6236840  58.1721380  59.0719090
  27.8361300  59.2522470  59.7825450  15.7991270  61.4619010  62.8035300
  16.4801380  61.7257380  63.4222700  15.4839320  60.6219880  63.1373310
  19.9915840  62.5086370  61.8907890  20.4994060  63.0067340  62.5312910
  20.5229080  61.7321570  61.7147250  24.6623030  67.2604240  57.6561210
  24.0440300  67.7253690  57.0923930  25.1746280  67.9531720  58.0730720
  19.5254790  66.7880110  64.3344810  19.1924170  67.4149030  64.9765880
  19.7021470  67.3141990  63.5546480  28.0388700  60.6025190  61.8021150
  27.3344270  60.8910080  62.3824260  28.4000860  61.4125300  61.4420710
  17.9567270  58.8594890  64.1641760  18.2984080  59.7036940  63.8695630
  17.0183080  59.0078630  64.2807100  14.0306230  67.9460770  55.0300840
  13.6534210  68.4347870  54.2985740  14.2879300  68.6186050  55.6607370
  29.6551480  70.2200320  64.0648630  28.9715000  70.8899430  64.0565300
  30.1945770  70.4180970  63.2993490  31.1075620  60.0479980  62.1930360
  30.1600530  60.0818960  62.3245790  31.4325610  60.8618930  62.5779720
  21.6395160  56.3477160  60.4886350  21.9470140  55.7924050  59.7721850
  20.7095860  56.4821620  60.3059340  28.4855640  68.7860670  57.8683980
  28.3751970  67.8435000  57.9933400  28.4823890  69.1476310  58.7546740
  26.5895660  66.9674290  64.1076420  27.0064450  66.7534400  63.2729880
  27.3135480  67.2247080  64.6785040  24.0275920  64.4125990  57.2246470
  23.1005200  64.3463370  57.4534940  24.1800740  65.3506120  57.1101710
  24.0145000  60.6842990  54.2213630  23.0748670  60.8456950  54.3066090
  24.3328260  61.4028670  53.6749620  30.5357760  65.3661510  64.1992660
  29.7076390  65.4354600  63.7242790  31.1308240  65.9515820  63.7308490
  28.0573210  65.9746290  57.7281720  27.4385630  65.6365840  57.0808020
  28.0397660  65.3306050  58.4360910  19.6332560  64.9390730  60.0066200
  19.2289560  64.2267980  59.5112100  19.7195680  64.5943970  60.8954240
  20.1014260  68.6258290  62.1705410  19.8042550  68.0203760  61.4913190
  21.0514080  68.6635600  62.0594770  18.3461180  61.7133940  63.7865240
  18.8975770  61.8229280  63.0118490  18.8604690  62.0871540  64.5020470
  26.2337910  65.2133100  54.7354470  26.6731190  64.3755530  54.5892290
  26.9466330  65.8462500  54.8218610  24.3433290  70.1529170  58.7035710
  24.7829200  70.8953500  58.2891100  24.2820180  70.3955740  59.6274670
  29.8155050  56.4675910  53.0495510  29.5027710  56.5602740  53.9494580
  30.5767520  57.0456940  52.9992940  16.3337190  63.8335710  57.5072850
  16.2134790  64.5597800  56.8954120  16.0238080  63.0638620  57.0300760
  13.9722560  67.0050850  63.3141490  14.0502980  67.1399620  62.3697210
  14.5864240  66.2966740  63.5069610  15.2170190  68.7051040  59.7247670
  14.8098270  68.8465630  58.8701270  16.1083200  68.4211200  59.5218880
  26.7129600  70.6485850  54.6196720  26.0194760  70.6463140  53.9599000
  27.4552460  70.2245170  54.1890890  18.8000850  57.1770780  60.8896520
  18.3569000  57.9580320  60.5581040  19.3585840  57.5000670  61.5967460
  21.9159670  56.7981480  55.7702350  21.2913850  56.7941350  56.4955660
  21.8289790  55.9312440  55.3738320  20.8376750  57.7218110  62.7486120
  21.1349080  58.6280940  62.6678140  21.3862310  57.2336890  62.1345690
  18.5915070  62.3004350  58.6177770  18.3655990  62.0841520  59.5224390
  17.8107600  62.7332810  58.2723740  25.8212830  62.3067720  57.2168420
  25.2221720  63.0303520  57.0332040  26.3692440  62.2444500  56.4344870
  24.4277700  60.9431260  59.2471700  24.8207270  61.2603460  58.4340390
  24.7894550  60.0643140  59.3616220  13.4641870  57.5332060  61.4701900
  13.1754920  58.1034920  62.1826880  14.2087630  57.0536510  61.8333130
  13.6512100  61.4752180  52.6804620  13.5686770  62.4182940  52.8219610
  13.2995160  61.3327090  51.8016970  25.0132840  63.5337010  63.3422480
  24.2813960  64.0423820  63.6912580  24.6157180  62.7166990  63.0411260
  21.4510230  60.2091210  61.7474970  21.4546290  59.7681160  60.8979510
  22.3461350  60.5308540  61.8546790  17.3012610  60.0917700  60.7069180
  16.9612660  60.5692930  61.4636230  16.5389930  59.6382820  60.3470280
  21.5130380  61.2103290  54.7381730  21.6343200  61.1689770  55.6867550
  21.1278890  62.0727440  54.5828460  25.4758750  58.9870690  62.7545420
  25.4931490  59.4379340  63.5987270  25.2274330  58.0876330  62.9678860
  20.5251880  63.5204430  54.1365030  19.9568780  63.0722680  53.5100940
  21.2340880  63.8797210  53.6030180  21.7518200  64.2692990  63.4940380
  22.1188330  63.7951560  64.2401720  21.5623260  65.1434560  63.8348720
  14.6158690  59.0136680  59.6233850  14.3305610  58.6492350  60.4612470
  14.5537550  58.2817140  59.0096990  18.0699360  67.5162620  56.4091440
  17.2961620  66.9760240  56.2490160  18.7993990  66.9969230  56.0709200
  28.8287340  66.5127980  62.2017830  29.5486460  67.0083270  61.8113940
  28.6269160  65.8345870  61.5571700  24.2897280  57.9065940  56.3447220
  23.4761890  57.4079110  56.2692530  24.0959230  58.7464190  55.9283570
  27.0045670  62.2785590  54.6409380  27.8925290  62.5902820  54.4660720
  26.9750760  61.4057840  54.2489960  18.1136760  67.1843000  60.0470250
  18.6315430  66.3811260  59.9927140  17.6620780  67.1222140  60.8887080
  23.0006260  68.4509280  55.3197550  23.3421960  69.1951510  54.8240870
  22.1718970  68.7640400  55.6822380  29.2759940  63.5897430  54.1089240
  29.1923660  64.0211650  53.2585680  29.9954130  64.0495780  54.5416060
  30.3047190  70.4439690  56.8371370  29.6623350  69.7895310  57.1115090
  29.9177850  70.8494780  56.0612040  25.8833670  67.7725120  60.6843060
  26.2357490  67.1753250  60.0244430  24.9996000  67.4469350  60.8551310
  21.9696950  68.5322810  58.0913470  22.6568080  69.0792020  58.4721060
  21.1829370  69.0763540  58.1263080  14.1089350  64.1495630  53.5830550
  14.9784200  64.4320430  53.8666470  13.6179670  64.9631500  53.4679360
  21.2724160  65.5368840  57.7038830  21.7286940  66.3474090  57.9299020
  20.9212370  65.2191980  58.5357320  17.1735940  55.8806490  58.1761350
  17.0450570  55.8724390  59.1246270  16.3497960  56.2189580  57.8252360
  24.8488850  69.0507530  63.6508580  25.4911080  68.3500690  63.7640750
  25.3738200  69.8305970  63.4705470  28.6944570  69.3356150  53.3747720
  28.4682150  68.6186590  53.9672360  28.3040770  69.0868590  52.5369470
  28.2760820  67.2528090  55.0361880  27.9882520  67.7140780  55.8239760
  29.0712990  66.7925860  55.3046100  20.4929220  70.7454210  54.9665850
  20.4839320  71.4783900  54.3510360  19.5727580  70.4985790  55.0592810
  16.0935860  65.9669100  55.7112610  15.4863810  66.7068000  55.7207910
  16.5685210  66.0568460  54.8850810  29.0330680  59.0876860  56.1957060
  28.4043840  59.1922530  55.4815290  28.5382600  59.3073640  56.9850940
  23.4788820  70.8082450  53.6291040  23.5800800  70.6046440  52.6993020
  22.5790560  70.5540730  53.8338820  21.0014710  61.3662810  57.6114940
  20.2930860  61.8349150  58.0528550  21.2859190  60.7084820  58.2460130
  25.0330140  58.0913470  59.0510730  24.9097920  58.1099600  58.1020240
  25.9814700  58.1392410  59.1709130  19.2049730  59.6747890  54.9865650
  20.0540260  60.1118040  54.9205840  18.8381000  59.9868150  55.8137710
  28.1259510  64.2460650  59.8997220  27.1849650  64.2610880  60.0744910
  28.4403580  63.4596610  60.3457520  18.1041150  65.9280250  53.4601180
  18.8704420  65.8161610  54.0226610  18.1815840  65.2318220  52.8077950
  16.7987910  63.3605320  54.1434070  16.8791500  62.4132830  54.2551470
  17.6907660  63.6912200  54.2494730  14.4848100  69.5774280  57.1210120
  13.5587880  69.8195420  57.1115530  14.9504530  70.4048540  56.9994870
  21.2282330  67.9034430  52.9336530  21.1232970  67.2886780  53.6597910
  21.0606550  67.3800320  52.1499540  24.4685060  66.9654460  53.5378520
  23.9195160  67.4123760  54.1821260  25.0904320  66.4603710  54.0616190
  20.1360180  65.9245380  55.4343820  20.5576600  65.7585250  56.2775210
  20.2611020  65.1145610  54.9398960  22.6487820  64.9482990  52.6820920
  23.1693480  64.2332010  52.3162070  23.2956220  65.5868860  52.9821430
  19.0319080  61.9978610  52.3801980  18.8308140  61.1345970  52.7415320
  18.8611130  61.9111970  51.4423580  26.5107390  56.8086840  54.9088860
  26.7909680  55.9654740  55.2648280  25.7373120  57.0409950  55.4227610
  17.8301880  59.0979230  52.3679860  18.1327780  59.1046660  51.4599010
  18.5696470  58.7477090  52.8647520  21.0486810  58.0413850  53.3536060
  20.7008810  57.3637840  52.7738510  21.2499580  57.5803360  54.1679450
  16.8532010  68.4021650  53.2009660  17.2906880  68.9451320  53.8567240
  17.3379740  67.5768600  53.2106000  14.0677810  71.1910680  60.6529920
  14.3980820  70.3231740  60.4208560  14.4968810  71.3969200  61.4834880
  18.6639730  69.5219690  58.3131890  18.3635270  69.3984660  59.2135800
  18.5577220  68.6628280  57.9047620  31.4331650  69.3016090  53.0158570
  30.6024610  69.3692740  53.4865800  31.6103480  70.1920210  52.7125430
  30.8888110  66.0463570  55.5192770  31.6507020  66.6160220  55.6252460
  30.9042480  65.4790770  56.2901080  14.3892450  64.5701500  59.7500430
  13.7341290  64.3013140  59.1060130  15.2270400  64.4605980  59.3002410
  31.8948080  66.9013670  60.3634700  32.2656910  66.1180990  59.9570670
  32.5350010  67.5902770  60.1852000  30.9407280  66.3397940  52.6765290
  31.2156120  67.2476820  52.5484510  30.7518020  66.2760470  53.6127280
  27.3382890  59.3642790  53.9718920  27.7567770  59.1773770  53.1315580
  27.0318950  58.5121840  54.2821850  30.8372620  64.2766930  57.6694720
  30.4616220  63.5094860  57.2376010  30.1075740  64.6589630  58.1569650
  15.4268380  64.9554070  64.2903770  15.7941420  64.8681470  65.1699790
  14.8579200  64.1920620  64.1910630  13.6030530  61.7800430  55.6925760
  12.6994610  62.0430630  55.5177420  14.0871150  62.0511600  54.9125720
  30.1123580  62.5024420  60.9701960  30.6361060  62.0087070  60.3392130
  30.6983000  62.6374780  61.7149530  30.2913300  62.5864290  64.4921510
  29.3416010  62.5527830  64.6066500  30.4726310  63.4964400  64.2571280
  16.1457740  60.8365970  53.6020140  16.8549440  60.4149190  53.1167420
  15.4297680  60.9041200  52.9703490  15.7931900  56.8905300  52.6422790
  16.5160030  57.4314240  52.9604010  16.0656420  56.6168720  51.7664330
  29.6023550  61.7597770  56.9094370  30.0982670  61.5268640  57.6943250
  29.4039620  60.9209610  56.4932010  15.4824090  56.1411490  62.5445410
  16.1300280  55.5908870  62.1040570  15.9025930  56.3954640  63.3661220
  31.0310710  60.3958720  59.4432050  30.9209990  60.2414760  60.3814320
  31.7918300  59.8679660  59.2007460  31.9200980  58.2266640  52.6838190
  32.8450290  58.0947820  52.4756480  31.8976770  58.3059460  53.6374640
  31.9939470  58.9977300  55.3094900  31.1990970  58.9322420  55.8387810
  32.1982750  59.9327940  55.2980250  20.5426490  71.0246350  65.0533640
  20.3017850  71.2920910  64.1664160  21.4829130  71.1952080  65.1084500
  23.8738330  56.6251080  63.7144640  23.0910120  57.0996580  63.9941400
  23.5801260  55.7205910  63.6057820  28.4259400  57.3274180  61.7593730
  28.8667490  57.2719280  60.9115330  28.1566990  58.2432190  61.8303910
  30.2897970  56.9589420  59.7702550  30.2286370  56.0150640  59.6233570
  31.0690000  57.0669510  60.3156010  15.2178740  56.9298560  56.2358360
  15.9758100  57.0427440  55.6622390  14.7555910  57.7667760  56.1901790
  21.7592550  59.0437830  59.2260670  20.9467060  58.6694720  58.8856550
  22.2634190  58.2882910  59.5281860  26.2617530  55.7080280  60.4643740
  26.8646900  56.2800490  60.9392260  25.5210520  56.2719720  60.2417640
  29.4052130  56.1101840  55.7384020  29.6002760  57.0085290  56.0051450
  28.6182000  55.8788920  56.2316970  17.5903890  57.4562610  54.7760330
  18.1196650  56.6692410  54.6468280  18.2232210  58.1353800  55.0095860
  19.7841730  57.1937750  57.8305720  19.1544470  56.4925060  57.9975850
  19.2446870  57.9541880  57.6138880  17.9621180  69.8562120  55.0572220
  17.3330060  70.3247220  55.6058050  18.0769010  69.0111340  55.4918410
  25.4170900  63.9067780  41.2073420  25.3364950  62.9922390  40.9365130
  25.0035320  64.4034850  40.5013130  23.5488940  65.6846800  43.0882690
  22.7731040  65.2047240  43.3781260  24.2001870  65.0052450  42.9138850
  17.5654770  65.9966610  43.9658450  16.7339650  65.7415320  44.3654960
  18.1735750  66.0677380  44.7016370  27.5696370  70.0906990  41.8681820
  27.1077900  69.3194230  42.1968990  28.3821920  70.1173060  42.3734270
  17.5456030  70.0306700  44.1616470  17.8484070  69.1404440  43.9826690
  18.2899620  70.5876920  43.9338720  15.9746720  60.9568500  37.7500840
  15.0863420  61.2984470  37.6480720  16.2587910  60.7568820  36.8581670
  13.9379730  63.5574150  43.6340540  14.5095840  62.7896350  43.6344180
  13.9381270  63.8562910  42.7247150  22.9897930  68.3603990  43.0952850
  22.9206210  67.4193930  42.9341980  23.7517790  68.4505400  43.6675420
  15.1804600  58.9658510  45.4209470  15.0007440  58.0684260  45.7012230
  14.7784680  59.5130380  46.0956420  24.0203100  61.1674370  43.3221780
  24.3967920  60.2946250  43.2095450  23.9222610  61.5033070  42.4312220
  18.1508110  59.5400000  38.7839220  18.2574860  60.4403730  39.0907980
  17.2400470  59.4917970  38.4933870  27.8027220  58.6624810  40.2550120
  28.6236840  58.1721380  40.2975600  27.8361300  59.2522470  41.0081960
  15.7991270  61.4619010  44.0291810  16.4801380  61.7257380  44.6479210
  15.4839320  60.6219880  44.3629820  19.9915840  62.5086370  43.1164400
  20.4994060  63.0067340  43.7569420  20.5229080  61.7321570  42.9403760
  32.0926770  60.6791560  46.8193750  31.3878940  61.0673270  46.3008860
  32.3584690  61.3741850  47.4214680  18.2751940  57.1484930  47.3827820
  18.2770380  57.6657320  46.5773720  17.4456250  56.6715110  47.3597750
  24.6623030  67.2604240  38.8817720  24.0440300  67.7253690  38.3180440
  25.1746280  67.9531720  39.2987230  19.5254790  66.7880110  45.5601320
  19.1924170  67.4149030  46.2022390  19.7021470  67.3141990  44.7802990
  28.0388700  60.6025190  43.0277660  27.3344270  60.8910080  43.6080770
  28.4000860  61.4125300  42.6677220  17.9567270  58.8594890  45.3898270
  18.2984080  59.7036940  45.0952140  17.0183080  59.0078630  45.5063610
  18.7373890  68.7560910  47.3750500  19.3547890  69.4311990  47.0934950
  17.8767010  69.1648890  47.2838000  14.0306230  67.9460770  36.2557350
  13.6534210  68.4347870  35.5242250  14.2879300  68.6186050  36.8863880
  29.6551480  70.2200320  45.2905140  28.9715000  70.8899430  45.2821810
  30.1945770  70.4180970  44.5250000  31.1075620  60.0479980  43.4186870
  30.1600530  60.0818960  43.5502300  31.4325610  60.8618930  43.8036230
  21.6395160  56.3477160  41.7142860  21.9470140  55.7924050  40.9978360
  20.7095860  56.4821620  41.5315850  28.4855640  68.7860670  39.0940490
  28.3751970  67.8435000  39.2189910  28.4823890  69.1476310  39.9803250
  26.5895660  66.9674290  45.3332930  27.0064450  66.7534400  44.4986390
  27.3135480  67.2247080  45.9041550  24.0275920  64.4125990  38.4502980
  23.1005200  64.3463370  38.6791450  24.1800740  65.3506120  38.3358220
  24.0145000  60.6842990  35.4470140  23.0748670  60.8456950  35.5322600
  24.3328260  61.4028670  34.9006130  30.5357760  65.3661510  45.4249170
  29.7076390  65.4354600  44.9499300  31.1308240  65.9515820  44.9565000
  28.0573210  65.9746290  38.9538230  27.4385630  65.6365840  38.3064530
  28.0397660  65.3306050  39.6617420  27.4999770  62.1530830  46.3704040
  27.0870950  62.9784540  46.6244030  26.7675720  61.5675870  46.1780400
  19.6332560  64.9390730  41.2322710  19.2289560  64.2267980  40.7368610
  19.7195680  64.5943970  42.1210750  20.1014260  68.6258290  43.3961920
  19.8042550  68.0203760  42.7169700  21.0514080  68.6635600  43.2851280
  18.3461180  61.7133940  45.0121750  18.8975770  61.8229280  44.2375000
  18.8604690  62.0871540  45.7276980  19.1932690  68.3639980  50.0469720
  18.2961220  68.5879950  50.2943120  19.2185560  68.4874920  49.0981120
  26.2337910  65.2133100  35.9610980  26.6731190  64.3755530  35.8148800
  26.9466330  65.8462500  36.0475120  18.0203910  65.2353300  48.6227090
  17.8811680  66.1076100  48.9914490  17.1385270  64.8926110  48.4775030
  24.3433290  70.1529170  39.9292220  24.7829200  70.8953500  39.5147610
  24.2820180  70.3955740  40.8531180  19.8184260  71.1775000  50.8312240
  19.7899690  71.5817950  49.9640670  19.6549230  70.2485360  50.6683840
  29.8155050  56.4675910  34.2752020  29.5027710  56.5602740  35.1751090
  30.5767520  57.0456940  34.2249450  16.3337190  63.8335710  38.7329360
  16.2134790  64.5597800  38.1210630  16.0238080  63.0638620  38.2557270
  13.9722560  67.0050850  44.5398000  14.0502980  67.1399620  43.5953720
  14.5864240  66.2966740  44.7326120  15.2170190  68.7051040  40.9504180
  14.8098270  68.8465630  40.0957780  16.1083200  68.4211200  40.7475390
  31.1732330  69.1514950  49.2876420  31.2995390  68.9126830  48.3693600
  31.2153710  68.3199490  49.7598500  26.7129600  70.6485850  35.8453230
  26.0194760  70.6463140  35.1855510  27.4552460  70.2245170  35.4147400
  31.0256340  61.2047410  50.2526160  30.4100610  61.7127080  49.7241620
  30.7052760  60.3045740  50.1952100  14.0282080  68.0465020  47.0792460
  14.1913120  67.5770380  46.2611830  14.4934530  67.5388580  47.7441300
  18.8000850  57.1770780  42.1153030  18.3569000  57.9580320  41.7837550
  19.3585840  57.5000670  42.8223970  23.0870660  60.0439300  47.7188350
  22.6250030  60.2522320  48.5308290  22.6848770  59.2298650  47.4159020
  28.0875170  61.2648250  48.8485010  27.2368760  60.9654000  49.1694080
  27.9276960  61.5090260  47.9368830  25.1824880  62.7650000  50.9483800
  25.5078290  61.9313750  50.6086030  25.9705210  63.2878520  51.0962130
  21.9159670  56.7981480  36.9958860  21.2913850  56.7941350  37.7212170
  21.8289790  55.9312440  36.5994830  20.8376750  57.7218110  43.9742630
  21.1349080  58.6280940  43.8934650  21.3862310  57.2336890  43.3602200
  18.5915070  62.3004350  39.8434280  18.3655990  62.0841520  40.7480900
  17.8107600  62.7332810  39.4980250  25.8212830  62.3067720  38.4424930
  25.2221720  63.0303520  38.2588550  26.3692440  62.2444500  37.6601380
  21.0314280  63.1989930  50.5094550  20.9357880  62.2584660  50.3594950
  21.8746260  63.4205000  50.1142620  24.4277700  60.9431260  40.4728210
  24.8207270  61.2603460  39.6596900  24.7894550  60.0643140  40.5872730
  16.1624820  59.6103600  48.6628330  15.7688210  60.4578810  48.8701110
  15.4743220  58.9729970  48.8536970  22.7369870  59.6938570  51.7325070
  22.0468190  59.5010770  52.3671160  23.4802170  59.9773210  52.2649370
  13.4641870  57.5332060  42.6958410  13.1754920  58.1034920  43.4083390
  14.2087630  57.0536510  43.0589640  13.6512100  61.4752180  33.9061130
  13.5686770  62.4182940  34.0476120  13.2995160  61.3327090  33.0273480
  25.0132840  63.5337010  44.5678990  24.2813960  64.0423820  44.9169090
  24.6157180  62.7166990  44.2667770  21.4510230  60.2091210  42.9731480
  21.4546290  59.7681160  42.1236020  22.3461350  60.5308540  43.0803300
  17.3012610  60.0917700  41.9325690  16.9612660  60.5692930  42.6892740
  16.5389930  59.6382820  41.5726790  21.5130380  61.2103290  35.9638240
  21.6343200  61.1689770  36.9124060  21.1278890  62.0727440  35.8084970
  25.4758750  58.9870690  43.9801930  25.4931490  59.4379340  44.8243780
  25.2274330  58.0876330  44.1935370  20.5251880  63.5204430  35.3621540
  19.9568780  63.0722680  34.7357450  21.2340880  63.8797210  34.8286690
  28.9029500  56.4002870  49.8188310  29.2275270  55.6692530  50.3446290
  28.9386010  56.0816510  48.9169300  15.6021060  67.4216450  49.2388270
  15.2175850  66.7810120  49.8371230  15.9133250  68.1252570  49.8083000
  21.7518200  64.2692990  44.7196890  22.1188330  63.7951560  45.4658230
  21.5623260  65.1434560  45.0605230  14.6158690  59.0136680  40.8490360
  14.3305610  58.6492350  41.6868980  14.5537550  58.2817140  40.2353500
  19.5417570  63.3101630  47.0381100  19.2374640  64.1893610  47.2631460
  20.4964030  63.3701420  47.0738540  18.0699360  67.5162620  37.6347950
  17.2961620  66.9760240  37.4746670  18.7993990  66.9969230  37.2965710
  28.8287340  66.5127980  43.4274340  29.5486460  67.0083270  43.0370450
  28.6269160  65.8345870  42.7828210  24.2897280  57.9065940  37.5703730
  23.4761890  57.4079110  37.4949040  24.0959230  58.7464190  37.1540080
  24.2106140  66.5837040  49.3143340  24.1443450  65.6632710  49.0600930
  23.5811280  66.6812480  50.0287980  27.0045670  62.2785590  35.8665890
  27.8925290  62.5902820  35.6917230  26.9750760  61.4057840  35.4746470
  18.1136760  67.1843000  41.2726760  18.6315430  66.3811260  41.2183650
  17.6620780  67.1222140  42.1143590  23.0006260  68.4509280  36.5454060
  23.3421960  69.1951510  36.0497380  22.1718970  68.7640400  36.9078890
  15.5981300  64.1504370  48.1852460  15.2396240  64.8158220  48.7725800
  15.3035860  63.3187920  48.5565080  18.7994420  64.6088610  51.0692010
  18.4994560  64.7545790  50.1719830  19.5705660  64.0493900  50.9765400
  24.1422870  69.4057610  49.0647140  24.1567410  68.4738570  48.8466050
  23.4347970  69.4917370  49.7036910  29.2759940  63.5897430  35.3345750
  29.1923660  64.0211650  34.4842190  29.9954130  64.0495780  35.7672570
  30.3534080  66.0464950  48.4115720  29.6282270  66.6393730  48.2145110
  30.8809540  66.0388490  47.6129090  30.3047190  70.4439690  38.0627880
  29.6623350  69.7895310  38.3371600  29.9177850  70.8494780  37.2868550
  25.8833670  67.7725120  41.9099570  26.2357490  67.1753250  41.2500940
  24.9996000  67.4469350  42.0807820  21.9696950  68.5322810  39.3169980
  22.6568080  69.0792020  39.6977570  21.1829370  69.0763540  39.3519590
  14.1089350  64.1495630  34.8087060  14.9784200  64.4320430  35.0922980
  13.6179670  64.9631500  34.6935870  21.2724160  65.5368840  38.9295340
  21.7286940  66.3474090  39.1555530  20.9212370  65.2191980  39.7613830
  23.5756770  71.0475180  46.1587640  24.2198990  71.2534560  46.8361060
  23.9386210  70.2863580  45.7058490  17.1735940  55.8806490  39.4017860
  17.0450570  55.8724390  40.3502780  16.3497960  56.2189580  39.0508870
  24.8488850  69.0507530  44.8765090  25.4911080  68.3500690  44.9897260
  25.3738200  69.8305970  44.6961980  28.6944570  69.3356150  34.6004230
  28.4682150  68.6186590  35.1928870  28.3040770  69.0868590  33.7625980
  26.6226470  69.8502430  48.0801150  26.9582710  70.4369120  48.7579070
  25.7026810  69.7195140  48.3098940  14.1729870  57.6397610  48.8624560
  13.4588390  57.8394530  49.4677170  14.5924910  56.8637180  49.2339360
  28.2760820  67.2528090  36.2618390  27.9882520  67.7140780  37.0496270
  29.0712990  66.7925860  36.5302610  14.4602460  71.6277870  49.8491090
  14.5693580  70.6872610  49.7086480  13.8083020  71.8932620  49.2004820
  22.4515050  69.8993760  51.2489210  22.1311920  69.1803000  51.7934900
  21.7773410  70.5748830  51.3225270  20.4929220  70.7454210  36.1922360
  20.4839320  71.4783900  35.5766870  19.5727580  70.4985790  36.2849320
  16.0935860  65.9669100  36.9369120  15.4863810  66.7068000  36.9464420
  16.5685210  66.0568460  36.1107320  25.6668650  60.1319920  46.6126010
  26.0349470  59.3115130  46.9405580  24.8066850  60.1921810  47.0281660
  29.0330680  59.0876860  37.4213570  28.4043840  59.1922530  36.7071800
  28.5382600  59.3073640  38.2107450  23.4788820  70.8082450  34.8547550
  23.5800800  70.6046440  33.9249530  22.5790560  70.5540730  35.0595330
  21.0014710  61.3662810  38.8371450  20.2930860  61.8349150  39.2785060
  21.2859190  60.7084820  39.4716640  22.6270640  62.7859510  46.8363980
  23.1255890  63.2605330  47.5015830  22.7693590  61.8623030  47.0434010
  25.0330140  58.0913470  40.2767240  24.9097920  58.1099600  39.3276750
  25.9814700  58.1392410  40.3965640  19.2049730  59.6747890  36.2122160
  20.0540260  60.1118040  36.1462350  18.8381000  59.9868150  37.0394220
  29.8337500  59.0027470  47.6792370  29.3311100  59.7432870  48.0186180
  30.6494160  59.3911470  47.3629160  28.1259510  64.2460650  41.1253730
  27.1849650  64.2610880  41.3001420  28.4403580  63.4596610  41.5714030
  18.1041150  65.9280250  34.6857690  18.8704420  65.8161610  35.2483120
  18.1815840  65.2318220  34.0334460  16.7987910  63.3605320  35.3690580
  16.8791500  62.4132830  35.4807980  17.6907660  63.6912200  35.4751240
  14.4848100  69.5774280  38.3466630  13.5587880  69.8195420  38.3372040
  14.9504530  70.4048540  38.2251380  25.4425530  68.8026650  51.6086110
  24.8363690  68.8258250  50.8681860  25.1379640  68.0709690  52.1453360
  14.3258710  65.1820240  50.6046750  14.8297730  64.6027520  51.1762980
  13.5866130  65.4660470  51.1423120  21.2282330  67.9034430  34.1593040
  21.1232970  67.2886780  34.8854420  21.0606550  67.3800320  33.3756050
  21.3796650  66.5891230  50.1382270  20.6142320  67.1576230  50.0536940
  21.5612610  66.2967440  49.2450500  24.4685060  66.9654460  34.7635030
  23.9195160  67.4123760  35.4077770  25.0904320  66.4603710  35.2872700
  28.5220000  68.3196560  50.6957290  29.2629470  68.6572320  50.1924750
  27.7592680  68.4888620  50.1427060  16.3581790  63.3249830  51.4996820
  16.3987130  63.0263700  52.4082050  17.2127290  63.7257440  51.3404340
  20.1360180  65.9245380  36.6600330  20.5576600  65.7585250  37.5031720
  20.2611020  65.1145610  36.1655470  18.2987600  61.9041930  49.4671310
  17.7684060  61.4132880  48.8394650  18.9675670  62.3326130  48.9329240
  22.6487820  64.9482990  33.9077430  23.1693480  64.2332010  33.5418580
  23.2956220  65.5868860  34.2077940  27.1965660  66.3711390  49.2312500
  27.6106680  66.5256470  50.0802920  26.2616660  66.4966610  49.3938280
  27.6687830  63.7107550  51.2351650  28.2508600  62.9559870  51.1472130
  27.8449600  64.2414990  50.4583130  18.7859900  58.8704300  49.5468600
  18.6916770  58.2525050  48.8219470  18.2057290  59.5970590  49.3198510
  21.5521340  57.4277540  46.5795990  21.1038640  57.4501800  45.7341540
  20.9186540  57.0296560  47.1766290  21.9580890  66.3231870  47.2008430
  22.3769000  67.1664600  47.0284670  21.0389520  66.4603910  46.9715210
  24.2944790  64.0548050  48.5846270  24.4141000  63.4589190  49.3241110
  25.1538790  64.0917740  48.1647570  26.6332690  64.6085240  47.1608780
  26.1067910  65.1327860  46.5573920  26.9764030  65.2412630  47.7918510
  19.0319080  61.9978610  33.6058490  18.8308140  61.1345970  33.9671830
  18.8611130  61.9111970  32.6680090  21.0613560  60.5969400  49.8422090
  21.6513250  60.2885250  50.5299910  20.2433800  60.1249150  49.9981990
  25.8806990  60.2135210  50.0755110  25.1922510  59.5516750  50.0105100
  26.6013010  59.7673480  50.5203570  26.5107390  56.8086840  36.1345370
  26.7909680  55.9654740  36.4904790  25.7373120  57.0409950  36.6484120
  17.8301880  59.0979230  33.5936370  18.1327780  59.1046660  32.6855520
  18.5696470  58.7477090  34.0904030  21.0486810  58.0413850  34.5792570
  20.7008810  57.3637840  33.9995020  21.2499580  57.5803360  35.3935960
  16.8532010  68.4021650  34.4266170  17.2906880  68.9451320  35.0823750
  17.3379740  67.5768600  34.4362510  14.0677810  71.1910680  41.8786430
  14.3980820  70.3231740  41.6465070  14.4968810  71.3969200  42.7091390
  18.6639730  69.5219690  39.5388400  18.3635270  69.3984660  40.4392310
  18.5577220  68.6628280  39.1304130  30.1930200  71.5598270  48.9045370
  29.5932190  71.6190830  48.1609290  30.3224100  70.6203250  49.0342220
  31.4331650  69.3016090  34.2415080  30.6024610  69.3692740  34.7122310
  31.6103480  70.1920210  33.9381940  30.8888110  66.0463570  36.7449280
  31.6507020  66.6160220  36.8508970  30.9042480  65.4790770  37.5157590
  14.3892450  64.5701500  40.9756940  13.7341290  64.3013140  40.3316640
  15.2270400  64.4605980  40.5258920  31.8948080  66.9013670  41.5891210
  32.2656910  66.1180990  41.1827180  32.5350010  67.5902770  41.4108510
  28.8781840  68.2850250  47.0021530  28.0641680  68.7147410  47.2647320
  29.2856040  68.8968660  46.3890580  30.9407280  66.3397940  33.9021800
  31.2156120  67.2476820  33.7741020  30.7518020  66.2760470  34.8383790
  27.3382890  59.3642790  35.1975430  27.7567770  59.1773770  34.3572090
  27.0318950  58.5121840  35.5078360  30.8372620  64.2766930  38.8951230
  30.4616220  63.5094860  38.4632520  30.1075740  64.6589630  39.3826160
  15.4268380  64.9554070  45.5160280  15.7941420  64.8681470  46.3956300
  14.8579200  64.1920620  45.4167140  30.2272240  63.4238450  48.5290750
  29.9958330  63.1951200  47.6288700  30.4876790  64.3438000  48.4835640
  14.9784380  61.8663160  49.4218700  14.0840430  61.8329920  49.7612410
  15.5181930  62.0649950  50.1869950  28.6660310  58.6494880  51.3070450
  29.5430490  58.6578280  51.6904450  28.6781150  57.9125720  50.6962800
  13.6030530  61.7800430  36.9182270  12.6994610  62.0430630  36.7433930
  14.0871150  62.0511600  36.1382230  30.1123580  62.5024420  42.1958470
  30.6361060  62.0087070  41.5648640  30.6983000  62.6374780  42.9406040
  30.2913300  62.5864290  45.7178020  29.3416010  62.5527830  45.8323010
  30.4726310  63.4964400  45.4827790  16.1457740  60.8365970  34.8276650
  16.8549440  60.4149190  34.3423930  15.4297680  60.9041200  34.1960000
  15.7931900  56.8905300  33.8679300  16.5160030  57.4314240  34.1860520
  16.0656420  56.6168720  32.9920840  29.6023550  61.7597770  38.1350880
  30.0982670  61.5268640  38.9199760  29.4039620  60.9209610  37.7188520
  15.4824090  56.1411490  43.7701920  16.1300280  55.5908870  43.3297080
  15.9025930  56.3954640  44.5917730  31.0310710  60.3958720  40.6688560
  30.9209990  60.2414760  41.6070830  31.7918300  59.8679660  40.4263970
  29.3776430  56.3352850  47.1271560  30.0148650  56.9486990  47.4930750
  29.5251320  56.3713510  46.1820790  31.9200980  58.2266640  33.9094700
  32.8450290  58.0947820  33.7012990  31.8976770  58.3059460  34.8631150
  31.9939470  58.9977300  36.5351410  31.1990970  58.9322420  37.0644320
  32.1982750  59.9327940  36.5236760  15.2356090  56.2967160  46.5127240
  14.8870910  56.7530980  47.2785420  14.9043790  55.4024290  46.5949670
  16.8420460  69.4686760  50.6780430  16.7990090  69.0979670  51.5594890
  16.9731470  70.4064330  50.8182250  20.5426490  71.0246350  46.2790150
  20.3017850  71.2920910  45.3920670  21.4829130  71.1952080  46.3341010
  22.7480910  57.4879040  50.0346660  22.6869800  58.0800870  50.7842070
  23.6881290  57.3805000  49.8896920  25.3855470  57.1449100  49.6738950
  25.9995880  57.4628390  49.0120030  25.9305030  56.6597690  50.2934810
  15.9076730  55.8243360  49.7878010  16.4559720  55.6431410  49.0244120
  15.9732040  55.0337470  50.3234320  26.1263510  55.7081240  46.0008240
  25.2523350  56.0416350  45.7981170  26.0174260  55.2354420  46.8260110
  27.0335490  57.9152110  47.3849960  26.7048850  57.1003870  47.0051690
  27.9817790  57.8721920  47.2615650  16.3120720  69.7807390  46.7486250
  15.5854780  69.1612680  46.6812200  16.3729870  70.1748000  45.8784330
  23.8738330  56.6251080  44.9401150  23.0910120  57.0996580  45.2197910
  23.5801260  55.7205910  44.8314330  28.4259400  57.3274180  42.9850240
  28.8667490  57.2719280  42.1371840  28.1566990  58.2432190  43.0560420
  30.2897970  56.9589420  40.9959060  30.2286370  56.0150640  40.8490080
  31.0690000  57.0669510  41.5412520  15.2178740  56.9298560  37.4614870
  15.9758100  57.0427440  36.8878900  14.7555910  57.7667760  37.4158300
  21.7592550  59.0437830  40.4517180  20.9467060  58.6694720  40.1113060
  22.2634190  58.2882910  40.7538370  26.2617530  55.7080280  41.6900250
  26.8646900  56.2800490  42.1648770  25.5210520  56.2719720  41.4674150
  29.4052130  56.1101840  36.9640530  29.6002760  57.0085290  37.2307960
  28.6182000  55.8788920  37.4573480  17.5903890  57.4562610  36.0016840
  18.1196650  56.6692410  35.8724790  18.2232210  58.1353800  36.2352370
  19.7841730  57.1937750  39.0562230  19.1544470  56.4925060  39.2232360
  19.2446870  57.9541880  38.8395390  19.9097290  56.4721730  51.4914720
  19.6281560  56.9755330  50.7275540  20.2916990  55.6743480  51.1256850
  17.9621180  69.8562120  36.2828730  17.3330060  70.3247220  36.8314560
  18.0769010  69.0111340  36.7174920  26.5112750  55.8875310  52.0695190
  26.3978200  56.2069920  52.9646710  27.3282490  56.2887820  51.7732470
  25.4170900  63.9067780  22.4329930  25.3364950  62.9922390  22.1621640
  25.0035320  64.4034850  21.7269640  23.5488940  65.6846800  24.3139200
  22.7731040  65.2047240  24.6037770  24.2001870  65.0052450  24.1395360
  17.5654770  65.9966610  25.1914960  16.7339650  65.7415320  25.5911470
  18.1735750  66.0677380  25.9272880  27.5696370  70.0906990  23.0938330
  27.1077900  69.3194230  23.4225500  28.3821920  70.1173060  23.5990780
  17.5456030  70.0306700  25.3872980  17.8484070  69.1404440  25.2083200
  18.2899620  70.5876920  25.1595230  15.9746720  60.9568500  18.9757350
  15.0863420  61.2984470  18.8737230  16.2587910  60.7568820  18.0838180
  13.9379730  63.5574150  24.8597050  14.5095840  62.7896350  24.8600690
  13.9381270  63.8562910  23.9503660  22.9897930  68.3603990  24.3209360
  22.9206210  67.4193930  24.1598490  23.7517790  68.4505400  24.8931930
  15.1804600  58.9658510  26.6465980  15.0007440  58.0684260  26.9268740
  14.7784680  59.5130380  27.3212930  24.0203100  61.1674370  24.5478290
  24.3967920  60.2946250  24.4351960  23.9222610  61.5033070  23.6568730
  18.1508110  59.5400000  20.0095730  18.2574860  60.4403730  20.3164490
  17.2400470  59.4917970  19.7190380  27.8027220  58.6624810  21.4806630
  28.6236840  58.1721380  21.5232110  27.8361300  59.2522470  22.2338470
  15.7991270  61.4619010  25.2548320  16.4801380  61.7257380  25.8735720
  15.4839320  60.6219880  25.5886330  19.9915840  62.5086370  24.3420910
  20.4994060  63.0067340  24.9825930  20.5229080  61.7321570  24.1660270
  32.0926770  60.6791560  28.0450260  31.3878940  61.0673270  27.5265370
  32.3584690  61.3741850  28.6471190  18.2751940  57.1484930  28.6084330
  18.2770380  57.6657320  27.8030230  17.4456250  56.6715110  28.5854260
  24.6623030  67.2604240  20.1074230  24.0440300  67.7253690  19.5436950
  25.1746280  67.9531720  20.5243740  19.5254790  66.7880110  26.7857830
  19.1924170  67.4149030  27.4278900  19.7021470  67.3141990  26.0059500
  28.0388700  60.6025190  24.2534170  27.3344270  60.8910080  24.8337280
  28.4000860  61.4125300  23.8933730  17.9567270  58.8594890  26.6154780
  18.2984080  59.7036940  26.3208650  17.0183080  59.0078630  26.7320120
  18.7373890  68.7560910  28.6007010  19.3547890  69.4311990  28.3191460
  17.8767010  69.1648890  28.5094510  14.0306230  67.9460770  17.4813860
  13.6534210  68.4347870  16.7498760  14.2879300  68.6186050  18.1120390
  29.6551480  70.2200320  26.5161650  28.9715000  70.8899430  26.5078320
  30.1945770  70.4180970  25.7506510  31.1075620  60.0479980  24.6443380
  30.1600530  60.0818960  24.7758810  31.4325610  60.8618930  25.0292740
  21.6395160  56.3477160  22.9399370  21.9470140  55.7924050  22.2234870
  20.7095860  56.4821620  22.7572360  28.4855640  68.7860670  20.3197000
  28.3751970  67.8435000  20.4446420  28.4823890  69.1476310  21.2059760
  26.5895660  66.9674290  26.5589440  27.0064450  66.7534400  25.7242900
  27.3135480  67.2247080  27.1298060  24.0275920  64.4125990  19.6759490
  23.1005200  64.3463370  19.9047960  24.1800740  65.3506120  19.5614730
  24.0145000  60.6842990  16.6726650  23.0748670  60.8456950  16.7579110
  24.3328260  61.4028670  16.1262640  30.5357760  65.3661510  26.6505680
  29.7076390  65.4354600  26.1755810  31.1308240  65.9515820  26.1821510
  28.0573210  65.9746290  20.1794740  27.4385630  65.6365840  19.5321040
  28.0397660  65.3306050  20.8873930  27.4999770  62.1530830  27.5960550
  27.0870950  62.9784540  27.8500540  26.7675720  61.5675870  27.4036910
  19.6332560  64.9390730  22.4579220  19.2289560  64.2267980  21.9625120
  19.7195680  64.5943970  23.3467260  20.1014260  68.6258290  24.6218430
  19.8042550  68.0203760  23.9426210  21.0514080  68.6635600  24.5107790
  18.3461180  61.7133940  26.2378260  18.8975770  61.8229280  25.4631510
  18.8604690  62.0871540  26.9533490  19.1932690  68.3639980  31.2726230
  18.2961220  68.5879950  31.5199630  19.2185560  68.4874920  30.3237630
  26.2337910  65.2133100  17.1867490  26.6731190  64.3755530  17.0405310
  26.9466330  65.8462500  17.2731630  18.0203910  65.2353300  29.8483600
  17.8811680  66.1076100  30.2171000  17.1385270  64.8926110  29.7031540
  24.3433290  70.1529170  21.1548730  24.7829200  70.8953500  20.7404120
  24.2820180  70.3955740  22.0787690  19.8184260  71.1775000  32.0568750
  19.7899690  71.5817950  31.1897180  19.6549230  70.2485360  31.8940350
  29.8155050  56.4675910  15.5008530  29.5027710  56.5602740  16.4007600
  30.5767520  57.0456940  15.4505960  16.3337190  63.8335710  19.9585870
  16.2134790  64.5597800  19.3467140  16.0238080  63.0638620  19.4813780
  13.9722560  67.0050850  25.7654510  14.0502980  67.1399620  24.8210230
  14.5864240  66.2966740  25.9582630  15.2170190  68.7051040  22.1760690
  14.8098270  68.8465630  21.3214290  16.1083200  68.4211200  21.9731900
  31.1732330  69.1514950  30.5132930  31.2995390  68.9126830  29.5950110
  31.2153710  68.3199490  30.9855010  26.7129600  70.6485850  17.0709740
  26.0194760  70.6463140  16.4112020  27.4552460  70.2245170  16.6403910
  31.0256340  61.2047410  31.4782670  30.4100610  61.7127080  30.9498130
  30.7052760  60.3045740  31.4208610  14.0282080  68.0465020  28.3048970
  14.1913120  67.5770380  27.4868340  14.4934530  67.5388580  28.9697810
  18.8000850  57.1770780  23.3409540  18.3569000  57.9580320  23.0094060
  19.3585840  57.5000670  24.0480480  23.0870660  60.0439300  28.9444860
  22.6250030  60.2522320  29.7564800  22.6848770  59.2298650  28.6415530
  28.0875170  61.2648250  30.0741520  27.2368760  60.9654000  30.3950590
  27.9276960  61.5090260  29.1625340  25.1824880  62.7650000  32.1740310
  25.5078290  61.9313750  31.8342540  25.9705210  63.2878520  32.3218640
  21.9159670  56.7981480  18.2215370  21.2913850  56.7941350  18.9468680
  21.8289790  55.9312440  17.8251340  20.8376750  57.7218110  25.1999140
  21.1349080  58.6280940  25.1191160  21.3862310  57.2336890  24.5858710
  18.5915070  62.3004350  21.0690790  18.3655990  62.0841520  21.9737410
  17.8107600  62.7332810  20.7236760  25.8212830  62.3067720  19.6681440
  25.2221720  63.0303520  19.4845060  26.3692440  62.2444500  18.8857890
  21.0314280  63.1989930  31.7351060  20.9357880  62.2584660  31.5851460
  21.8746260  63.4205000  31.3399130  24.4277700  60.9431260  21.6984720
  24.8207270  61.2603460  20.8853410  24.7894550  60.0643140  21.8129240
  16.1624820  59.6103600  29.8884840  15.7688210  60.4578810  30.0957620
  15.4743220  58.9729970  30.0793480  22.7369870  59.6938570  32.9581580
  22.0468190  59.5010770  33.5927670  23.4802170  59.9773210  33.4905880
  13.4641870  57.5332060  23.9214920  13.1754920  58.1034920  24.6339900
  14.2087630  57.0536510  24.2846150  13.6512100  61.4752180  15.1317640
  13.5686770  62.4182940  15.2732630  13.2995160  61.3327090  14.2529990
  25.0132840  63.5337010  25.7935500  24.2813960  64.0423820  26.1425600
  24.6157180  62.7166990  25.4924280  21.4510230  60.2091210  24.1987990
  21.4546290  59.7681160  23.3492530  22.3461350  60.5308540  24.3059810
  17.3012610  60.0917700  23.1582200  16.9612660  60.5692930  23.9149250
  16.5389930  59.6382820  22.7983300  21.5130380  61.2103290  17.1894750
  21.6343200  61.1689770  18.1380570  21.1278890  62.0727440  17.0341480
  25.4758750  58.9870690  25.2058440  25.4931490  59.4379340  26.0500290
  25.2274330  58.0876330  25.4191880  20.5251880  63.5204430  16.5878050
  19.9568780  63.0722680  15.9613960  21.2340880  63.8797210  16.0543200
  28.9029500  56.4002870  31.0444820  29.2275270  55.6692530  31.5702800
  28.9386010  56.0816510  30.1425810  15.6021060  67.4216450  30.4644780
  15.2175850  66.7810120  31.0627740  15.9133250  68.1252570  31.0339510
  21.7518200  64.2692990  25.9453400  22.1188330  63.7951560  26.6914740
  21.5623260  65.1434560  26.2861740  14.6158690  59.0136680  22.0746870
  14.3305610  58.6492350  22.9125490  14.5537550  58.2817140  21.4610010
  19.5417570  63.3101630  28.2637610  19.2374640  64.1893610  28.4887970
  20.4964030  63.3701420  28.2995050  18.0699360  67.5162620  18.8604460
  17.2961620  66.9760240  18.7003180  18.7993990  66.9969230  18.5222220
  28.8287340  66.5127980  24.6530850  29.5486460  67.0083270  24.2626960
  28.6269160  65.8345870  24.0084720  24.2897280  57.9065940  18.7960240
  23.4761890  57.4079110  18.7205550  24.0959230  58.7464190  18.3796590
  24.2106140  66.5837040  30.5399850  24.1443450  65.6632710  30.2857440
  23.5811280  66.6812480  31.2544490  27.0045670  62.2785590  17.0922400
  27.8925290  62.5902820  16.9173740  26.9750760  61.4057840  16.7002980
  18.1136760  67.1843000  22.4983270  18.6315430  66.3811260  22.4440160
  17.6620780  67.1222140  23.3400100  23.0006260  68.4509280  17.7710570
  23.3421960  69.1951510  17.2753890  22.1718970  68.7640400  18.1335400
  15.5981300  64.1504370  29.4108970  15.2396240  64.8158220  29.9982310
  15.3035860  63.3187920  29.7821590  18.7994420  64.6088610  32.2948520
  18.4994560  64.7545790  31.3976340  19.5705660  64.0493900  32.2021910
  24.1422870  69.4057610  30.2903650  24.1567410  68.4738570  30.0722560
  23.4347970  69.4917370  30.9293420  29.2759940  63.5897430  16.5602260
  29.1923660  64.0211650  15.7098700  29.9954130  64.0495780  16.9929080
  30.3534080  66.0464950  29.6372230  29.6282270  66.6393730  29.4401620
  30.8809540  66.0388490  28.8385600  30.3047190  70.4439690  19.2884390
  29.6623350  69.7895310  19.5628110  29.9177850  70.8494780  18.5125060
  25.8833670  67.7725120  23.1356080  26.2357490  67.1753250  22.4757450
  24.9996000  67.4469350  23.3064330  21.9696950  68.5322810  20.5426490
  22.6568080  69.0792020  20.9234080  21.1829370  69.0763540  20.5776100
  14.1089350  64.1495630  16.0343570  14.9784200  64.4320430  16.3179490
  13.6179670  64.9631500  15.9192380  21.2724160  65.5368840  20.1551850
  21.7286940  66.3474090  20.3812040  20.9212370  65.2191980  20.9870340
  23.5756770  71.0475180  27.3844150  24.2198990  71.2534560  28.0617570
  23.9386210  70.2863580  26.9315000  17.1735940  55.8806490  20.6274370
  17.0450570  55.8724390  21.5759290  16.3497960  56.2189580  20.2765380
  24.8488850  69.0507530  26.1021600  25.4911080  68.3500690  26.2153770
  25.3738200  69.8305970  25.9218490  28.6944570  69.3356150  15.8260740
  28.4682150  68.6186590  16.4185380  28.3040770  69.0868590  14.9882490
  26.6226470  69.8502430  29.3057660  26.9582710  70.4369120  29.9835580
  25.7026810  69.7195140  29.5355450  14.1729870  57.6397610  30.0881070
  13.4588390  57.8394530  30.6933680  14.5924910  56.8637180  30.4595870
  28.2760820  67.2528090  17.4874900  27.9882520  67.7140780  18.2752780
  29.0712990  66.7925860  17.7559120  14.4602460  71.6277870  31.0747600
  14.5693580  70.6872610  30.9342990  13.8083020  71.8932620  30.4261330
  22.4515050  69.8993760  32.4745720  22.1311920  69.1803000  33.0191410
  21.7773410  70.5748830  32.5481780  20.4929220  70.7454210  17.4178870
  20.4839320  71.4783900  16.8023380  19.5727580  70.4985790  17.5105830
  16.0935860  65.9669100  18.1625630  15.4863810  66.7068000  18.1720930
  16.5685210  66.0568460  17.3363830  25.6668650  60.1319920  27.8382520
  26.0349470  59.3115130  28.1662090  24.8066850  60.1921810  28.2538170
  29.0330680  59.0876860  18.6470080  28.4043840  59.1922530  17.9328310
  28.5382600  59.3073640  19.4363960  23.4788820  70.8082450  16.0804060
  23.5800800  70.6046440  15.1506040  22.5790560  70.5540730  16.2851840
  21.0014710  61.3662810  20.0627960  20.2930860  61.8349150  20.5041570
  21.2859190  60.7084820  20.6973150  22.6270640  62.7859510  28.0620490
  23.1255890  63.2605330  28.7272340  22.7693590  61.8623030  28.2690520
  25.0330140  58.0913470  21.5023750  24.9097920  58.1099600  20.5533260
  25.9814700  58.1392410  21.6222150  19.2049730  59.6747890  17.4378670
  20.0540260  60.1118040  17.3718860  18.8381000  59.9868150  18.2650730
  29.8337500  59.0027470  28.9048880  29.3311100  59.7432870  29.2442690
  30.6494160  59.3911470  28.5885670  28.1259510  64.2460650  22.3510240
  27.1849650  64.2610880  22.5257930  28.4403580  63.4596610  22.7970540
  18.1041150  65.9280250  15.9114200  18.8704420  65.8161610  16.4739630
  18.1815840  65.2318220  15.2590970  16.7987910  63.3605320  16.5947090
  16.8791500  62.4132830  16.7064490  17.6907660  63.6912200  16.7007750
  14.4848100  69.5774280  19.5723140  13.5587880  69.8195420  19.5628550
  14.9504530  70.4048540  19.4507890  25.4425530  68.8026650  32.8342620
  24.8363690  68.8258250  32.0938370  25.1379640  68.0709690  33.3709870
  14.3258710  65.1820240  31.8303260  14.8297730  64.6027520  32.4019490
  13.5866130  65.4660470  32.3679630  21.2282330  67.9034430  15.3849550
  21.1232970  67.2886780  16.1110930  21.0606550  67.3800320  14.6012560
  21.3796650  66.5891230  31.3638780  20.6142320  67.1576230  31.2793450
  21.5612610  66.2967440  30.4707010  24.4685060  66.9654460  15.9891540
  23.9195160  67.4123760  16.6334280  25.0904320  66.4603710  16.5129210
  28.5220000  68.3196560  31.9213800  29.2629470  68.6572320  31.4181260
  27.7592680  68.4888620  31.3683570  16.3581790  63.3249830  32.7253330
  16.3987130  63.0263700  33.6338560  17.2127290  63.7257440  32.5660850
  20.1360180  65.9245380  17.8856840  20.5576600  65.7585250  18.7288230
  20.2611020  65.1145610  17.3911980  18.2987600  61.9041930  30.6927820
  17.7684060  61.4132880  30.0651160  18.9675670  62.3326130  30.1585750
  22.6487820  64.9482990  15.1333940  23.1693480  64.2332010  14.7675090
  23.2956220  65.5868860  15.4334450  27.1965660  66.3711390  30.4569010
  27.6106680  66.5256470  31.3059430  26.2616660  66.4966610  30.6194790
  27.6687830  63.7107550  32.4608160  28.2508600  62.9559870  32.3728640
  27.8449600  64.2414990  31.6839640  18.7859900  58.8704300  30.7725110
  18.6916770  58.2525050  30.0475980  18.2057290  59.5970590  30.5455020
  21.5521340  57.4277540  27.8052500  21.1038640  57.4501800  26.9598050
  20.9186540  57.0296560  28.4022800  21.9580890  66.3231870  28.4264940
  22.3769000  67.1664600  28.2541180  21.0389520  66.4603910  28.1971720
  24.2944790  64.0548050  29.8102780  24.4141000  63.4589190  30.5497620
  25.1538790  64.0917740  29.3904080  26.6332690  64.6085240  28.3865290
  26.1067910  65.1327860  27.7830430  26.9764030  65.2412630  29.0175020
  19.0319080  61.9978610  14.8315000  18.8308140  61.1345970  15.1928340
  18.8611130  61.9111970  13.8936600  21.0613560  60.5969400  31.0678600
  21.6513250  60.2885250  31.7556420  20.2433800  60.1249150  31.2238500
  25.8806990  60.2135210  31.3011620  25.1922510  59.5516750  31.2361610
  26.6013010  59.7673480  31.7460080  26.5107390  56.8086840  17.3601880
  26.7909680  55.9654740  17.7161300  25.7373120  57.0409950  17.8740630
  17.8301880  59.0979230  14.8192880  18.1327780  59.1046660  13.9112030
  18.5696470  58.7477090  15.3160540  21.0486810  58.0413850  15.8049080
  20.7008810  57.3637840  15.2251530  21.2499580  57.5803360  16.6192470
  16.8532010  68.4021650  15.6522680  17.2906880  68.9451320  16.3080260
  17.3379740  67.5768600  15.6619020  14.0677810  71.1910680  23.1042940
  14.3980820  70.3231740  22.8721580  14.4968810  71.3969200  23.9347900
  18.6639730  69.5219690  20.7644910  18.3635270  69.3984660  21.6648820
  18.5577220  68.6628280  20.3560640  30.1930200  71.5598270  30.1301880
  29.5932190  71.6190830  29.3865800  30.3224100  70.6203250  30.2598730
  31.4331650  69.3016090  15.4671590  30.6024610  69.3692740  15.9378820
  31.6103480  70.1920210  15.1638450  30.8888110  66.0463570  17.9705790
  31.6507020  66.6160220  18.0765480  30.9042480  65.4790770  18.7414100
  14.3892450  64.5701500  22.2013450  13.7341290  64.3013140  21.5573150
  15.2270400  64.4605980  21.7515430  31.8948080  66.9013670  22.8147720
  32.2656910  66.1180990  22.4083690  32.5350010  67.5902770  22.6365020
  28.8781840  68.2850250  28.2278040  28.0641680  68.7147410  28.4903830
  29.2856040  68.8968660  27.6147090  30.9407280  66.3397940  15.1278310
  31.2156120  67.2476820  14.9997530  30.7518020  66.2760470  16.0640300
  27.3382890  59.3642790  16.4231940  27.7567770  59.1773770  15.5828600
  27.0318950  58.5121840  16.7334870  30.8372620  64.2766930  20.1207740
  30.4616220  63.5094860  19.6889030  30.1075740  64.6589630  20.6082670
  15.4268380  64.9554070  26.7416790  15.7941420  64.8681470  27.6212810
  14.8579200  64.1920620  26.6423650  30.2272240  63.4238450  29.7547260
  29.9958330  63.1951200  28.8545210  30.4876790  64.3438000  29.7092150
  14.9784380  61.8663160  30.6475210  14.0840430  61.8329920  30.9868920
  15.5181930  62.0649950  31.4126460  28.6660310  58.6494880  32.5326960
  29.5430490  58.6578280  32.9160960  28.6781150  57.9125720  31.9219310
  13.6030530  61.7800430  18.1438780  12.6994610  62.0430630  17.9690440
  14.0871150  62.0511600  17.3638740  30.1123580  62.5024420  23.4214980
  30.6361060  62.0087070  22.7905150  30.6983000  62.6374780  24.1662550
  30.2913300  62.5864290  26.9434530  29.3416010  62.5527830  27.0579520
  30.4726310  63.4964400  26.7084300  16.1457740  60.8365970  16.0533160
  16.8549440  60.4149190  15.5680440  15.4297680  60.9041200  15.4216510
  15.7931900  56.8905300  15.0935810  16.5160030  57.4314240  15.4117030
  16.0656420  56.6168720  14.2177350  29.6023550  61.7597770  19.3607390
  30.0982670  61.5268640  20.1456270  29.4039620  60.9209610  18.9445030
  15.4824090  56.1411490  24.9958430  16.1300280  55.5908870  24.5553590
  15.9025930  56.3954640  25.8174240  31.0310710  60.3958720  21.8945070
  30.9209990  60.2414760  22.8327340  31.7918300  59.8679660  21.6520480
  29.3776430  56.3352850  28.3528070  30.0148650  56.9486990  28.7187260
  29.5251320  56.3713510  27.4077300  31.9200980  58.2266640  15.1351210
  32.8450290  58.0947820  14.9269500  31.8976770  58.3059460  16.0887660
  31.9939470  58.9977300  17.7607920  31.1990970  58.9322420  18.2900830
  32.1982750  59.9327940  17.7493270  15.2356090  56.2967160  27.7383750
  14.8870910  56.7530980  28.5041930  14.9043790  55.4024290  27.8206180
  16.8420460  69.4686760  31.9036940  16.7990090  69.0979670  32.7851400
  16.9731470  70.4064330  32.0438760  20.5426490  71.0246350  27.5046660
  20.3017850  71.2920910  26.6177180  21.4829130  71.1952080  27.5597520
  22.7480910  57.4879040  31.2603170  22.6869800  58.0800870  32.0098580
  23.6881290  57.3805000  31.1153430  25.3855470  57.1449100  30.8995460
  25.9995880  57.4628390  30.2376540  25.9305030  56.6597690  31.5191320
  15.9076730  55.8243360  31.0134520  16.4559720  55.6431410  30.2500630
  15.9732040  55.0337470  31.5490830  26.1263510  55.7081240  27.2264750
  25.2523350  56.0416350  27.0237680  26.0174260  55.2354420  28.0516620
  27.0335490  57.9152110  28.6106470  26.7048850  57.1003870  28.2308200
  27.9817790  57.8721920  28.4872160  16.3120720  69.7807390  27.9742760
  15.5854780  69.1612680  27.9068710  16.3729870  70.1748000  27.1040840
  23.8738330  56.6251080  26.1657660  23.0910120  57.0996580  26.4454420
  23.5801260  55.7205910  26.0570840  28.4259400  57.3274180  24.2106750
  28.8667490  57.2719280  23.3628350  28.1566990  58.2432190  24.2816930
  30.2897970  56.9589420  22.2215570  30.2286370  56.0150640  22.0746590
  31.0690000  57.0669510  22.7669030  15.2178740  56.9298560  18.6871380
  15.9758100  57.0427440  18.1135410  14.7555910  57.7667760  18.6414810
  21.7592550  59.0437830  21.6773690  20.9467060  58.6694720  21.3369570
  22.2634190  58.2882910  21.9794880  26.2617530  55.7080280  22.9156760
  26.8646900  56.2800490  23.3905280  25.5210520  56.2719720  22.6930660
  29.4052130  56.1101840  18.1897040  29.6002760  57.0085290  18.4564470
  28.6182000  55.8788920  18.6829990  17.5903890  57.4562610  17.2273350
  18.1196650  56.6692410  17.0981300  18.2232210  58.1353800  17.4608880
  19.7841730  57.1937750  20.2818740  19.1544470  56.4925060  20.4488870
  19.2446870  57.9541880  20.0651900  19.9097290  56.4721730  32.7171230
  19.6281560  56.9755330  31.9532050  20.2916990  55.6743480  32.3513360
  17.9621180  69.8562120  17.5085240  17.3330060  70.3247220  18.0571070
  18.0769010  69.0111340  17.9431430  26.5112750  55.8875310  33.2951700
  26.3978200  56.2069920  34.1903220  27.3282490  56.2887820  32.9988980
  25.4170900  63.9067780   3.6586440  25.3364950  62.9922390   3.3878150
  25.0035320  64.4034850   2.9526150  23.5488940  65.6846800   5.5395710
  22.7731040  65.2047240   5.8294280  24.2001870  65.0052450   5.3651870
  17.5654770  65.9966610   6.4171470  16.7339650  65.7415320   6.8167980
  18.1735750  66.0677380   7.1529390  27.5696370  70.0906990   4.3194840
  27.1077900  69.3194230   4.6482010  28.3821920  70.1173060   4.8247290
  17.5456030  70.0306700   6.6129490  17.8484070  69.1404440   6.4339710
  18.2899620  70.5876920   6.3851740  13.9379730  63.5574150   6.0853560
  14.5095840  62.7896350   6.0857200  13.9381270  63.8562910   5.1760170
  22.9897930  68.3603990   5.5465870  22.9206210  67.4193930   5.3855000
  23.7517790  68.4505400   6.1188440  15.1804600  58.9658510   7.8722490
  15.0007440  58.0684260   8.1525250  14.7784680  59.5130380   8.5469440
  24.0203100  61.1674370   5.7734800  24.3967920  60.2946250   5.6608470
  23.9222610  61.5033070   4.8825240  27.8027220  58.6624810   2.7063140
  28.6236840  58.1721380   2.7488620  27.8361300  59.2522470   3.4594980
  15.7991270  61.4619010   6.4804830  16.4801380  61.7257380   7.0992230
  15.4839320  60.6219880   6.8142840  19.9915840  62.5086370   5.5677420
  20.4994060  63.0067340   6.2082440  20.5229080  61.7321570   5.3916780
  32.0926770  60.6791560   9.2706770  31.3878940  61.0673270   8.7521880
  32.3584690  61.3741850   9.8727700  18.2751940  57.1484930   9.8340840
  18.2770380  57.6657320   9.0286740  17.4456250  56.6715110   9.8110770
  19.5254790  66.7880110   8.0114340  19.1924170  67.4149030   8.6535410
  19.7021470  67.3141990   7.2316010  28.0388700  60.6025190   5.4790680
  27.3344270  60.8910080   6.0593790  28.4000860  61.4125300   5.1190240
  17.9567270  58.8594890   7.8411290  18.2984080  59.7036940   7.5465160
  17.0183080  59.0078630   7.9576630  18.7373890  68.7560910   9.8263520
  19.3547890  69.4311990   9.5447970  17.8767010  69.1648890   9.7351020
  29.6551480  70.2200320   7.7418160  28.9715000  70.8899430   7.7334830
  30.1945770  70.4180970   6.9763020  31.1075620  60.0479980   5.8699890
  30.1600530  60.0818960   6.0015320  31.4325610  60.8618930   6.2549250
  21.6395160  56.3477160   4.1655880  21.9470140  55.7924050   3.4491380
  20.7095860  56.4821620   3.9828870  26.5895660  66.9674290   7.7845950
  27.0064450  66.7534400   6.9499410  27.3135480  67.2247080   8.3554570
  30.5357760  65.3661510   7.8762190  29.7076390  65.4354600   7.4012320
  31.1308240  65.9515820   7.4078020  27.4999770  62.1530830   8.8217060
  27.0870950  62.9784540   9.0757050  26.7675720  61.5675870   8.6293420
  19.6332560  64.9390730   3.6835730  19.2289560  64.2267980   3.1881630
  19.7195680  64.5943970   4.5723770  20.1014260  68.6258290   5.8474940
  19.8042550  68.0203760   5.1682720  21.0514080  68.6635600   5.7364300
  18.3461180  61.7133940   7.4634770  18.8975770  61.8229280   6.6888020
  18.8604690  62.0871540   8.1790000  19.1932690  68.3639980  12.4982740
  18.2961220  68.5879950  12.7456140  19.2185560  68.4874920  11.5494140
  18.0203910  65.2353300  11.0740110  17.8811680  66.1076100  11.4427510
  17.1385270  64.8926110  10.9288050  24.3433290  70.1529170   2.3805240
  24.7829200  70.8953500   1.9660630  24.2820180  70.3955740   3.3044200
  19.8184260  71.1775000  13.2825260  19.7899690  71.5817950  12.4153690
  19.6549230  70.2485360  13.1196860  13.9722560  67.0050850   6.9911020
  14.0502980  67.1399620   6.0466740  14.5864240  66.2966740   7.1839140
  15.2170190  68.7051040   3.4017200  14.8098270  68.8465630   2.5470800
  16.1083200  68.4211200   3.1988410  31.1732330  69.1514950  11.7389440
  31.2995390  68.9126830  10.8206620  31.2153710  68.3199490  12.2111520
  31.0256340  61.2047410  12.7039180  30.4100610  61.7127080  12.1754640
  30.7052760  60.3045740  12.6465120  14.0282080  68.0465020   9.5305480
  14.1913120  67.5770380   8.7124850  14.4934530  67.5388580  10.1954320
  18.8000850  57.1770780   4.5666050  18.3569000  57.9580320   4.2350570
  19.3585840  57.5000670   5.2736990  23.0870660  60.0439300  10.1701370
  22.6250030  60.2522320  10.9821310  22.6848770  59.2298650   9.8672040
  28.0875170  61.2648250  11.2998030  27.2368760  60.9654000  11.6207100
  27.9276960  61.5090260  10.3881850  25.1824880  62.7650000  13.3996820
  25.5078290  61.9313750  13.0599050  25.9705210  63.2878520  13.5475150
  20.8376750  57.7218110   6.4255650  21.1349080  58.6280940   6.3447670
  21.3862310  57.2336890   5.8115220  18.5915070  62.3004350   2.2947300
  18.3655990  62.0841520   3.1993920  17.8107600  62.7332810   1.9493270
  21.0314280  63.1989930  12.9607570  20.9357880  62.2584660  12.8107970
  21.8746260  63.4205000  12.5655640  24.4277700  60.9431260   2.9241230
  24.8207270  61.2603460   2.1109920  24.7894550  60.0643140   3.0385750
  16.1624820  59.6103600  11.1141350  15.7688210  60.4578810  11.3214130
  15.4743220  58.9729970  11.3049990  22.7369870  59.6938570  14.1838090
  22.0468190  59.5010770  14.8184180  23.4802170  59.9773210  14.7162390
  13.4641870  57.5332060   5.1471430  13.1754920  58.1034920   5.8596410
  14.2087630  57.0536510   5.5102660  25.0132840  63.5337010   7.0192010
  24.2813960  64.0423820   7.3682110  24.6157180  62.7166990   6.7180790
  21.4510230  60.2091210   5.4244500  21.4546290  59.7681160   4.5749040
  22.3461350  60.5308540   5.5316320  17.3012610  60.0917700   4.3838710
  16.9612660  60.5692930   5.1405760  16.5389930  59.6382820   4.0239810
  25.4758750  58.9870690   6.4314950  25.4931490  59.4379340   7.2756800
  25.2274330  58.0876330   6.6448390  28.9029500  56.4002870  12.2701330
  29.2275270  55.6692530  12.7959310  28.9386010  56.0816510  11.3682320
  15.6021060  67.4216450  11.6901290  15.2175850  66.7810120  12.2884250
  15.9133250  68.1252570  12.2596020  21.7518200  64.2692990   7.1709910
  22.1188330  63.7951560   7.9171250  21.5623260  65.1434560   7.5118250
  14.6158690  59.0136680   3.3003380  14.3305610  58.6492350   4.1382000
  14.5537550  58.2817140   2.6866520  19.5417570  63.3101630   9.4894120
  19.2374640  64.1893610   9.7144480  20.4964030  63.3701420   9.5251560
  28.8287340  66.5127980   5.8787360  29.5486460  67.0083270   5.4883470
  28.6269160  65.8345870   5.2341230  24.2106140  66.5837040  11.7656360
  24.1443450  65.6632710  11.5113950  23.5811280  66.6812480  12.4801000
  18.1136760  67.1843000   3.7239780  18.6315430  66.3811260   3.6696670
  17.6620780  67.1222140   4.5656610  15.5981300  64.1504370  10.6365480
  15.2396240  64.8158220  11.2238820  15.3035860  63.3187920  11.0078100
  18.7994420  64.6088610  13.5205030  18.4994560  64.7545790  12.6232850
  19.5705660  64.0493900  13.4278420  24.1422870  69.4057610  11.5160160
  24.1567410  68.4738570  11.2979070  23.4347970  69.4917370  12.1549930
  30.3534080  66.0464950  10.8628740  29.6282270  66.6393730  10.6658130
  30.8809540  66.0388490  10.0642110  25.8833670  67.7725120   4.3612590
  26.2357490  67.1753250   3.7013960  24.9996000  67.4469350   4.5320840
  21.9696950  68.5322810   1.7683000  22.6568080  69.0792020   2.1490590
  21.1829370  69.0763540   1.8032610  23.5756770  71.0475180   8.6100660
  24.2198990  71.2534560   9.2874080  23.9386210  70.2863580   8.1571510
  24.8488850  69.0507530   7.3278110  25.4911080  68.3500690   7.4410280
  25.3738200  69.8305970   7.1475000  26.6226470  69.8502430  10.5314170
  26.9582710  70.4369120  11.2092090  25.7026810  69.7195140  10.7611960
  14.1729870  57.6397610  11.3137580  13.4588390  57.8394530  11.9190190
  14.5924910  56.8637180  11.6852380  14.4602460  71.6277870  12.3004110
  14.5693580  70.6872610  12.1599500  13.8083020  71.8932620  11.6517840
  22.4515050  69.8993760  13.7002230  22.1311920  69.1803000  14.2447920
  21.7773410  70.5748830  13.7738290  25.6668650  60.1319920   9.0639030
  26.0349470  59.3115130   9.3918600  24.8066850  60.1921810   9.4794680
  22.6270640  62.7859510   9.2877000  23.1255890  63.2605330   9.9528850
  22.7693590  61.8623030   9.4947030  25.0330140  58.0913470   2.7280260
  24.9097920  58.1099600   1.7789770  25.9814700  58.1392410   2.8478660
  29.8337500  59.0027470  10.1305390  29.3311100  59.7432870  10.4699200
  30.6494160  59.3911470   9.8142180  28.1259510  64.2460650   3.5766750
  27.1849650  64.2610880   3.7514440  28.4403580  63.4596610   4.0227050
  25.4425530  68.8026650  14.0599130  24.8363690  68.8258250  13.3194880
  25.1379640  68.0709690  14.5966380  14.3258710  65.1820240  13.0559770
  14.8297730  64.6027520  13.6276000  13.5866130  65.4660470  13.5936140
  21.3796650  66.5891230  12.5895290  20.6142320  67.1576230  12.5049960
  21.5612610  66.2967440  11.6963520  28.5220000  68.3196560  13.1470310
  29.2629470  68.6572320  12.6437770  27.7592680  68.4888620  12.5940080
  16.3581790  63.3249830  13.9509840  16.3987130  63.0263700  14.8595070
  17.2127290  63.7257440  13.7917360  18.2987600  61.9041930  11.9184330
  17.7684060  61.4132880  11.2907670  18.9675670  62.3326130  11.3842260
  27.1965660  66.3711390  11.6825520  27.6106680  66.5256470  12.5315940
  26.2616660  66.4966610  11.8451300  27.6687830  63.7107550  13.6864670
  28.2508600  62.9559870  13.5985150  27.8449600  64.2414990  12.9096150
  18.7859900  58.8704300  11.9981620  18.6916770  58.2525050  11.2732490
  18.2057290  59.5970590  11.7711530  21.5521340  57.4277540   9.0309010
  21.1038640  57.4501800   8.1854560  20.9186540  57.0296560   9.6279310
  21.9580890  66.3231870   9.6521450  22.3769000  67.1664600   9.4797690
  21.0389520  66.4603910   9.4228230  24.2944790  64.0548050  11.0359290
  24.4141000  63.4589190  11.7754130  25.1538790  64.0917740  10.6160590
  26.6332690  64.6085240   9.6121800  26.1067910  65.1327860   9.0086940
  26.9764030  65.2412630  10.2431530  21.0613560  60.5969400  12.2935110
  21.6513250  60.2885250  12.9812930  20.2433800  60.1249150  12.4495010
  25.8806990  60.2135210  12.5268130  25.1922510  59.5516750  12.4618120
  26.6013010  59.7673480  12.9716590  14.0677810  71.1910680   4.3299450
  14.3980820  70.3231740   4.0978090  14.4968810  71.3969200   5.1604410
  30.1930200  71.5598270  11.3558390  29.5932190  71.6190830  10.6122310
  30.3224100  70.6203250  11.4855240  14.3892450  64.5701500   3.4269960
  13.7341290  64.3013140   2.7829660  15.2270400  64.4605980   2.9771940
  31.8948080  66.9013670   4.0404230  32.2656910  66.1180990   3.6340200
  32.5350010  67.5902770   3.8621530  28.8781840  68.2850250   9.4534550
  28.0641680  68.7147410   9.7160340  29.2856040  68.8968660   8.8403600
  15.4268380  64.9554070   7.9673300  15.7941420  64.8681470   8.8469320
  14.8579200  64.1920620   7.8680160  30.2272240  63.4238450  10.9803770
  29.9958330  63.1951200  10.0801720  30.4876790  64.3438000  10.9348660
  14.9784380  61.8663160  11.8731720  14.0840430  61.8329920  12.2125430
  15.5181930  62.0649950  12.6382970  28.6660310  58.6494880  13.7583470
  29.5430490  58.6578280  14.1417470  28.6781150  57.9125720  13.1475820
  30.1123580  62.5024420   4.6471490  30.6361060  62.0087070   4.0161660
  30.6983000  62.6374780   5.3919060  30.2913300  62.5864290   8.1691040
  29.3416010  62.5527830   8.2836030  30.4726310  63.4964400   7.9340810
  15.4824090  56.1411490   6.2214940  16.1300280  55.5908870   5.7810100
  15.9025930  56.3954640   7.0430750  31.0310710  60.3958720   3.1201580
  30.9209990  60.2414760   4.0583850  31.7918300  59.8679660   2.8776990
  29.3776430  56.3352850   9.5784580  30.0148650  56.9486990   9.9443770
  29.5251320  56.3713510   8.6333810  15.2356090  56.2967160   8.9640260
  14.8870910  56.7530980   9.7298440  14.9043790  55.4024290   9.0462690
  16.8420460  69.4686760  13.1293450  16.7990090  69.0979670  14.0107910
  16.9731470  70.4064330  13.2695270  20.5426490  71.0246350   8.7303170
  20.3017850  71.2920910   7.8433690  21.4829130  71.1952080   8.7854030
  22.7480910  57.4879040  12.4859680  22.6869800  58.0800870  13.2355090
  23.6881290  57.3805000  12.3409940  25.3855470  57.1449100  12.1251970
  25.9995880  57.4628390  11.4633050  25.9305030  56.6597690  12.7447830
  15.9076730  55.8243360  12.2391030  16.4559720  55.6431410  11.4757140
  15.9732040  55.0337470  12.7747340  26.1263510  55.7081240   8.4521260
  25.2523350  56.0416350   8.2494190  26.0174260  55.2354420   9.2773130
  27.0335490  57.9152110   9.8362980  26.7048850  57.1003870   9.4564710
  27.9817790  57.8721920   9.7128670  16.3120720  69.7807390   9.1999270
  15.5854780  69.1612680   9.1325220  16.3729870  70.1748000   8.3297350
  23.8738330  56.6251080   7.3914170  23.0910120  57.0996580   7.6710930
  23.5801260  55.7205910   7.2827350  28.4259400  57.3274180   5.4363260
  28.8667490  57.2719280   4.5884860  28.1566990  58.2432190   5.5073440
  30.2897970  56.9589420   3.4472080  30.2286370  56.0150640   3.3003100
  31.0690000  57.0669510   3.9925540  21.7592550  59.0437830   2.9030200
  20.9467060  58.6694720   2.5626080  22.2634190  58.2882910   3.2051390
  26.2617530  55.7080280   4.1413270  26.8646900  56.2800490   4.6161790
  25.5210520  56.2719720   3.9187170  19.9097290  56.4721730  13.9427740
  19.6281560  56.9755330  13.1788560  20.2916990  55.6743480  13.5769870
  26.5112750  55.8875310  14.5208210  26.3978200  56.2069920  15.4159730
  27.3282490  56.2887820  14.2245490  25.4170900  45.1324290  59.9816910
  25.3364950  44.2178900  59.7108620  25.0035320  45.6291360  59.2756620
  23.5488940  46.9103310  61.8626180  22.7731040  46.4303750  62.1524750
  24.2001870  46.2308960  61.6882340  17.5654770  47.2223120  62.7401940
  16.7339650  46.9671830  63.1398450  18.1735750  47.2933890  63.4759860
  27.5696370  51.3163500  60.6425310  27.1077900  50.5450740  60.9712480
  28.3821920  51.3429570  61.1477760  17.5456030  51.2563210  62.9359960
  17.8484070  50.3660950  62.7570180  18.2899620  51.8133430  62.7082210
  15.9746720  42.1825010  56.5244330  15.0863420  42.5240980  56.4224210
  16.2587910  41.9825330  55.6325160  13.9379730  44.7830660  62.4084030
  14.5095840  44.0152860  62.4087670  13.9381270  45.0819420  61.4990640
  23.7959680  53.6021510  60.2629300  23.1771120  54.0579010  59.6923740
  24.6511460  53.7572970  59.8619000  22.9897930  49.5860500  61.8696340
  22.9206210  48.6450440  61.7085470  23.7517790  49.6761910  62.4418910
  15.1804600  40.1915020  64.1952960  15.0007440  39.2940770  64.4755720
  14.7784680  40.7386890  64.8699910  24.0203100  42.3930880  62.0965270
  24.3967920  41.5202760  61.9838940  23.9222610  42.7289580  61.2055710
  18.1508110  40.7656510  57.5582710  18.2574860  41.6660240  57.8651470
  17.2400470  40.7174480  57.2677360  27.8027220  39.8881320  59.0293610
  28.6236840  39.3977890  59.0719090  27.8361300  40.4778980  59.7825450
  15.7991270  42.6875520  62.8035300  16.4801380  42.9513890  63.4222700
  15.4839320  41.8476390  63.1373310  19.9915840  43.7342880  61.8907890
  20.4994060  44.2323850  62.5312910  20.5229080  42.9578080  61.7147250
  24.6623030  48.4860750  57.6561210  24.0440300  48.9510200  57.0923930
  25.1746280  49.1788230  58.0730720  19.5254790  48.0136620  64.3344810
  19.1924170  48.6405540  64.9765880  19.7021470  48.5398500  63.5546480
  28.0388700  41.8281700  61.8021150  27.3344270  42.1166590  62.3824260
  28.4000860  42.6381810  61.4420710  17.9567270  40.0851400  64.1641760
  18.2984080  40.9293450  63.8695630  17.0183080  40.2335140  64.2807100
  14.0306230  49.1717280  55.0300840  13.6534210  49.6604380  54.2985740
  14.2879300  49.8442560  55.6607370  29.6551480  51.4456830  64.0648630
  28.9715000  52.1155940  64.0565300  30.1945770  51.6437480  63.2993490
  31.1075620  41.2736490  62.1930360  30.1600530  41.3075470  62.3245790
  31.4325610  42.0875440  62.5779720  21.6395160  37.5733670  60.4886350
  21.9470140  37.0180560  59.7721850  20.7095860  37.7078130  60.3059340
  27.1910220  53.2900960  62.7793810  27.2037380  52.8863250  61.9116070
  26.6385440  54.0648250  62.6755240  28.4855640  50.0117180  57.8683980
  28.3751970  49.0691510  57.9933400  28.4823890  50.3732820  58.7546740
  26.5895660  48.1930800  64.1076420  27.0064450  47.9790910  63.2729880
  27.3135480  48.4503590  64.6785040  24.0275920  45.6382500  57.2246470
  23.1005200  45.5719880  57.4534940  24.1800740  46.5762630  57.1101710
  24.0145000  41.9099500  54.2213630  23.0748670  42.0713460  54.3066090
  24.3328260  42.6285180  53.6749620  30.5357760  46.5918020  64.1992660
  29.7076390  46.6611110  63.7242790  31.1308240  47.1772330  63.7308490
  28.0573210  47.2002800  57.7281720  27.4385630  46.8622350  57.0808020
  28.0397660  46.5562560  58.4360910  19.6332560  46.1647240  60.0066200
  19.2289560  45.4524490  59.5112100  19.7195680  45.8200480  60.8954240
  20.1014260  49.8514800  62.1705410  19.8042550  49.2460270  61.4913190
  21.0514080  49.8892110  62.0594770  18.3461180  42.9390450  63.7865240
  18.8975770  43.0485790  63.0118490  18.8604690  43.3128050  64.5020470
  24.3433290  51.3785680  58.7035710  24.7829200  52.1210010  58.2891100
  24.2820180  51.6212250  59.6274670  29.8155050  37.6932420  53.0495510
  29.5027710  37.7859250  53.9494580  30.5767520  38.2713450  52.9992940
  16.3337190  45.0592220  57.5072850  16.2134790  45.7854310  56.8954120
  16.0238080  44.2895130  57.0300760  13.9722560  48.2307360  63.3141490
  14.0502980  48.3656130  62.3697210  14.5864240  47.5223250  63.5069610
  15.2170190  49.9307550  59.7247670  14.8098270  50.0722140  58.8701270
  16.1083200  49.6467710  59.5218880  27.0103470  54.3654800  56.0598720
  26.8504610  54.0757740  56.9580550  26.8450180  53.5894930  55.5243950
  19.4891850  54.1453330  57.8370340  19.3134330  53.2288870  57.6238140
  18.6347590  54.5040620  58.0768140  26.7129600  51.8742360  54.6196720
  26.0194760  51.8719650  53.9599000  27.4552460  51.4501680  54.1890890
  26.2779530  53.5005070  58.6945210  26.7336480  52.7194450  59.0083830
  26.6172050  54.2111890  59.2386390  18.8000850  38.4027290  60.8896520
  18.3569000  39.1836830  60.5581040  19.3585840  38.7257180  61.5967460
  21.9159670  38.0237990  55.7702350  21.2913850  38.0197860  56.4955660
  21.8289790  37.1568950  55.3738320  20.8376750  38.9474620  62.7486120
  21.1349080  39.8537450  62.6678140  21.3862310  38.4593400  62.1345690
  18.5915070  43.5260860  58.6177770  18.3655990  43.3098030  59.5224390
  17.8107600  43.9589320  58.2723740  25.8212830  43.5324230  57.2168420
  25.2221720  44.2560030  57.0332040  26.3692440  43.4701010  56.4344870
  24.4277700  42.1687770  59.2471700  24.8207270  42.4859970  58.4340390
  24.7894550  41.2899650  59.3616220  13.4641870  38.7588570  61.4701900
  13.1754920  39.3291430  62.1826880  14.2087630  38.2793020  61.8333130
  13.6512100  42.7008690  52.6804620  13.5686770  43.6439450  52.8219610
  13.2995160  42.5583600  51.8016970  25.0132840  44.7593520  63.3422480
  24.2813960  45.2680330  63.6912580  24.6157180  43.9423500  63.0411260
  21.4510230  41.4347720  61.7474970  21.4546290  40.9937670  60.8979510
  22.3461350  41.7565050  61.8546790  17.3012610  41.3174210  60.7069180
  16.9612660  41.7949440  61.4636230  16.5389930  40.8639330  60.3470280
  21.5130380  42.4359800  54.7381730  21.6343200  42.3946280  55.6867550
  21.1278890  43.2983950  54.5828460  25.4758750  40.2127200  62.7545420
  25.4931490  40.6635850  63.5987270  25.2274330  39.3132840  62.9678860
  20.5251880  44.7460940  54.1365030  19.9568780  44.2979190  53.5100940
  21.2340880  45.1053720  53.6030180  21.7518200  45.4949500  63.4940380
  22.1188330  45.0208070  64.2401720  21.5623260  46.3691070  63.8348720
  14.6158690  40.2393190  59.6233850  14.3305610  39.8748860  60.4612470
  14.5537550  39.5073650  59.0096990  18.0699360  48.7419130  56.4091440
  17.2961620  48.2016750  56.2490160  18.7993990  48.2225740  56.0709200
  28.8287340  47.7384490  62.2017830  29.5486460  48.2339780  61.8113940
  28.6269160  47.0602380  61.5571700  24.2897280  39.1322450  56.3447220
  23.4761890  38.6335620  56.2692530  24.0959230  39.9720700  55.9283570
  27.0045670  43.5042100  54.6409380  27.8925290  43.8159330  54.4660720
  26.9750760  42.6314350  54.2489960  18.1136760  48.4099510  60.0470250
  18.6315430  47.6067770  59.9927140  17.6620780  48.3478650  60.8887080
  23.0006260  49.6765790  55.3197550  23.3421960  50.4208020  54.8240870
  22.1718970  49.9896910  55.6822380  29.2759940  44.8153940  54.1089240
  29.1923660  45.2468160  53.2585680  29.9954130  45.2752290  54.5416060
  30.3047190  51.6696200  56.8371370  29.6623350  51.0151820  57.1115090
  29.9177850  52.0751290  56.0612040  25.8833670  48.9981630  60.6843060
  26.2357490  48.4009760  60.0244430  24.9996000  48.6725860  60.8551310
  21.9696950  49.7579320  58.0913470  22.6568080  50.3048530  58.4721060
  21.1829370  50.3020050  58.1263080  14.1089350  45.3752140  53.5830550
  14.9784200  45.6576940  53.8666470  13.6179670  46.1888010  53.4679360
  21.2724160  46.7625350  57.7038830  21.7286940  47.5730600  57.9299020
  20.9212370  46.4448490  58.5357320  17.1735940  37.1063000  58.1761350
  17.0450570  37.0980900  59.1246270  16.3497960  37.4446090  57.8252360
  24.8488850  50.2764040  63.6508580  25.4911080  49.5757200  63.7640750
  25.3738200  51.0562480  63.4705470  14.4760600  54.5879520  54.1492180
  14.8358240  55.1868860  53.4949450  14.3352940  55.1339410  54.9227210
  28.2760820  48.4784600  55.0361880  27.9882520  48.9397290  55.8239760
  29.0712990  48.0182370  55.3046100  20.4929220  51.9710720  54.9665850
  20.4839320  52.7040410  54.3510360  19.5727580  51.7242300  55.0592810
  16.0935860  47.1925610  55.7112610  15.4863810  47.9324510  55.7207910
  16.5685210  47.2824970  54.8850810  29.0330680  40.3133370  56.1957060
  28.4043840  40.4179040  55.4815290  28.5382600  40.5330150  56.9850940
  23.4788820  52.0338960  53.6291040  23.5800800  51.8302950  52.6993020
  22.5790560  51.7797240  53.8338820  21.0014710  42.5919320  57.6114940
  20.2930860  43.0605660  58.0528550  21.2859190  41.9341330  58.2460130
  25.0330140  39.3169980  59.0510730  24.9097920  39.3356110  58.1020240
  25.9814700  39.3648920  59.1709130  22.1206930  54.5525280  58.3238710
  22.3748430  54.5146670  57.4018080  21.1719410  54.4258610  58.3166960
  19.2049730  40.9004400  54.9865650  20.0540260  41.3374550  54.9205840
  18.8381000  41.2124660  55.8137710  28.1259510  45.4717160  59.8997220
  27.1849650  45.4867390  60.0744910  28.4403580  44.6853120  60.3457520
  18.1041150  47.1536760  53.4601180  18.8704420  47.0418120  54.0226610
  18.1815840  46.4574730  52.8077950  16.7987910  44.5861830  54.1434070
  16.8791500  43.6389340  54.2551470  17.6907660  44.9168710  54.2494730
  30.1285090  52.6426010  61.5751480  30.2532510  53.4657180  62.0475290
  30.9950650  52.4316740  61.2275630  17.6002620  54.7357220  61.2468610
  18.3365100  54.1872680  61.5177180  17.9843540  55.6013230  61.1074600
  14.4848100  50.8030790  57.1210120  13.5587880  51.0451930  57.1115530
  14.9504530  51.6305050  56.9994870  20.7104930  53.9087530  53.0694180
  21.5033540  54.1976360  52.6175970  20.1909280  53.4779700  52.3906660
  29.7635100  53.1357660  54.4930920  29.4776610  52.7222800  53.6785100
  29.5654650  54.0645370  54.3731440  21.2282330  49.1290940  52.9336530
  21.1232970  48.5143290  53.6597910  21.0606550  48.6056830  52.1499540
  20.1360180  47.1501890  55.4343820  20.5576600  46.9841760  56.2775210
  20.2611020  46.3402120  54.9398960  22.6487820  46.1739500  52.6820920
  23.1693480  45.4588520  52.3162070  23.2956220  46.8125370  52.9821430
  19.0319080  43.2235120  52.3801980  18.8308140  42.3602480  52.7415320
  18.8611130  43.1368480  51.4423580  26.5107390  38.0343350  54.9088860
  26.7909680  37.1911250  55.2648280  25.7373120  38.2666460  55.4227610
  17.8301880  40.3235740  52.3679860  18.1327780  40.3303170  51.4599010
  18.5696470  39.9733600  52.8647520  21.0486810  39.2670360  53.3536060
  20.7008810  38.5894350  52.7738510  21.2499580  38.8059870  54.1679450
  23.2135850  54.2551110  54.9722660  24.1086640  54.5936080  54.9941420
  23.2453480  53.5330520  54.3446940  16.8532010  49.6278160  53.2009660
  17.2906880  50.1707830  53.8567240  17.3379740  48.8025110  53.2106000
  14.0677810  52.4167190  60.6529920  14.3980820  51.5488250  60.4208560
  14.4968810  52.6225710  61.4834880  18.6639730  50.7476200  58.3131890
  18.3635270  50.6241170  59.2135800  18.5577220  49.8884790  57.9047620
  14.5568020  53.2837780  63.3911550  14.1199010  53.4638580  64.2235700
  15.1245700  54.0412400  63.2493270  31.4331650  50.5272600  53.0158570
  30.6024610  50.5949250  53.4865800  31.6103480  51.4176720  52.7125430
  30.8888110  47.2720080  55.5192770  31.6507020  47.8416730  55.6252460
  30.9042480  46.7047280  56.2901080  14.3892450  45.7958010  59.7500430
  13.7341290  45.5269650  59.1060130  15.2270400  45.6862490  59.3002410
  31.8948080  48.1270180  60.3634700  32.2656910  47.3437500  59.9570670
  32.5350010  48.8159280  60.1852000  30.9407280  47.5654450  52.6765290
  31.2156120  48.4733330  52.5484510  30.7518020  47.5016980  53.6127280
  27.3382890  40.5899300  53.9718920  27.7567770  40.4030280  53.1315580
  27.0318950  39.7378350  54.2821850  30.8372620  45.5023440  57.6694720
  30.4616220  44.7351370  57.2376010  30.1075740  45.8846140  58.1569650
  15.4268380  46.1810580  64.2903770  15.7941420  46.0937980  65.1699790
  14.8579200  45.4177130  64.1910630  13.6030530  43.0056940  55.6925760
  12.6994610  43.2687140  55.5177420  14.0871150  43.2768110  54.9125720
  30.1123580  43.7280930  60.9701960  30.6361060  43.2343580  60.3392130
  30.6983000  43.8631290  61.7149530  30.2913300  43.8120800  64.4921510
  29.3416010  43.7784340  64.6066500  30.4726310  44.7220910  64.2571280
  16.1457740  42.0622480  53.6020140  16.8549440  41.6405700  53.1167420
  15.4297680  42.1297710  52.9703490  15.7931900  38.1161810  52.6422790
  16.5160030  38.6570750  52.9604010  16.0656420  37.8425230  51.7664330
  29.6023550  42.9854280  56.9094370  30.0982670  42.7525150  57.6943250
  29.4039620  42.1466120  56.4932010  15.4824090  37.3668000  62.5445410
  16.1300280  36.8165380  62.1040570  15.9025930  37.6211150  63.3661220
  31.0310710  41.6215230  59.4432050  30.9209990  41.4671270  60.3814320
  31.7918300  41.0936170  59.2007460  31.9200980  39.4523150  52.6838190
  32.8450290  39.3204330  52.4756480  31.8976770  39.5315970  53.6374640
  31.9939470  40.2233810  55.3094900  31.1990970  40.1578930  55.8387810
  32.1982750  41.1584450  55.2980250  28.9357890  54.2625360  59.3033290
  29.5316960  53.9409930  58.6267710  29.1936040  53.7897180  60.0946560
  20.5426490  52.2502860  65.0533640  20.3017850  52.5177420  64.1664160
  21.4829130  52.4208590  65.1084500  29.4870100  54.9120660  63.1331020
  29.0273070  55.6636470  62.7589040  28.8582560  54.1927130  63.0745820
  19.9165820  53.2208900  62.3079150  20.4330840  52.6096260  61.7827410
  20.5663200  53.7237680  62.7990160  22.6561320  54.1117390  63.1348130
  22.9439130  53.8571690  62.2581140  23.1684540  53.5594750  63.7253700
  23.8738330  37.8507590  63.7144640  23.0910120  38.3253090  63.9941400
  23.5801260  36.9462420  63.6057820  28.4259400  38.5530690  61.7593730
  28.8667490  38.4975790  60.9115330  28.1566990  39.4688700  61.8303910
  30.2897970  38.1845930  59.7702550  30.2286370  37.2407150  59.6233570
  31.0690000  38.2926020  60.3156010  14.5950720  54.3238290  58.7326500
  14.4272760  53.6908970  59.4308390  13.7285230  54.5297690  58.3820690
  15.2178740  38.1555070  56.2358360  15.9758100  38.2683950  55.6622390
  14.7555910  38.9924270  56.1901790  21.7592550  40.2694340  59.2260670
  20.9467060  39.8951230  58.8856550  22.2634190  39.5139420  59.5281860
  26.2617530  36.9336790  60.4643740  26.8646900  37.5057000  60.9392260
  25.5210520  37.4976230  60.2417640  29.4052130  37.3358350  55.7384020
  29.6002760  38.2341800  56.0051450  28.6182000  37.1045430  56.2316970
  16.2013420  53.0171520  56.1776640  15.6761040  53.3979550  55.4738600
  16.1258000  53.6422290  56.8986350  17.5903890  38.6819120  54.7760330
  18.1196650  37.8948920  54.6468280  18.2232210  39.3610310  55.0095860
  19.7841730  38.4194260  57.8305720  19.1544470  37.7181570  57.9975850
  19.2446870  39.1798390  57.6138880  30.9578740  54.5759060  57.4990580
  31.1330930  53.8896800  56.8551500  30.2600310  55.1006110  57.1067250
  18.8006390  54.9653900  55.0525890  19.5325210  54.6813180  54.5049780
  19.0600060  54.7267180  55.9425270  17.9621180  51.0818630  55.0572220
  17.3330060  51.5503730  55.6058050  18.0769010  50.2367850  55.4918410
  15.9746720  42.1825010  37.7500840  15.0863420  42.5240980  37.6480720
  16.2587910  41.9825330  36.8581670  23.7959680  53.6021510  41.4885810
  23.1771120  54.0579010  40.9180250  24.6511460  53.7572970  41.0875510
  15.1804600  40.1915020  45.4209470  15.0007440  39.2940770  45.7012230
  14.7784680  40.7386890  46.0956420  18.1508110  40.7656510  38.7839220
  18.2574860  41.6660240  39.0907980  17.2400470  40.7174480  38.4933870
  15.7991270  42.6875520  44.0291810  16.4801380  42.9513890  44.6479210
  15.4839320  41.8476390  44.3629820  18.2751940  38.3741440  47.3827820
  18.2770380  38.8913830  46.5773720  17.4456250  37.8971620  47.3597750
  24.6623030  48.4860750  38.8817720  24.0440300  48.9510200  38.3180440
  25.1746280  49.1788230  39.2987230  17.9567270  40.0851400  45.3898270
  18.2984080  40.9293450  45.0952140  17.0183080  40.2335140  45.5063610
  14.0306230  49.1717280  36.2557350  13.6534210  49.6604380  35.5242250
  14.2879300  49.8442560  36.8863880  21.6395160  37.5733670  41.7142860
  21.9470140  37.0180560  40.9978360  20.7095860  37.7078130  41.5315850
  27.1910220  53.2900960  44.0050320  27.2037380  52.8863250  43.1372580
  26.6385440  54.0648250  43.9011750  18.3461180  42.9390450  45.0121750
  18.8975770  43.0485790  44.2375000  18.8604690  43.3128050  45.7276980
  26.2337910  46.4389610  35.9610980  26.6731190  45.6012040  35.8148800
  26.9466330  47.0719010  36.0475120  24.3433290  51.3785680  39.9292220
  24.7829200  52.1210010  39.5147610  24.2820180  51.6212250  40.8531180
  16.3337190  45.0592220  38.7329360  16.2134790  45.7854310  38.1210630
  16.0238080  44.2895130  38.2557270  31.7699080  53.1858610  52.1276410
  32.2458800  53.6641500  52.8065490  32.3906240  53.1176100  51.4021910
  31.1732330  50.3771460  49.2876420  31.2995390  50.1383340  48.3693600
  31.2153710  49.5456000  49.7598500  27.0103470  54.3654800  37.2855230
  26.8504610  54.0757740  38.1837060  26.8450180  53.5894930  36.7500460
  19.4891850  54.1453330  39.0626850  19.3134330  53.2288870  38.8494650
  18.6347590  54.5040620  39.3024650  26.7129600  51.8742360  35.8453230
  26.0194760  51.8719650  35.1855510  27.4552460  51.4501680  35.4147400
  26.2779530  53.5005070  39.9201720  26.7336480  52.7194450  40.2340340
  26.6172050  54.2111890  40.4642900  31.0256340  42.4303920  50.2526160
  30.4100610  42.9383590  49.7241620  30.7052760  41.5302250  50.1952100
  18.8000850  38.4027290  42.1153030  18.3569000  39.1836830  41.7837550
  19.3585840  38.7257180  42.8223970  23.0870660  41.2695810  47.7188350
  22.6250030  41.4778830  48.5308290  22.6848770  40.4555160  47.4159020
  28.0875170  42.4904760  48.8485010  27.2368760  42.1910510  49.1694080
  27.9276960  42.7346770  47.9368830  20.8376750  38.9474620  43.9742630
  21.1349080  39.8537450  43.8934650  21.3862310  38.4593400  43.3602200
  18.5915070  43.5260860  39.8434280  18.3655990  43.3098030  40.7480900
  17.8107600  43.9589320  39.4980250  21.0314280  44.4246440  50.5094550
  20.9357880  43.4841170  50.3594950  21.8746260  44.6461510  50.1142620
  16.1624820  40.8360110  48.6628330  15.7688210  41.6835320  48.8701110
  15.4743220  40.1986480  48.8536970  22.7369870  40.9195080  51.7325070
  22.0468190  40.7267280  52.3671160  23.4802170  41.2029720  52.2649370
  13.4641870  38.7588570  42.6958410  13.1754920  39.3291430  43.4083390
  14.2087630  38.2793020  43.0589640  13.6512100  42.7008690  33.9061130
  13.5686770  43.6439450  34.0476120  13.2995160  42.5583600  33.0273480
  17.3012610  41.3174210  41.9325690  16.9612660  41.7949440  42.6892740
  16.5389930  40.8639330  41.5726790  21.5130380  42.4359800  35.9638240
  21.6343200  42.3946280  36.9124060  21.1278890  43.2983950  35.8084970
  20.5251880  44.7460940  35.3621540  19.9568780  44.2979190  34.7357450
  21.2340880  45.1053720  34.8286690  28.9029500  37.6259380  49.8188310
  29.2275270  36.8949040  50.3446290  28.9386010  37.3073020  48.9169300
  14.6158690  40.2393190  40.8490360  14.3305610  39.8748860  41.6868980
  14.5537550  39.5073650  40.2353500  18.0699360  48.7419130  37.6347950
  17.2961620  48.2016750  37.4746670  18.7993990  48.2225740  37.2965710
  23.0006260  49.6765790  36.5454060  23.3421960  50.4208020  36.0497380
  22.1718970  49.9896910  36.9078890  18.7994420  45.8345120  51.0692010
  18.4994560  45.9802300  50.1719830  19.5705660  45.2750410  50.9765400
  30.3047190  51.6696200  38.0627880  29.6623350  51.0151820  38.3371600
  29.9177850  52.0751290  37.2868550  21.9696950  49.7579320  39.3169980
  22.6568080  50.3048530  39.6977570  21.1829370  50.3020050  39.3519590
  14.1089350  45.3752140  34.8087060  14.9784200  45.6576940  35.0922980
  13.6179670  46.1888010  34.6935870  21.2724160  46.7625350  38.9295340
  21.7286940  47.5730600  39.1555530  20.9212370  46.4448490  39.7613830
  17.1735940  37.1063000  39.4017860  17.0450570  37.0980900  40.3502780
  16.3497960  37.4446090  39.0508870  28.6944570  50.5612660  34.6004230
  28.4682150  49.8443100  35.1928870  28.3040770  50.3125100  33.7625980
  14.4760600  54.5879520  35.3748690  14.8358240  55.1868860  34.7205960
  14.3352940  55.1339410  36.1483720  14.1729870  38.8654120  48.8624560
  13.4588390  39.0651040  49.4677170  14.5924910  38.0893690  49.2339360
  28.2760820  48.4784600  36.2618390  27.9882520  48.9397290  37.0496270
  29.0712990  48.0182370  36.5302610  14.4602460  52.8534380  49.8491090
  14.5693580  51.9129120  49.7086480  13.8083020  53.1189130  49.2004820
  20.4929220  51.9710720  36.1922360  20.4839320  52.7040410  35.5766870
  19.5727580  51.7242300  36.2849320  16.0935860  47.1925610  36.9369120
  15.4863810  47.9324510  36.9464420  16.5685210  47.2824970  36.1107320
  23.4788820  52.0338960  34.8547550  23.5800800  51.8302950  33.9249530
  22.5790560  51.7797240  35.0595330  21.0014710  42.5919320  38.8371450
  20.2930860  43.0605660  39.2785060  21.2859190  41.9341330  39.4716640
  22.1206930  54.5525280  39.5495220  22.3748430  54.5146670  38.6274590
  21.1719410  54.4258610  39.5423470  19.2049730  40.9004400  36.2122160
  20.0540260  41.3374550  36.1462350  18.8381000  41.2124660  37.0394220
  29.8337500  40.2283980  47.6792370  29.3311100  40.9689380  48.0186180
  30.6494160  40.6167980  47.3629160  18.1041150  47.1536760  34.6857690
  18.8704420  47.0418120  35.2483120  18.1815840  46.4574730  34.0334460
  16.7987910  44.5861830  35.3690580  16.8791500  43.6389340  35.4807980
  17.6907660  44.9168710  35.4751240  30.1285090  52.6426010  42.8007990
  30.2532510  53.4657180  43.2731800  30.9950650  52.4316740  42.4532140
  17.6002620  54.7357220  42.4725120  18.3365100  54.1872680  42.7433690
  17.9843540  55.6013230  42.3331110  14.4848100  50.8030790  38.3466630
  13.5587880  51.0451930  38.3372040  14.9504530  51.6305050  38.2251380
  16.6060900  53.9203290  51.6610700  17.4073630  54.2415340  52.0746100
  16.0912720  53.5598870  52.3830610  20.7104930  53.9087530  34.2950690
  21.5033540  54.1976360  33.8432480  20.1909280  53.4779700  33.6163170
  29.7635100  53.1357660  35.7187430  29.4776610  52.7222800  34.9041610
  29.5654650  54.0645370  35.5987950  14.3258710  46.4076750  50.6046750
  14.8297730  45.8284030  51.1762980  13.5866130  46.6916980  51.1423120
  21.2282330  49.1290940  34.1593040  21.1232970  48.5143290  34.8854420
  21.0606550  48.6056830  33.3756050  24.4685060  48.1910970  34.7635030
  23.9195160  48.6380270  35.4077770  25.0904320  47.6860220  35.2872700
  16.3581790  44.5506340  51.4996820  16.3987130  44.2520210  52.4082050
  17.2127290  44.9513950  51.3404340  20.1360180  47.1501890  36.6600330
  20.5576600  46.9841760  37.5031720  20.2611020  46.3402120  36.1655470
  18.2987600  43.1298440  49.4671310  17.7684060  42.6389390  48.8394650
  18.9675670  43.5582640  48.9329240  22.6487820  46.1739500  33.9077430
  23.1693480  45.4588520  33.5418580  23.2956220  46.8125370  34.2077940
  18.7859900  40.0960810  49.5468600  18.6916770  39.4781560  48.8219470
  18.2057290  40.8227100  49.3198510  21.5521340  38.6534050  46.5795990
  21.1038640  38.6758310  45.7341540  20.9186540  38.2553070  47.1766290
  19.0319080  43.2235120  33.6058490  18.8308140  42.3602480  33.9671830
  18.8611130  43.1368480  32.6680090  21.0613560  41.8225910  49.8422090
  21.6513250  41.5141760  50.5299910  20.2433800  41.3505660  49.9981990
  25.8806990  41.4391720  50.0755110  25.1922510  40.7773260  50.0105100
  26.6013010  40.9929990  50.5203570  17.8301880  40.3235740  33.5936370
  18.1327780  40.3303170  32.6855520  18.5696470  39.9733600  34.0904030
  22.6650520  55.0892600  48.5752810  22.5909220  55.9927740  48.8825180
  21.7629360  54.7704500  48.5474880  21.0486810  39.2670360  34.5792570
  20.7008810  38.5894350  33.9995020  21.2499580  38.8059870  35.3935960
  23.2135850  54.2551110  36.1979170  24.1086640  54.5936080  36.2197930
  23.2453480  53.5330520  35.5703450  16.8532010  49.6278160  34.4266170
  17.2906880  50.1707830  35.0823750  17.3379740  48.8025110  34.4362510
  14.0677810  52.4167190  41.8786430  14.3980820  51.5488250  41.6465070
  14.4968810  52.6225710  42.7091390  18.6639730  50.7476200  39.5388400
  18.3635270  50.6241170  40.4392310  18.5577220  49.8884790  39.1304130
  14.5568020  53.2837780  44.6168060  14.1199010  53.4638580  45.4492210
  15.1245700  54.0412400  44.4749780  31.4331650  50.5272600  34.2415080
  30.6024610  50.5949250  34.7122310  31.6103480  51.4176720  33.9381940
  30.8888110  47.2720080  36.7449280  31.6507020  47.8416730  36.8508970
  30.9042480  46.7047280  37.5157590  30.9407280  47.5654450  33.9021800
  31.2156120  48.4733330  33.7741020  30.7518020  47.5016980  34.8383790
  14.9784380  43.0919670  49.4218700  14.0840430  43.0586430  49.7612410
  15.5181930  43.2906460  50.1869950  28.6660310  39.8751390  51.3070450
  29.5430490  39.8834790  51.6904450  28.6781150  39.1382230  50.6962800
  13.6030530  43.0056940  36.9182270  12.6994610  43.2687140  36.7433930
  14.0871150  43.2768110  36.1382230  16.1457740  42.0622480  34.8276650
  16.8549440  41.6405700  34.3423930  15.4297680  42.1297710  34.1960000
  15.7931900  38.1161810  33.8679300  16.5160030  38.6570750  34.1860520
  16.0656420  37.8425230  32.9920840  15.4824090  37.3668000  43.7701920
  16.1300280  36.8165380  43.3297080  15.9025930  37.6211150  44.5917730
  29.3776430  37.5609360  47.1271560  30.0148650  38.1743500  47.4930750
  29.5251320  37.5970020  46.1820790  28.9357890  54.2625360  40.5289800
  29.5316960  53.9409930  39.8524220  29.1936040  53.7897180  41.3203070
  15.2356090  37.5223670  46.5127240  14.8870910  37.9787490  47.2785420
  14.9043790  36.6280800  46.5949670  22.7480910  38.7135550  50.0346660
  22.6869800  39.3057380  50.7842070  23.6881290  38.6061510  49.8896920
  25.3855470  38.3705610  49.6738950  25.9995880  38.6884900  49.0120030
  25.9305030  37.8854200  50.2934810  31.8030650  54.2697240  47.0800790
  31.3088930  54.6666110  46.3627920  31.1943940  53.6446450  47.4738070
  15.9076730  37.0499870  49.7878010  16.4559720  36.8687920  49.0244120
  15.9732040  36.2593980  50.3234320  16.6808490  53.6405520  47.7978210
  16.0868810  53.5090220  48.5368250  16.6732330  52.8043660  47.3320310
  26.1263510  36.9337750  46.0008240  25.2523350  37.2672860  45.7981170
  26.0174260  36.4610930  46.8260110  27.0335490  39.1408620  47.3849960
  26.7048850  38.3260380  47.0051690  27.9817790  39.0978430  47.2615650
  29.4870100  54.9120660  44.3587530  29.0273070  55.6636470  43.9845550
  28.8582560  54.1927130  44.3002330  19.9165820  53.2208900  43.5335660
  20.4330840  52.6096260  43.0083920  20.5663200  53.7237680  44.0246670
  22.6561320  54.1117390  44.3604640  22.9439130  53.8571690  43.4837650
  23.1684540  53.5594750  44.9510210  23.8738330  37.8507590  44.9401150
  23.0910120  38.3253090  45.2197910  23.5801260  36.9462420  44.8314330
  14.5950720  54.3238290  39.9583010  14.4272760  53.6908970  40.6564900
  13.7285230  54.5297690  39.6077200  15.2178740  38.1555070  37.4614870
  15.9758100  38.2683950  36.8878900  14.7555910  38.9924270  37.4158300
  16.2013420  53.0171520  37.4033150  15.6761040  53.3979550  36.6995110
  16.1258000  53.6422290  38.1242860  17.5903890  38.6819120  36.0016840
  18.1196650  37.8948920  35.8724790  18.2232210  39.3610310  36.2352370
  19.7841730  38.4194260  39.0562230  19.1544470  37.7181570  39.2232360
  19.2446870  39.1798390  38.8395390  22.7233680  55.0333490  51.7272840
  23.6500990  54.7977760  51.7708800  22.7084110  55.8605490  51.2458870
  30.9578740  54.5759060  38.7247090  31.1330930  53.8896800  38.0808010
  30.2600310  55.1006110  38.3323760  19.9097290  37.6978240  51.4914720
  19.6281560  38.2011840  50.7275540  20.2916990  36.8999990  51.1256850
  18.8006390  54.9653900  36.2782400  19.5325210  54.6813180  35.7306290
  19.0600060  54.7267180  37.1681780  17.9621180  51.0818630  36.2828730
  17.3330060  51.5503730  36.8314560  18.0769010  50.2367850  36.7174920
  26.5112750  37.1131820  52.0695190  26.3978200  37.4326430  52.9646710
  27.3282490  37.5144330  51.7732470  25.4170900  45.1324290  22.4329930
  25.3364950  44.2178900  22.1621640  25.0035320  45.6291360  21.7269640
  23.5488940  46.9103310  24.3139200  22.7731040  46.4303750  24.6037770
  24.2001870  46.2308960  24.1395360  17.5654770  47.2223120  25.1914960
  16.7339650  46.9671830  25.5911470  18.1735750  47.2933890  25.9272880
  27.5696370  51.3163500  23.0938330  27.1077900  50.5450740  23.4225500
  28.3821920  51.3429570  23.5990780  17.5456030  51.2563210  25.3872980
  17.8484070  50.3660950  25.2083200  18.2899620  51.8133430  25.1595230
  15.9746720  42.1825010  18.9757350  15.0863420  42.5240980  18.8737230
  16.2587910  41.9825330  18.0838180  13.9379730  44.7830660  24.8597050
  14.5095840  44.0152860  24.8600690  13.9381270  45.0819420  23.9503660
  23.7959680  53.6021510  22.7142320  23.1771120  54.0579010  22.1436760
  24.6511460  53.7572970  22.3132020  22.9897930  49.5860500  24.3209360
  22.9206210  48.6450440  24.1598490  23.7517790  49.6761910  24.8931930
  15.1804600  40.1915020  26.6465980  15.0007440  39.2940770  26.9268740
  14.7784680  40.7386890  27.3212930  24.0203100  42.3930880  24.5478290
  24.3967920  41.5202760  24.4351960  23.9222610  42.7289580  23.6568730
  18.1508110  40.7656510  20.0095730  18.2574860  41.6660240  20.3164490
  17.2400470  40.7174480  19.7190380  27.8027220  39.8881320  21.4806630
  28.6236840  39.3977890  21.5232110  27.8361300  40.4778980  22.2338470
  15.7991270  42.6875520  25.2548320  16.4801380  42.9513890  25.8735720
  15.4839320  41.8476390  25.5886330  19.9915840  43.7342880  24.3420910
  20.4994060  44.2323850  24.9825930  20.5229080  42.9578080  24.1660270
  32.0926770  41.9048070  28.0450260  31.3878940  42.2929780  27.5265370
  32.3584690  42.5998360  28.6471190  18.2751940  38.3741440  28.6084330
  18.2770380  38.8913830  27.8030230  17.4456250  37.8971620  28.5854260
  24.6623030  48.4860750  20.1074230  24.0440300  48.9510200  19.5436950
  25.1746280  49.1788230  20.5243740  19.5254790  48.0136620  26.7857830
  19.1924170  48.6405540  27.4278900  19.7021470  48.5398500  26.0059500
  28.0388700  41.8281700  24.2534170  27.3344270  42.1166590  24.8337280
  28.4000860  42.6381810  23.8933730  17.9567270  40.0851400  26.6154780
  18.2984080  40.9293450  26.3208650  17.0183080  40.2335140  26.7320120
  18.7373890  49.9817420  28.6007010  19.3547890  50.6568500  28.3191460
  17.8767010  50.3905400  28.5094510  14.0306230  49.1717280  17.4813860
  13.6534210  49.6604380  16.7498760  14.2879300  49.8442560  18.1120390
  29.6551480  51.4456830  26.5161650  28.9715000  52.1155940  26.5078320
  30.1945770  51.6437480  25.7506510  31.1075620  41.2736490  24.6443380
  30.1600530  41.3075470  24.7758810  31.4325610  42.0875440  25.0292740
  21.6395160  37.5733670  22.9399370  21.9470140  37.0180560  22.2234870
  20.7095860  37.7078130  22.7572360  27.1910220  53.2900960  25.2306830
  27.2037380  52.8863250  24.3629090  26.6385440  54.0648250  25.1268260
  28.4855640  50.0117180  20.3197000  28.3751970  49.0691510  20.4446420
  28.4823890  50.3732820  21.2059760  26.5895660  48.1930800  26.5589440
  27.0064450  47.9790910  25.7242900  27.3135480  48.4503590  27.1298060
  24.0275920  45.6382500  19.6759490  23.1005200  45.5719880  19.9047960
  24.1800740  46.5762630  19.5614730  24.0145000  41.9099500  16.6726650
  23.0748670  42.0713460  16.7579110  24.3328260  42.6285180  16.1262640
  30.5357760  46.5918020  26.6505680  29.7076390  46.6611110  26.1755810
  31.1308240  47.1772330  26.1821510  28.0573210  47.2002800  20.1794740
  27.4385630  46.8622350  19.5321040  28.0397660  46.5562560  20.8873930
  27.4999770  43.3787340  27.5960550  27.0870950  44.2041050  27.8500540
  26.7675720  42.7932380  27.4036910  19.6332560  46.1647240  22.4579220
  19.2289560  45.4524490  21.9625120  19.7195680  45.8200480  23.3467260
  20.1014260  49.8514800  24.6218430  19.8042550  49.2460270  23.9426210
  21.0514080  49.8892110  24.5107790  18.3461180  42.9390450  26.2378260
  18.8975770  43.0485790  25.4631510  18.8604690  43.3128050  26.9533490
  28.1899870  53.4246670  28.2841530  27.7130430  54.2318860  28.0914140
  27.5061660  52.7725000  28.4367740  19.1932690  49.5896490  31.2726230
  18.2961220  49.8136460  31.5199630  19.2185560  49.7131430  30.3237630
  26.2337910  46.4389610  17.1867490  26.6731190  45.6012040  17.0405310
  26.9466330  47.0719010  17.2731630  18.0203910  46.4609810  29.8483600
  17.8811680  47.3332610  30.2171000  17.1385270  46.1182620  29.7031540
  24.3433290  51.3785680  21.1548730  24.7829200  52.1210010  20.7404120
  24.2820180  51.6212250  22.0787690  19.8184260  52.4031510  32.0568750
  19.7899690  52.8074460  31.1897180  19.6549230  51.4741870  31.8940350
  29.8155050  37.6932420  15.5008530  29.5027710  37.7859250  16.4007600
  30.5767520  38.2713450  15.4505960  16.3337190  45.0592220  19.9585870
  16.2134790  45.7854310  19.3467140  16.0238080  44.2895130  19.4813780
  31.7699080  53.1858610  33.3532920  32.2458800  53.6641500  34.0322000
  32.3906240  53.1176100  32.6278420  13.9722560  48.2307360  25.7654510
  14.0502980  48.3656130  24.8210230  14.5864240  47.5223250  25.9582630
  15.2170190  49.9307550  22.1760690  14.8098270  50.0722140  21.3214290
  16.1083200  49.6467710  21.9731900  31.1732330  50.3771460  30.5132930
  31.2995390  50.1383340  29.5950110  31.2153710  49.5456000  30.9855010
  25.0349070  54.0799460  29.0827740  25.5493740  53.9907470  29.8850170
  24.1918150  54.4259160  29.3755650  27.0103470  54.3654800  18.5111740
  26.8504610  54.0757740  19.4093570  26.8450180  53.5894930  17.9756970
  19.4891850  54.1453330  20.2883360  19.3134330  53.2288870  20.0751160
  18.6347590  54.5040620  20.5281160  26.7129600  51.8742360  17.0709740
  26.0194760  51.8719650  16.4112020  27.4552460  51.4501680  16.6403910
  26.2779530  53.5005070  21.1458230  26.7336480  52.7194450  21.4596850
  26.6172050  54.2111890  21.6899410  14.0282080  49.2721530  28.3048970
  14.1913120  48.8026890  27.4868340  14.4934530  48.7645090  28.9697810
  18.8000850  38.4027290  23.3409540  18.3569000  39.1836830  23.0094060
  19.3585840  38.7257180  24.0480480  23.0870660  41.2695810  28.9444860
  22.6250030  41.4778830  29.7564800  22.6848770  40.4555160  28.6415530
  21.9159670  38.0237990  18.2215370  21.2913850  38.0197860  18.9468680
  21.8289790  37.1568950  17.8251340  20.8376750  38.9474620  25.1999140
  21.1349080  39.8537450  25.1191160  21.3862310  38.4593400  24.5858710
  18.5915070  43.5260860  21.0690790  18.3655990  43.3098030  21.9737410
  17.8107600  43.9589320  20.7236760  25.8212830  43.5324230  19.6681440
  25.2221720  44.2560030  19.4845060  26.3692440  43.4701010  18.8857890
  21.0314280  44.4246440  31.7351060  20.9357880  43.4841170  31.5851460
  21.8746260  44.6461510  31.3399130  24.4277700  42.1687770  21.6984720
  24.8207270  42.4859970  20.8853410  24.7894550  41.2899650  21.8129240
  16.1624820  40.8360110  29.8884840  15.7688210  41.6835320  30.0957620
  15.4743220  40.1986480  30.0793480  22.7369870  40.9195080  32.9581580
  22.0468190  40.7267280  33.5927670  23.4802170  41.2029720  33.4905880
  13.4641870  38.7588570  23.9214920  13.1754920  39.3291430  24.6339900
  14.2087630  38.2793020  24.2846150  13.6512100  42.7008690  15.1317640
  13.5686770  43.6439450  15.2732630  13.2995160  42.5583600  14.2529990
  25.0132840  44.7593520  25.7935500  24.2813960  45.2680330  26.1425600
  24.6157180  43.9423500  25.4924280  21.4510230  41.4347720  24.1987990
  21.4546290  40.9937670  23.3492530  22.3461350  41.7565050  24.3059810
  17.3012610  41.3174210  23.1582200  16.9612660  41.7949440  23.9149250
  16.5389930  40.8639330  22.7983300  21.5130380  42.4359800  17.1894750
  21.6343200  42.3946280  18.1380570  21.1278890  43.2983950  17.0341480
  25.4758750  40.2127200  25.2058440  25.4931490  40.6635850  26.0500290
  25.2274330  39.3132840  25.4191880  20.5251880  44.7460940  16.5878050
  19.9568780  44.2979190  15.9613960  21.2340880  45.1053720  16.0543200
  15.6021060  48.6472960  30.4644780  15.2175850  48.0066630  31.0627740
  15.9133250  49.3509080  31.0339510  21.7518200  45.4949500  25.9453400
  22.1188330  45.0208070  26.6914740  21.5623260  46.3691070  26.2861740
  14.6158690  40.2393190  22.0746870  14.3305610  39.8748860  22.9125490
  14.5537550  39.5073650  21.4610010  19.5417570  44.5358140  28.2637610
  19.2374640  45.4150120  28.4887970  20.4964030  44.5957930  28.2995050
  18.0699360  48.7419130  18.8604460  17.2961620  48.2016750  18.7003180
  18.7993990  48.2225740  18.5222220  28.8287340  47.7384490  24.6530850
  29.5486460  48.2339780  24.2626960  28.6269160  47.0602380  24.0084720
  24.2897280  39.1322450  18.7960240  23.4761890  38.6335620  18.7205550
  24.0959230  39.9720700  18.3796590  24.2106140  47.8093550  30.5399850
  24.1443450  46.8889220  30.2857440  23.5811280  47.9068990  31.2544490
  27.0045670  43.5042100  17.0922400  27.8925290  43.8159330  16.9173740
  26.9750760  42.6314350  16.7002980  18.1136760  48.4099510  22.4983270
  18.6315430  47.6067770  22.4440160  17.6620780  48.3478650  23.3400100
  23.0006260  49.6765790  17.7710570  23.3421960  50.4208020  17.2753890
  22.1718970  49.9896910  18.1335400  15.5981300  45.3760880  29.4108970
  15.2396240  46.0414730  29.9982310  15.3035860  44.5444430  29.7821590
  18.7994420  45.8345120  32.2948520  18.4994560  45.9802300  31.3976340
  19.5705660  45.2750410  32.2021910  24.1422870  50.6314120  30.2903650
  24.1567410  49.6995080  30.0722560  23.4347970  50.7173880  30.9293420
  29.2759940  44.8153940  16.5602260  29.1923660  45.2468160  15.7098700
  29.9954130  45.2752290  16.9929080  30.3534080  47.2721460  29.6372230
  29.6282270  47.8650240  29.4401620  30.8809540  47.2645000  28.8385600
  30.3047190  51.6696200  19.2884390  29.6623350  51.0151820  19.5628110
  29.9177850  52.0751290  18.5125060  25.8833670  48.9981630  23.1356080
  26.2357490  48.4009760  22.4757450  24.9996000  48.6725860  23.3064330
  21.9696950  49.7579320  20.5426490  22.6568080  50.3048530  20.9234080
  21.1829370  50.3020050  20.5776100  14.1089350  45.3752140  16.0343570
  14.9784200  45.6576940  16.3179490  13.6179670  46.1888010  15.9192380
  21.2724160  46.7625350  20.1551850  21.7286940  47.5730600  20.3812040
  20.9212370  46.4448490  20.9870340  23.5756770  52.2731690  27.3844150
  24.2198990  52.4791070  28.0617570  23.9386210  51.5120090  26.9315000
  17.1735940  37.1063000  20.6274370  17.0450570  37.0980900  21.5759290
  16.3497960  37.4446090  20.2765380  24.8488850  50.2764040  26.1021600
  25.4911080  49.5757200  26.2153770  25.3738200  51.0562480  25.9218490
  28.6944570  50.5612660  15.8260740  28.4682150  49.8443100  16.4185380
  28.3040770  50.3125100  14.9882490  26.6226470  51.0758940  29.3057660
  26.9582710  51.6625630  29.9835580  25.7026810  50.9451650  29.5355450
  14.4760600  54.5879520  16.6005200  14.8358240  55.1868860  15.9462470
  14.3352940  55.1339410  17.3740230  14.1729870  38.8654120  30.0881070
  13.4588390  39.0651040  30.6933680  14.5924910  38.0893690  30.4595870
  28.2760820  48.4784600  17.4874900  27.9882520  48.9397290  18.2752780
  29.0712990  48.0182370  17.7559120  14.4602460  52.8534380  31.0747600
  14.5693580  51.9129120  30.9342990  13.8083020  53.1189130  30.4261330
  22.4515050  51.1250270  32.4745720  22.1311920  50.4059510  33.0191410
  21.7773410  51.8005340  32.5481780  20.4929220  51.9710720  17.4178870
  20.4839320  52.7040410  16.8023380  19.5727580  51.7242300  17.5105830
  16.0935860  47.1925610  18.1625630  15.4863810  47.9324510  18.1720930
  16.5685210  47.2824970  17.3363830  25.6668650  41.3576430  27.8382520
  26.0349470  40.5371640  28.1662090  24.8066850  41.4178320  28.2538170
  29.0330680  40.3133370  18.6470080  28.4043840  40.4179040  17.9328310
  28.5382600  40.5330150  19.4363960  23.4788820  52.0338960  16.0804060
  23.5800800  51.8302950  15.1506040  22.5790560  51.7797240  16.2851840
  21.0014710  42.5919320  20.0627960  20.2930860  43.0605660  20.5041570
  21.2859190  41.9341330  20.6973150  22.6270640  44.0116020  28.0620490
  23.1255890  44.4861840  28.7272340  22.7693590  43.0879540  28.2690520
  25.0330140  39.3169980  21.5023750  24.9097920  39.3356110  20.5533260
  25.9814700  39.3648920  21.6222150  22.1206930  54.5525280  20.7751730
  22.3748430  54.5146670  19.8531100  21.1719410  54.4258610  20.7679980
  19.2049730  40.9004400  17.4378670  20.0540260  41.3374550  17.3718860
  18.8381000  41.2124660  18.2650730  29.8337500  40.2283980  28.9048880
  29.3311100  40.9689380  29.2442690  30.6494160  40.6167980  28.5885670
  28.1259510  45.4717160  22.3510240  27.1849650  45.4867390  22.5257930
  28.4403580  44.6853120  22.7970540  18.1041150  47.1536760  15.9114200
  18.8704420  47.0418120  16.4739630  18.1815840  46.4574730  15.2590970
  16.7987910  44.5861830  16.5947090  16.8791500  43.6389340  16.7064490
  17.6907660  44.9168710  16.7007750  30.1285090  52.6426010  24.0264500
  30.2532510  53.4657180  24.4988310  30.9950650  52.4316740  23.6788650
  17.6002620  54.7357220  23.6981630  18.3365100  54.1872680  23.9690200
  17.9843540  55.6013230  23.5587620  14.4848100  50.8030790  19.5723140
  13.5587880  51.0451930  19.5628550  14.9504530  51.6305050  19.4507890
  16.6060900  53.9203290  32.8867210  17.4073630  54.2415340  33.3002610
  16.0912720  53.5598870  33.6087120  20.7104930  53.9087530  15.5207200
  21.5033540  54.1976360  15.0688990  20.1909280  53.4779700  14.8419680
  25.4425530  50.0283160  32.8342620  24.8363690  50.0514760  32.0938370
  25.1379640  49.2966200  33.3709870  26.8725900  53.7563450  31.4452030
  27.8247650  53.6721470  31.3952270  26.7254120  54.4205160  32.1185820
  29.7635100  53.1357660  16.9443940  29.4776610  52.7222800  16.1298120
  29.5654650  54.0645370  16.8244460  14.3258710  46.4076750  31.8303260
  14.8297730  45.8284030  32.4019490  13.5866130  46.6916980  32.3679630
  21.2282330  49.1290940  15.3849550  21.1232970  48.5143290  16.1110930
  21.0606550  48.6056830  14.6012560  21.3796650  47.8147740  31.3638780
  20.6142320  48.3832740  31.2793450  21.5612610  47.5223950  30.4707010
  24.4685060  48.1910970  15.9891540  23.9195160  48.6380270  16.6334280
  25.0904320  47.6860220  16.5129210  28.5220000  49.5453070  31.9213800
  29.2629470  49.8828830  31.4181260  27.7592680  49.7145130  31.3683570
  16.3581790  44.5506340  32.7253330  16.3987130  44.2520210  33.6338560
  17.2127290  44.9513950  32.5660850  20.1360180  47.1501890  17.8856840
  20.5576600  46.9841760  18.7288230  20.2611020  46.3402120  17.3911980
  18.2987600  43.1298440  30.6927820  17.7684060  42.6389390  30.0651160
  18.9675670  43.5582640  30.1585750  22.6487820  46.1739500  15.1333940
  23.1693480  45.4588520  14.7675090  23.2956220  46.8125370  15.4334450
  27.1965660  47.5967900  30.4569010  27.6106680  47.7512980  31.3059430
  26.2616660  47.7223120  30.6194790  18.7859900  40.0960810  30.7725110
  18.6916770  39.4781560  30.0475980  18.2057290  40.8227100  30.5455020
  21.5521340  38.6534050  27.8052500  21.1038640  38.6758310  26.9598050
  20.9186540  38.2553070  28.4022800  21.9580890  47.5488380  28.4264940
  22.3769000  48.3921110  28.2541180  21.0389520  47.6860420  28.1971720
  24.2944790  45.2804560  29.8102780  24.4141000  44.6845700  30.5497620
  25.1538790  45.3174250  29.3904080  26.6332690  45.8341750  28.3865290
  26.1067910  46.3584370  27.7830430  26.9764030  46.4669140  29.0175020
  19.0319080  43.2235120  14.8315000  18.8308140  42.3602480  15.1928340
  18.8611130  43.1368480  13.8936600  19.8088310  53.8541390  29.5422670
  19.2709400  54.5787450  29.2231370  20.0622270  53.3771730  28.7520010
  21.0613560  41.8225910  31.0678600  21.6513250  41.5141760  31.7556420
  20.2433800  41.3505660  31.2238500  26.5107390  38.0343350  17.3601880
  26.7909680  37.1911250  17.7161300  25.7373120  38.2666460  17.8740630
  17.8301880  40.3235740  14.8192880  18.1327780  40.3303170  13.9112030
  18.5696470  39.9733600  15.3160540  22.6650520  55.0892600  29.8009320
  22.5909220  55.9927740  30.1081690  21.7629360  54.7704500  29.7731390
  21.0486810  39.2670360  15.8049080  20.7008810  38.5894350  15.2251530
  21.2499580  38.8059870  16.6192470  23.2135850  54.2551110  17.4235680
  24.1086640  54.5936080  17.4454440  23.2453480  53.5330520  16.7959960
  16.8532010  49.6278160  15.6522680  17.2906880  50.1707830  16.3080260
  17.3379740  48.8025110  15.6619020  14.0677810  52.4167190  23.1042940
  14.3980820  51.5488250  22.8721580  14.4968810  52.6225710  23.9347900
  18.6639730  50.7476200  20.7644910  18.3635270  50.6241170  21.6648820
  18.5577220  49.8884790  20.3560640  14.5568020  53.2837780  25.8424570
  14.1199010  53.4638580  26.6748720  15.1245700  54.0412400  25.7006290
  30.1930200  52.7854780  30.1301880  29.5932190  52.8447340  29.3865800
  30.3224100  51.8459760  30.2598730  31.4331650  50.5272600  15.4671590
  30.6024610  50.5949250  15.9378820  31.6103480  51.4176720  15.1638450
  30.8888110  47.2720080  17.9705790  31.6507020  47.8416730  18.0765480
  30.9042480  46.7047280  18.7414100  14.3892450  45.7958010  22.2013450
  13.7341290  45.5269650  21.5573150  15.2270400  45.6862490  21.7515430
  31.8948080  48.1270180  22.8147720  32.2656910  47.3437500  22.4083690
  32.5350010  48.8159280  22.6365020  28.8781840  49.5106760  28.2278040
  28.0641680  49.9403920  28.4903830  29.2856040  50.1225170  27.6147090
  30.9407280  47.5654450  15.1278310  31.2156120  48.4733330  14.9997530
  30.7518020  47.5016980  16.0640300  27.3382890  40.5899300  16.4231940
  27.7567770  40.4030280  15.5828600  27.0318950  39.7378350  16.7334870
  30.8372620  45.5023440  20.1207740  30.4616220  44.7351370  19.6889030
  30.1075740  45.8846140  20.6082670  15.4268380  46.1810580  26.7416790
  15.7941420  46.0937980  27.6212810  14.8579200  45.4177130  26.6423650
  30.2272240  44.6494960  29.7547260  29.9958330  44.4207710  28.8545210
  30.4876790  45.5694510  29.7092150  14.9784380  43.0919670  30.6475210
  14.0840430  43.0586430  30.9868920  15.5181930  43.2906460  31.4126460
  13.6030530  43.0056940  18.1438780  12.6994610  43.2687140  17.9690440
  14.0871150  43.2768110  17.3638740  30.1123580  43.7280930  23.4214980
  30.6361060  43.2343580  22.7905150  30.6983000  43.8631290  24.1662550
  30.2913300  43.8120800  26.9434530  29.3416010  43.7784340  27.0579520
  30.4726310  44.7220910  26.7084300  16.1457740  42.0622480  16.0533160
  16.8549440  41.6405700  15.5680440  15.4297680  42.1297710  15.4216510
  15.7931900  38.1161810  15.0935810  16.5160030  38.6570750  15.4117030
  16.0656420  37.8425230  14.2177350  29.6023550  42.9854280  19.3607390
  30.0982670  42.7525150  20.1456270  29.4039620  42.1466120  18.9445030
  15.4824090  37.3668000  24.9958430  16.1300280  36.8165380  24.5553590
  15.9025930  37.6211150  25.8174240  31.0310710  41.6215230  21.8945070
  30.9209990  41.4671270  22.8327340  31.7918300  41.0936170  21.6520480
  29.3776430  37.5609360  28.3528070  30.0148650  38.1743500  28.7187260
  29.5251320  37.5970020  27.4077300  31.9200980  39.4523150  15.1351210
  32.8450290  39.3204330  14.9269500  31.8976770  39.5315970  16.0887660
  31.9939470  40.2233810  17.7607920  31.1990970  40.1578930  18.2900830
  32.1982750  41.1584450  17.7493270  28.9357890  54.2625360  21.7546310
  29.5316960  53.9409930  21.0780730  29.1936040  53.7897180  22.5459580
  15.2356090  37.5223670  27.7383750  14.8870910  37.9787490  28.5041930
  14.9043790  36.6280800  27.8206180  16.8420460  50.6943270  31.9036940
  16.7990090  50.3236180  32.7851400  16.9731470  51.6320840  32.0438760
  20.5426490  52.2502860  27.5046660  20.3017850  52.5177420  26.6177180
  21.4829130  52.4208590  27.5597520  22.7480910  38.7135550  31.2603170
  22.6869800  39.3057380  32.0098580  23.6881290  38.6061510  31.1153430
  31.8030650  54.2697240  28.3057300  31.3088930  54.6666110  27.5884430
  31.1943940  53.6446450  28.6994580  15.9076730  37.0499870  31.0134520
  16.4559720  36.8687920  30.2500630  15.9732040  36.2593980  31.5490830
  16.6808490  53.6405520  29.0234720  16.0868810  53.5090220  29.7624760
  16.6732330  52.8043660  28.5576820  26.1263510  36.9337750  27.2264750
  25.2523350  37.2672860  27.0237680  26.0174260  36.4610930  28.0516620
  27.0335490  39.1408620  28.6106470  26.7048850  38.3260380  28.2308200
  27.9817790  39.0978430  28.4872160  29.4870100  54.9120660  25.5844040
  29.0273070  55.6636470  25.2102060  28.8582560  54.1927130  25.5258840
  16.3120720  51.0063900  27.9742760  15.5854780  50.3869190  27.9068710
  16.3729870  51.4004510  27.1040840  19.9165820  53.2208900  24.7592170
  20.4330840  52.6096260  24.2340430  20.5663200  53.7237680  25.2503180
  22.6561320  54.1117390  25.5861150  22.9439130  53.8571690  24.7094160
  23.1684540  53.5594750  26.1766720  23.8738330  37.8507590  26.1657660
  23.0910120  38.3253090  26.4454420  23.5801260  36.9462420  26.0570840
  28.4259400  38.5530690  24.2106750  28.8667490  38.4975790  23.3628350
  28.1566990  39.4688700  24.2816930  30.2897970  38.1845930  22.2215570
  30.2286370  37.2407150  22.0746590  31.0690000  38.2926020  22.7669030
  14.5950720  54.3238290  21.1839520  14.4272760  53.6908970  21.8821410
  13.7285230  54.5297690  20.8333710  15.2178740  38.1555070  18.6871380
  15.9758100  38.2683950  18.1135410  14.7555910  38.9924270  18.6414810
  21.7592550  40.2694340  21.6773690  20.9467060  39.8951230  21.3369570
  22.2634190  39.5139420  21.9794880  26.2617530  36.9336790  22.9156760
  26.8646900  37.5057000  23.3905280  25.5210520  37.4976230  22.6930660
  29.4052130  37.3358350  18.1897040  29.6002760  38.2341800  18.4564470
  28.6182000  37.1045430  18.6829990  16.2013420  53.0171520  18.6289660
  15.6761040  53.3979550  17.9251620  16.1258000  53.6422290  19.3499370
  17.5903890  38.6819120  17.2273350  18.1196650  37.8948920  17.0981300
  18.2232210  39.3610310  17.4608880  19.7841730  38.4194260  20.2818740
  19.1544470  37.7181570  20.4488870  19.2446870  39.1798390  20.0651900
  22.7233680  55.0333490  32.9529350  23.6500990  54.7977760  32.9965310
  22.7084110  55.8605490  32.4715380  30.9578740  54.5759060  19.9503600
  31.1330930  53.8896800  19.3064520  30.2600310  55.1006110  19.5580270
  19.9097290  37.6978240  32.7171230  19.6281560  38.2011840  31.9532050
  20.2916990  36.8999990  32.3513360  18.8006390  54.9653900  17.5038910
  19.5325210  54.6813180  16.9562800  19.0600060  54.7267180  18.3938290
  17.9621180  51.0818630  17.5085240  17.3330060  51.5503730  18.0571070
  18.0769010  50.2367850  17.9431430  29.2911240  54.2603350  32.7770390
  30.0836560  53.7652580  32.5696350  29.5844390  54.9393490  33.3846000
  25.4170900  45.1324290   3.6586440  25.3364950  44.2178900   3.3878150
  25.0035320  45.6291360   2.9526150  23.5488940  46.9103310   5.5395710
  22.7731040  46.4303750   5.8294280  24.2001870  46.2308960   5.3651870
  17.5654770  47.2223120   6.4171470  16.7339650  46.9671830   6.8167980
  18.1735750  47.2933890   7.1529390  27.5696370  51.3163500   4.3194840
  27.1077900  50.5450740   4.6482010  28.3821920  51.3429570   4.8247290
  17.5456030  51.2563210   6.6129490  17.8484070  50.3660950   6.4339710
  18.2899620  51.8133430   6.3851740  13.9379730  44.7830660   6.0853560
  14.5095840  44.0152860   6.0857200  13.9381270  45.0819420   5.1760170
  23.7959680  53.6021510   3.9398830  23.1771120  54.0579010   3.3693270
  24.6511460  53.7572970   3.5388530  22.9897930  49.5860500   5.5465870
  22.9206210  48.6450440   5.3855000  23.7517790  49.6761910   6.1188440
  15.1804600  40.1915020   7.8722490  15.0007440  39.2940770   8.1525250
  14.7784680  40.7386890   8.5469440  24.0203100  42.3930880   5.7734800
  24.3967920  41.5202760   5.6608470  23.9222610  42.7289580   4.8825240
  27.8027220  39.8881320   2.7063140  28.6236840  39.3977890   2.7488620
  27.8361300  40.4778980   3.4594980  15.7991270  42.6875520   6.4804830
  16.4801380  42.9513890   7.0992230  15.4839320  41.8476390   6.8142840
  19.9915840  43.7342880   5.5677420  20.4994060  44.2323850   6.2082440
  20.5229080  42.9578080   5.3916780  32.0926770  41.9048070   9.2706770
  31.3878940  42.2929780   8.7521880  32.3584690  42.5998360   9.8727700
  18.2751940  38.3741440   9.8340840  18.2770380  38.8913830   9.0286740
  17.4456250  37.8971620   9.8110770  19.5254790  48.0136620   8.0114340
  19.1924170  48.6405540   8.6535410  19.7021470  48.5398500   7.2316010
  28.0388700  41.8281700   5.4790680  27.3344270  42.1166590   6.0593790
  28.4000860  42.6381810   5.1190240  17.9567270  40.0851400   7.8411290
  18.2984080  40.9293450   7.5465160  17.0183080  40.2335140   7.9576630
  18.7373890  49.9817420   9.8263520  19.3547890  50.6568500   9.5447970
  17.8767010  50.3905400   9.7351020  29.6551480  51.4456830   7.7418160
  28.9715000  52.1155940   7.7334830  30.1945770  51.6437480   6.9763020
  31.1075620  41.2736490   5.8699890  30.1600530  41.3075470   6.0015320
  31.4325610  42.0875440   6.2549250  21.6395160  37.5733670   4.1655880
  21.9470140  37.0180560   3.4491380  20.7095860  37.7078130   3.9828870
  27.1910220  53.2900960   6.4563340  27.2037380  52.8863250   5.5885600
  26.6385440  54.0648250   6.3524770  26.5895660  48.1930800   7.7845950
  27.0064450  47.9790910   6.9499410  27.3135480  48.4503590   8.3554570
  30.5357760  46.5918020   7.8762190  29.7076390  46.6611110   7.4012320
  31.1308240  47.1772330   7.4078020  27.4999770  43.3787340   8.8217060
  27.0870950  44.2041050   9.0757050  26.7675720  42.7932380   8.6293420
  19.6332560  46.1647240   3.6835730  19.2289560  45.4524490   3.1881630
  19.7195680  45.8200480   4.5723770  20.1014260  49.8514800   5.8474940
  19.8042550  49.2460270   5.1682720  21.0514080  49.8892110   5.7364300
  18.3461180  42.9390450   7.4634770  18.8975770  43.0485790   6.6888020
  18.8604690  43.3128050   8.1790000  28.1899870  53.4246670   9.5098040
  27.7130430  54.2318860   9.3170650  27.5061660  52.7725000   9.6624250
  19.1932690  49.5896490  12.4982740  18.2961220  49.8136460  12.7456140
  19.2185560  49.7131430  11.5494140  18.0203910  46.4609810  11.0740110
  17.8811680  47.3332610  11.4427510  17.1385270  46.1182620  10.9288050
  24.3433290  51.3785680   2.3805240  24.7829200  52.1210010   1.9660630
  24.2820180  51.6212250   3.3044200  19.8184260  52.4031510  13.2825260
  19.7899690  52.8074460  12.4153690  19.6549230  51.4741870  13.1196860
  31.7699080  53.1858610  14.5789430  32.2458800  53.6641500  15.2578510
  32.3906240  53.1176100  13.8534930  13.9722560  48.2307360   6.9911020
  14.0502980  48.3656130   6.0466740  14.5864240  47.5223250   7.1839140
  15.2170190  49.9307550   3.4017200  14.8098270  50.0722140   2.5470800
  16.1083200  49.6467710   3.1988410  31.1732330  50.3771460  11.7389440
  31.2995390  50.1383340  10.8206620  31.2153710  49.5456000  12.2111520
  25.0349070  54.0799460  10.3084250  25.5493740  53.9907470  11.1106680
  24.1918150  54.4259160  10.6012160  26.2779530  53.5005070   2.3714740
  26.7336480  52.7194450   2.6853360  26.6172050  54.2111890   2.9155920
  31.0256340  42.4303920  12.7039180  30.4100610  42.9383590  12.1754640
  30.7052760  41.5302250  12.6465120  14.0282080  49.2721530   9.5305480
  14.1913120  48.8026890   8.7124850  14.4934530  48.7645090  10.1954320
  18.8000850  38.4027290   4.5666050  18.3569000  39.1836830   4.2350570
  19.3585840  38.7257180   5.2736990  23.0870660  41.2695810  10.1701370
  22.6250030  41.4778830  10.9821310  22.6848770  40.4555160   9.8672040
  28.0875170  42.4904760  11.2998030  27.2368760  42.1910510  11.6207100
  27.9276960  42.7346770  10.3881850  25.1824880  43.9906510  13.3996820
  25.5078290  43.1570260  13.0599050  25.9705210  44.5135030  13.5475150
  20.8376750  38.9474620   6.4255650  21.1349080  39.8537450   6.3447670
  21.3862310  38.4593400   5.8115220  18.5915070  43.5260860   2.2947300
  18.3655990  43.3098030   3.1993920  17.8107600  43.9589320   1.9493270
  21.0314280  44.4246440  12.9607570  20.9357880  43.4841170  12.8107970
  21.8746260  44.6461510  12.5655640  24.4277700  42.1687770   2.9241230
  24.8207270  42.4859970   2.1109920  24.7894550  41.2899650   3.0385750
  16.1624820  40.8360110  11.1141350  15.7688210  41.6835320  11.3214130
  15.4743220  40.1986480  11.3049990  22.7369870  40.9195080  14.1838090
  22.0468190  40.7267280  14.8184180  23.4802170  41.2029720  14.7162390
  13.4641870  38.7588570   5.1471430  13.1754920  39.3291430   5.8596410
  14.2087630  38.2793020   5.5102660  25.0132840  44.7593520   7.0192010
  24.2813960  45.2680330   7.3682110  24.6157180  43.9423500   6.7180790
  21.4510230  41.4347720   5.4244500  21.4546290  40.9937670   4.5749040
  22.3461350  41.7565050   5.5316320  17.3012610  41.3174210   4.3838710
  16.9612660  41.7949440   5.1405760  16.5389930  40.8639330   4.0239810
  25.4758750  40.2127200   6.4314950  25.4931490  40.6635850   7.2756800
  25.2274330  39.3132840   6.6448390  28.9029500  37.6259380  12.2701330
  29.2275270  36.8949040  12.7959310  28.9386010  37.3073020  11.3682320
  15.6021060  48.6472960  11.6901290  15.2175850  48.0066630  12.2884250
  15.9133250  49.3509080  12.2596020  21.7518200  45.4949500   7.1709910
  22.1188330  45.0208070   7.9171250  21.5623260  46.3691070   7.5118250
  14.6158690  40.2393190   3.3003380  14.3305610  39.8748860   4.1382000
  14.5537550  39.5073650   2.6866520  19.5417570  44.5358140   9.4894120
  19.2374640  45.4150120   9.7144480  20.4964030  44.5957930   9.5251560
  28.8287340  47.7384490   5.8787360  29.5486460  48.2339780   5.4883470
  28.6269160  47.0602380   5.2341230  24.2106140  47.8093550  11.7656360
  24.1443450  46.8889220  11.5113950  23.5811280  47.9068990  12.4801000
  18.1136760  48.4099510   3.7239780  18.6315430  47.6067770   3.6696670
  17.6620780  48.3478650   4.5656610  15.5981300  45.3760880  10.6365480
  15.2396240  46.0414730  11.2238820  15.3035860  44.5444430  11.0078100
  18.7994420  45.8345120  13.5205030  18.4994560  45.9802300  12.6232850
  19.5705660  45.2750410  13.4278420  24.1422870  50.6314120  11.5160160
  24.1567410  49.6995080  11.2979070  23.4347970  50.7173880  12.1549930
  30.3534080  47.2721460  10.8628740  29.6282270  47.8650240  10.6658130
  30.8809540  47.2645000  10.0642110  25.8833670  48.9981630   4.3612590
  26.2357490  48.4009760   3.7013960  24.9996000  48.6725860   4.5320840
  21.9696950  49.7579320   1.7683000  22.6568080  50.3048530   2.1490590
  21.1829370  50.3020050   1.8032610  23.5756770  52.2731690   8.6100660
  24.2198990  52.4791070   9.2874080  23.9386210  51.5120090   8.1571510
  24.8488850  50.2764040   7.3278110  25.4911080  49.5757200   7.4410280
  25.3738200  51.0562480   7.1475000  26.6226470  51.0758940  10.5314170
  26.9582710  51.6625630  11.2092090  25.7026810  50.9451650  10.7611960
  14.1729870  38.8654120  11.3137580  13.4588390  39.0651040  11.9190190
  14.5924910  38.0893690  11.6852380  14.4602460  52.8534380  12.3004110
  14.5693580  51.9129120  12.1599500  13.8083020  53.1189130  11.6517840
  22.4515050  51.1250270  13.7002230  22.1311920  50.4059510  14.2447920
  21.7773410  51.8005340  13.7738290  25.6668650  41.3576430   9.0639030
  26.0349470  40.5371640   9.3918600  24.8066850  41.4178320   9.4794680
  22.6270640  44.0116020   9.2877000  23.1255890  44.4861840   9.9528850
  22.7693590  43.0879540   9.4947030  25.0330140  39.3169980   2.7280260
  24.9097920  39.3356110   1.7789770  25.9814700  39.3648920   2.8478660
  29.8337500  40.2283980  10.1305390  29.3311100  40.9689380  10.4699200
  30.6494160  40.6167980   9.8142180  28.1259510  45.4717160   3.5766750
  27.1849650  45.4867390   3.7514440  28.4403580  44.6853120   4.0227050
  30.1285090  52.6426010   5.2521010  30.2532510  53.4657180   5.7244820
  30.9950650  52.4316740   4.9045160  17.6002620  54.7357220   4.9238140
  18.3365100  54.1872680   5.1946710  17.9843540  55.6013230   4.7844130
  16.6060900  53.9203290  14.1123720  17.4073630  54.2415340  14.5259120
  16.0912720  53.5598870  14.8343630  25.4425530  50.0283160  14.0599130
  24.8363690  50.0514760  13.3194880  25.1379640  49.2966200  14.5966380
  26.8725900  53.7563450  12.6708540  27.8247650  53.6721470  12.6208780
  26.7254120  54.4205160  13.3442330  14.3258710  46.4076750  13.0559770
  14.8297730  45.8284030  13.6276000  13.5866130  46.6916980  13.5936140
  21.3796650  47.8147740  12.5895290  20.6142320  48.3832740  12.5049960
  21.5612610  47.5223950  11.6963520  28.5220000  49.5453070  13.1470310
  29.2629470  49.8828830  12.6437770  27.7592680  49.7145130  12.5940080
  16.3581790  44.5506340  13.9509840  16.3987130  44.2520210  14.8595070
  17.2127290  44.9513950  13.7917360  18.2987600  43.1298440  11.9184330
  17.7684060  42.6389390  11.2907670  18.9675670  43.5582640  11.3842260
  27.1965660  47.5967900  11.6825520  27.6106680  47.7512980  12.5315940
  26.2616660  47.7223120  11.8451300  27.6687830  44.9364060  13.6864670
  28.2508600  44.1816380  13.5985150  27.8449600  45.4671500  12.9096150
  18.7859900  40.0960810  11.9981620  18.6916770  39.4781560  11.2732490
  18.2057290  40.8227100  11.7711530  21.5521340  38.6534050   9.0309010
  21.1038640  38.6758310   8.1854560  20.9186540  38.2553070   9.6279310
  21.9580890  47.5488380   9.6521450  22.3769000  48.3921110   9.4797690
  21.0389520  47.6860420   9.4228230  24.2944790  45.2804560  11.0359290
  24.4141000  44.6845700  11.7754130  25.1538790  45.3174250  10.6160590
  26.6332690  45.8341750   9.6121800  26.1067910  46.3584370   9.0086940
  26.9764030  46.4669140  10.2431530  19.8088310  53.8541390  10.7679180
  19.2709400  54.5787450  10.4487880  20.0622270  53.3771730   9.9776520
  21.0613560  41.8225910  12.2935110  21.6513250  41.5141760  12.9812930
  20.2433800  41.3505660  12.4495010  25.8806990  41.4391720  12.5268130
  25.1922510  40.7773260  12.4618120  26.6013010  40.9929990  12.9716590
  22.6650520  55.0892600  11.0265830  22.5909220  55.9927740  11.3338200
  21.7629360  54.7704500  10.9987900  14.0677810  52.4167190   4.3299450
  14.3980820  51.5488250   4.0978090  14.4968810  52.6225710   5.1604410
  14.5568020  53.2837780   7.0681080  14.1199010  53.4638580   7.9005230
  15.1245700  54.0412400   6.9262800  30.1930200  52.7854780  11.3558390
  29.5932190  52.8447340  10.6122310  30.3224100  51.8459760  11.4855240
  14.3892450  45.7958010   3.4269960  13.7341290  45.5269650   2.7829660
  15.2270400  45.6862490   2.9771940  31.8948080  48.1270180   4.0404230
  32.2656910  47.3437500   3.6340200  32.5350010  48.8159280   3.8621530
  28.8781840  49.5106760   9.4534550  28.0641680  49.9403920   9.7160340
  29.2856040  50.1225170   8.8403600  15.4268380  46.1810580   7.9673300
  15.7941420  46.0937980   8.8469320  14.8579200  45.4177130   7.8680160
  30.2272240  44.6494960  10.9803770  29.9958330  44.4207710  10.0801720
  30.4876790  45.5694510  10.9348660  14.9784380  43.0919670  11.8731720
  14.0840430  43.0586430  12.2125430  15.5181930  43.2906460  12.6382970
  28.6660310  39.8751390  13.7583470  29.5430490  39.8834790  14.1417470
  28.6781150  39.1382230  13.1475820  30.1123580  43.7280930   4.6471490
  30.6361060  43.2343580   4.0161660  30.6983000  43.8631290   5.3919060
  30.2913300  43.8120800   8.1691040  29.3416010  43.7784340   8.2836030
  30.4726310  44.7220910   7.9340810  15.4824090  37.3668000   6.2214940
  16.1300280  36.8165380   5.7810100  15.9025930  37.6211150   7.0430750
  31.0310710  41.6215230   3.1201580  30.9209990  41.4671270   4.0583850
  31.7918300  41.0936170   2.8776990  29.3776430  37.5609360   9.5784580
  30.0148650  38.1743500   9.9443770  29.5251320  37.5970020   8.6333810
  28.9357890  54.2625360   2.9802820  29.5316960  53.9409930   2.3037240
  29.1936040  53.7897180   3.7716090  15.2356090  37.5223670   8.9640260
  14.8870910  37.9787490   9.7298440  14.9043790  36.6280800   9.0462690
  16.8420460  50.6943270  13.1293450  16.7990090  50.3236180  14.0107910
  16.9731470  51.6320840  13.2695270  20.5426490  52.2502860   8.7303170
  20.3017850  52.5177420   7.8433690  21.4829130  52.4208590   8.7854030
  22.7480910  38.7135550  12.4859680  22.6869800  39.3057380  13.2355090
  23.6881290  38.6061510  12.3409940  25.3855470  38.3705610  12.1251970
  25.9995880  38.6884900  11.4633050  25.9305030  37.8854200  12.7447830
  31.8030650  54.2697240   9.5313810  31.3088930  54.6666110   8.8140940
  31.1943940  53.6446450   9.9251090  15.9076730  37.0499870  12.2391030
  16.4559720  36.8687920  11.4757140  15.9732040  36.2593980  12.7747340
  16.6808490  53.6405520  10.2491230  16.0868810  53.5090220  10.9881270
  16.6732330  52.8043660   9.7833330  26.1263510  36.9337750   8.4521260
  25.2523350  37.2672860   8.2494190  26.0174260  36.4610930   9.2773130
  27.0335490  39.1408620   9.8362980  26.7048850  38.3260380   9.4564710
  27.9817790  39.0978430   9.7128670  29.4870100  54.9120660   6.8100550
  29.0273070  55.6636470   6.4358570  28.8582560  54.1927130   6.7515350
  16.3120720  51.0063900   9.1999270  15.5854780  50.3869190   9.1325220
  16.3729870  51.4004510   8.3297350  19.9165820  53.2208900   5.9848680
  20.4330840  52.6096260   5.4596940  20.5663200  53.7237680   6.4759690
  22.6561320  54.1117390   6.8117660  22.9439130  53.8571690   5.9350670
  23.1684540  53.5594750   7.4023230  23.8738330  37.8507590   7.3914170
  23.0910120  38.3253090   7.6710930  23.5801260  36.9462420   7.2827350
  28.4259400  38.5530690   5.4363260  28.8667490  38.4975790   4.5884860
  28.1566990  39.4688700   5.5073440  30.2897970  38.1845930   3.4472080
  30.2286370  37.2407150   3.3003100  31.0690000  38.2926020   3.9925540
  14.5950720  54.3238290   2.4096030  14.4272760  53.6908970   3.1077920
  13.7285230  54.5297690   2.0590220  21.7592550  40.2694340   2.9030200
  20.9467060  39.8951230   2.5626080  22.2634190  39.5139420   3.2051390
  26.2617530  36.9336790   4.1413270  26.8646900  37.5057000   4.6161790
  25.5210520  37.4976230   3.9187170  22.7233680  55.0333490  14.1785860
  23.6500990  54.7977760  14.2221820  22.7084110  55.8605490  13.6971890
  19.9097290  37.6978240  13.9427740  19.6281560  38.2011840  13.1788560
  20.2916990  36.8999990  13.5769870  26.5112750  37.1131820  14.5208210
  26.3978200  37.4326430  15.4159730  27.3282490  37.5144330  14.2245490
  29.2911240  54.2603350  14.0026900  30.0836560  53.7652580  13.7952860
  29.5844390  54.9393490  14.6102510  25.4170900  26.3580800  59.9816910
  25.3364950  25.4435410  59.7108620  25.0035320  26.8547870  59.2756620
  23.5488940  28.1359820  61.8626180  22.7731040  27.6560260  62.1524750
  24.2001870  27.4565470  61.6882340  17.5654770  28.4479630  62.7401940
  16.7339650  28.1928340  63.1398450  18.1735750  28.5190400  63.4759860
  27.5696370  32.5420010  60.6425310  27.1077900  31.7707250  60.9712480
  28.3821920  32.5686080  61.1477760  17.5456030  32.4819720  62.9359960
  17.8484070  31.5917460  62.7570180  18.2899620  33.0389940  62.7082210
  15.9746720  23.4081520  56.5244330  15.0863420  23.7497490  56.4224210
  16.2587910  23.2081840  55.6325160  13.9379730  26.0087170  62.4084030
  14.5095840  25.2409370  62.4087670  13.9381270  26.3075930  61.4990640
  23.7959680  34.8278020  60.2629300  23.1771120  35.2835520  59.6923740
  24.6511460  34.9829480  59.8619000  22.9897930  30.8117010  61.8696340
  22.9206210  29.8706950  61.7085470  23.7517790  30.9018420  62.4418910
  15.1804600  21.4171530  64.1952960  15.0007440  20.5197280  64.4755720
  14.7784680  21.9643400  64.8699910  24.0203100  23.6187390  62.0965270
  24.3967920  22.7459270  61.9838940  23.9222610  23.9546090  61.2055710
  18.1508110  21.9913020  57.5582710  18.2574860  22.8916750  57.8651470
  17.2400470  21.9430990  57.2677360  27.8027220  21.1137830  59.0293610
  28.6236840  20.6234400  59.0719090  27.8361300  21.7035490  59.7825450
  15.7991270  23.9132030  62.8035300  16.4801380  24.1770400  63.4222700
  15.4839320  23.0732900  63.1373310  19.9915840  24.9599390  61.8907890
  20.4994060  25.4580360  62.5312910  20.5229080  24.1834590  61.7147250
  24.6623030  29.7117260  57.6561210  24.0440300  30.1766710  57.0923930
  25.1746280  30.4044740  58.0730720  19.5254790  29.2393130  64.3344810
  19.1924170  29.8662050  64.9765880  19.7021470  29.7655010  63.5546480
  28.0388700  23.0538210  61.8021150  27.3344270  23.3423100  62.3824260
  28.4000860  23.8638320  61.4420710  17.9567270  21.3107910  64.1641760
  18.2984080  22.1549960  63.8695630  17.0183080  21.4591650  64.2807100
  14.0306230  30.3973790  55.0300840  13.6534210  30.8860890  54.2985740
  14.2879300  31.0699070  55.6607370  29.6551480  32.6713340  64.0648630
  28.9715000  33.3412450  64.0565300  30.1945770  32.8693990  63.2993490
  31.1075620  22.4993000  62.1930360  30.1600530  22.5331980  62.3245790
  31.4325610  23.3131950  62.5779720  21.6395160  18.7990180  60.4886350
  21.9470140  18.2437070  59.7721850  20.7095860  18.9334640  60.3059340
  27.1910220  34.5157470  62.7793810  27.2037380  34.1119760  61.9116070
  26.6385440  35.2904760  62.6755240  28.4855640  31.2373690  57.8683980
  28.3751970  30.2948020  57.9933400  28.4823890  31.5989330  58.7546740
  26.5895660  29.4187310  64.1076420  27.0064450  29.2047420  63.2729880
  27.3135480  29.6760100  64.6785040  24.0275920  26.8639010  57.2246470
  23.1005200  26.7976390  57.4534940  24.1800740  27.8019140  57.1101710
  24.0145000  23.1356010  54.2213630  23.0748670  23.2969970  54.3066090
  24.3328260  23.8541690  53.6749620  30.5357760  27.8174530  64.1992660
  29.7076390  27.8867620  63.7242790  31.1308240  28.4028840  63.7308490
  28.0573210  28.4259310  57.7281720  27.4385630  28.0878860  57.0808020
  28.0397660  27.7819070  58.4360910  19.6332560  27.3903750  60.0066200
  19.2289560  26.6781000  59.5112100  19.7195680  27.0456990  60.8954240
  20.1014260  31.0771310  62.1705410  19.8042550  30.4716780  61.4913190
  21.0514080  31.1148620  62.0594770  18.3461180  24.1646960  63.7865240
  18.8975770  24.2742300  63.0118490  18.8604690  24.5384560  64.5020470
  26.2337910  27.6646120  54.7354470  26.6731190  26.8268550  54.5892290
  26.9466330  28.2975520  54.8218610  24.3433290  32.6042190  58.7035710
  24.7829200  33.3466520  58.2891100  24.2820180  32.8468760  59.6274670
  29.8155050  18.9188930  53.0495510  29.5027710  19.0115760  53.9494580
  30.5767520  19.4969960  52.9992940  16.3337190  26.2848730  57.5072850
  16.2134790  27.0110820  56.8954120  16.0238080  25.5151640  57.0300760
  13.9722560  29.4563870  63.3141490  14.0502980  29.5912640  62.3697210
  14.5864240  28.7479760  63.5069610  15.2170190  31.1564060  59.7247670
  14.8098270  31.2978650  58.8701270  16.1083200  30.8724220  59.5218880
  27.0103470  35.5911310  56.0598720  26.8504610  35.3014250  56.9580550
  26.8450180  34.8151440  55.5243950  19.4891850  35.3709840  57.8370340
  19.3134330  34.4545380  57.6238140  18.6347590  35.7297130  58.0768140
  26.7129600  33.0998870  54.6196720  26.0194760  33.0976160  53.9599000
  27.4552460  32.6758190  54.1890890  26.2779530  34.7261580  58.6945210
  26.7336480  33.9450960  59.0083830  26.6172050  35.4368400  59.2386390
  18.8000850  19.6283800  60.8896520  18.3569000  20.4093340  60.5581040
  19.3585840  19.9513690  61.5967460  21.9159670  19.2494500  55.7702350
  21.2913850  19.2454370  56.4955660  21.8289790  18.3825460  55.3738320
  20.8376750  20.1731130  62.7486120  21.1349080  21.0793960  62.6678140
  21.3862310  19.6849910  62.1345690  18.5915070  24.7517370  58.6177770
  18.3655990  24.5354540  59.5224390  17.8107600  25.1845830  58.2723740
  25.8212830  24.7580740  57.2168420  25.2221720  25.4816540  57.0332040
  26.3692440  24.6957520  56.4344870  24.4277700  23.3944280  59.2471700
  24.8207270  23.7116480  58.4340390  24.7894550  22.5156160  59.3616220
  13.4641870  19.9845080  61.4701900  13.1754920  20.5547940  62.1826880
  14.2087630  19.5049530  61.8333130  13.6512100  23.9265200  52.6804620
  13.5686770  24.8695960  52.8219610  13.2995160  23.7840110  51.8016970
  25.0132840  25.9850030  63.3422480  24.2813960  26.4936840  63.6912580
  24.6157180  25.1680010  63.0411260  21.4510230  22.6604230  61.7474970
  21.4546290  22.2194180  60.8979510  22.3461350  22.9821560  61.8546790
  17.3012610  22.5430720  60.7069180  16.9612660  23.0205950  61.4636230
  16.5389930  22.0895840  60.3470280  21.5130380  23.6616310  54.7381730
  21.6343200  23.6202790  55.6867550  21.1278890  24.5240460  54.5828460
  25.4758750  21.4383710  62.7545420  25.4931490  21.8892360  63.5987270
  25.2274330  20.5389350  62.9678860  20.5251880  25.9717450  54.1365030
  19.9568780  25.5235700  53.5100940  21.2340880  26.3310230  53.6030180
  21.7518200  26.7206010  63.4940380  22.1188330  26.2464580  64.2401720
  21.5623260  27.5947580  63.8348720  14.6158690  21.4649700  59.6233850
  14.3305610  21.1005370  60.4612470  14.5537550  20.7330160  59.0096990
  18.0699360  29.9675640  56.4091440  17.2961620  29.4273260  56.2490160
  18.7993990  29.4482250  56.0709200  28.8287340  28.9641000  62.2017830
  29.5486460  29.4596290  61.8113940  28.6269160  28.2858890  61.5571700
  24.2897280  20.3578960  56.3447220  23.4761890  19.8592130  56.2692530
  24.0959230  21.1977210  55.9283570  27.0045670  24.7298610  54.6409380
  27.8925290  25.0415840  54.4660720  26.9750760  23.8570860  54.2489960
  18.1136760  29.6356020  60.0470250  18.6315430  28.8324280  59.9927140
  17.6620780  29.5735160  60.8887080  23.0006260  30.9022300  55.3197550
  23.3421960  31.6464530  54.8240870  22.1718970  31.2153420  55.6822380
  29.2759940  26.0410450  54.1089240  29.1923660  26.4724670  53.2585680
  29.9954130  26.5008800  54.5416060  30.3047190  32.8952710  56.8371370
  29.6623350  32.2408330  57.1115090  29.9177850  33.3007800  56.0612040
  25.8833670  30.2238140  60.6843060  26.2357490  29.6266270  60.0244430
  24.9996000  29.8982370  60.8551310  21.9696950  30.9835830  58.0913470
  22.6568080  31.5305040  58.4721060  21.1829370  31.5276560  58.1263080
  14.1089350  26.6008650  53.5830550  14.9784200  26.8833450  53.8666470
  13.6179670  27.4144520  53.4679360  21.2724160  27.9881860  57.7038830
  21.7286940  28.7987110  57.9299020  20.9212370  27.6705000  58.5357320
  17.1735940  18.3319510  58.1761350  17.0450570  18.3237410  59.1246270
  16.3497960  18.6702600  57.8252360  24.8488850  31.5020550  63.6508580
  25.4911080  30.8013710  63.7640750  25.3738200  32.2818990  63.4705470
  28.6944570  31.7869170  53.3747720  28.4682150  31.0699610  53.9672360
  28.3040770  31.5381610  52.5369470  14.4760600  35.8136030  54.1492180
  14.8358240  36.4125370  53.4949450  14.3352940  36.3595920  54.9227210
  28.2760820  29.7041110  55.0361880  27.9882520  30.1653800  55.8239760
  29.0712990  29.2438880  55.3046100  20.4929220  33.1967230  54.9665850
  20.4839320  33.9296920  54.3510360  19.5727580  32.9498810  55.0592810
  16.0935860  28.4182120  55.7112610  15.4863810  29.1581020  55.7207910
  16.5685210  28.5081480  54.8850810  29.0330680  21.5389880  56.1957060
  28.4043840  21.6435550  55.4815290  28.5382600  21.7586660  56.9850940
  23.4788820  33.2595470  53.6291040  23.5800800  33.0559460  52.6993020
  22.5790560  33.0053750  53.8338820  21.0014710  23.8175830  57.6114940
  20.2930860  24.2862170  58.0528550  21.2859190  23.1597840  58.2460130
  25.0330140  20.5426490  59.0510730  24.9097920  20.5612620  58.1020240
  25.9814700  20.5905430  59.1709130  22.1206930  35.7781790  58.3238710
  22.3748430  35.7403180  57.4018080  21.1719410  35.6515120  58.3166960
  19.2049730  22.1260910  54.9865650  20.0540260  22.5631060  54.9205840
  18.8381000  22.4381170  55.8137710  28.1259510  26.6973670  59.8997220
  27.1849650  26.7123900  60.0744910  28.4403580  25.9109630  60.3457520
  18.1041150  28.3793270  53.4601180  18.8704420  28.2674630  54.0226610
  18.1815840  27.6831240  52.8077950  16.7987910  25.8118340  54.1434070
  16.8791500  24.8645850  54.2551470  17.6907660  26.1425220  54.2494730
  30.1285090  33.8682520  61.5751480  30.2532510  34.6913690  62.0475290
  30.9950650  33.6573250  61.2275630  17.6002620  35.9613730  61.2468610
  18.3365100  35.4129190  61.5177180  17.9843540  36.8269740  61.1074600
  14.4848100  32.0287300  57.1210120  13.5587880  32.2708440  57.1115530
  14.9504530  32.8561560  56.9994870  20.7104930  35.1344040  53.0694180
  21.5033540  35.4232870  52.6175970  20.1909280  34.7036210  52.3906660
  29.7635100  34.3614170  54.4930920  29.4776610  33.9479310  53.6785100
  29.5654650  35.2901880  54.3731440  21.2282330  30.3547450  52.9336530
  21.1232970  29.7399800  53.6597910  21.0606550  29.8313340  52.1499540
  24.4685060  29.4167480  53.5378520  23.9195160  29.8636780  54.1821260
  25.0904320  28.9116730  54.0616190  20.1360180  28.3758400  55.4343820
  20.5576600  28.2098270  56.2775210  20.2611020  27.5658630  54.9398960
  22.6487820  27.3996010  52.6820920  23.1693480  26.6845030  52.3162070
  23.2956220  28.0381880  52.9821430  19.0319080  24.4491630  52.3801980
  18.8308140  23.5858990  52.7415320  18.8611130  24.3624990  51.4423580
  26.5107390  19.2599860  54.9088860  26.7909680  18.4167760  55.2648280
  25.7373120  19.4922970  55.4227610  17.8301880  21.5492250  52.3679860
  18.1327780  21.5559680  51.4599010  18.5696470  21.1990110  52.8647520
  21.0486810  20.4926870  53.3536060  20.7008810  19.8150860  52.7738510
  21.2499580  20.0316380  54.1679450  23.2135850  35.4807620  54.9722660
  24.1086640  35.8192590  54.9941420  23.2453480  34.7587030  54.3446940
  16.8532010  30.8534670  53.2009660  17.2906880  31.3964340  53.8567240
  17.3379740  30.0281620  53.2106000  14.0677810  33.6423700  60.6529920
  14.3980820  32.7744760  60.4208560  14.4968810  33.8482220  61.4834880
  18.6639730  31.9732710  58.3131890  18.3635270  31.8497680  59.2135800
  18.5577220  31.1141300  57.9047620  14.5568020  34.5094290  63.3911550
  14.1199010  34.6895090  64.2235700  15.1245700  35.2668910  63.2493270
  31.4331650  31.7529110  53.0158570  30.6024610  31.8205760  53.4865800
  31.6103480  32.6433230  52.7125430  30.8888110  28.4976590  55.5192770
  31.6507020  29.0673240  55.6252460  30.9042480  27.9303790  56.2901080
  14.3892450  27.0214520  59.7500430  13.7341290  26.7526160  59.1060130
  15.2270400  26.9119000  59.3002410  31.8948080  29.3526690  60.3634700
  32.2656910  28.5694010  59.9570670  32.5350010  30.0415790  60.1852000
  30.9407280  28.7910960  52.6765290  31.2156120  29.6989840  52.5484510
  30.7518020  28.7273490  53.6127280  27.3382890  21.8155810  53.9718920
  27.7567770  21.6286790  53.1315580  27.0318950  20.9634860  54.2821850
  30.8372620  26.7279950  57.6694720  30.4616220  25.9607880  57.2376010
  30.1075740  27.1102650  58.1569650  15.4268380  27.4067090  64.2903770
  15.7941420  27.3194490  65.1699790  14.8579200  26.6433640  64.1910630
  13.6030530  24.2313450  55.6925760  12.6994610  24.4943650  55.5177420
  14.0871150  24.5024620  54.9125720  30.1123580  24.9537440  60.9701960
  30.6361060  24.4600090  60.3392130  30.6983000  25.0887800  61.7149530
  30.2913300  25.0377310  64.4921510  29.3416010  25.0040850  64.6066500
  30.4726310  25.9477420  64.2571280  16.1457740  23.2878990  53.6020140
  16.8549440  22.8662210  53.1167420  15.4297680  23.3554220  52.9703490
  15.7931900  19.3418320  52.6422790  16.5160030  19.8827260  52.9604010
  16.0656420  19.0681740  51.7664330  29.6023550  24.2110790  56.9094370
  30.0982670  23.9781660  57.6943250  29.4039620  23.3722630  56.4932010
  15.4824090  18.5924510  62.5445410  16.1300280  18.0421890  62.1040570
  15.9025930  18.8467660  63.3661220  31.0310710  22.8471740  59.4432050
  30.9209990  22.6927780  60.3814320  31.7918300  22.3192680  59.2007460
  31.9200980  20.6779660  52.6838190  32.8450290  20.5460840  52.4756480
  31.8976770  20.7572480  53.6374640  31.9939470  21.4490320  55.3094900
  31.1990970  21.3835440  55.8387810  32.1982750  22.3840960  55.2980250
  28.9357890  35.4881870  59.3033290  29.5316960  35.1666440  58.6267710
  29.1936040  35.0153690  60.0946560  20.5426490  33.4759370  65.0533640
  20.3017850  33.7433930  64.1664160  21.4829130  33.6465100  65.1084500
  29.4870100  36.1377170  63.1331020  29.0273070  36.8892980  62.7589040
  28.8582560  35.4183640  63.0745820  19.9165820  34.4465410  62.3079150
  20.4330840  33.8352770  61.7827410  20.5663200  34.9494190  62.7990160
  22.6561320  35.3373900  63.1348130  22.9439130  35.0828200  62.2581140
  23.1684540  34.7851260  63.7253700  23.8738330  19.0764100  63.7144640
  23.0910120  19.5509600  63.9941400  23.5801260  18.1718930  63.6057820
  28.4259400  19.7787200  61.7593730  28.8667490  19.7232300  60.9115330
  28.1566990  20.6945210  61.8303910  30.2897970  19.4102440  59.7702550
  30.2286370  18.4663660  59.6233570  31.0690000  19.5182530  60.3156010
  14.5950720  35.5494800  58.7326500  14.4272760  34.9165480  59.4308390
  13.7285230  35.7554200  58.3820690  15.2178740  19.3811580  56.2358360
  15.9758100  19.4940460  55.6622390  14.7555910  20.2180780  56.1901790
  21.7592550  21.4950850  59.2260670  20.9467060  21.1207740  58.8856550
  22.2634190  20.7395930  59.5281860  26.2617530  18.1593300  60.4643740
  26.8646900  18.7313510  60.9392260  25.5210520  18.7232740  60.2417640
  29.4052130  18.5614860  55.7384020  29.6002760  19.4598310  56.0051450
  28.6182000  18.3301940  56.2316970  16.2013420  34.2428030  56.1776640
  15.6761040  34.6236060  55.4738600  16.1258000  34.8678800  56.8986350
  17.5903890  19.9075630  54.7760330  18.1196650  19.1205430  54.6468280
  18.2232210  20.5866820  55.0095860  19.7841730  19.6450770  57.8305720
  19.1544470  18.9438080  57.9975850  19.2446870  20.4054900  57.6138880
  30.9578740  35.8015570  57.4990580  31.1330930  35.1153310  56.8551500
  30.2600310  36.3262620  57.1067250  18.8006390  36.1910410  55.0525890
  19.5325210  35.9069690  54.5049780  19.0600060  35.9523690  55.9425270
  17.9621180  32.3075140  55.0572220  17.3330060  32.7760240  55.6058050
  18.0769010  31.4624360  55.4918410  23.5488940  28.1359820  43.0882690
  22.7731040  27.6560260  43.3781260  24.2001870  27.4565470  42.9138850
  17.5654770  28.4479630  43.9658450  16.7339650  28.1928340  44.3654960
  18.1735750  28.5190400  44.7016370  27.5696370  32.5420010  41.8681820
  27.1077900  31.7707250  42.1968990  28.3821920  32.5686080  42.3734270
  17.5456030  32.4819720  44.1616470  17.8484070  31.5917460  43.9826690
  18.2899620  33.0389940  43.9338720  15.9746720  23.4081520  37.7500840
  15.0863420  23.7497490  37.6480720  16.2587910  23.2081840  36.8581670
  13.9379730  26.0087170  43.6340540  14.5095840  25.2409370  43.6344180
  13.9381270  26.3075930  42.7247150  23.7959680  34.8278020  41.4885810
  23.1771120  35.2835520  40.9180250  24.6511460  34.9829480  41.0875510
  22.9897930  30.8117010  43.0952850  22.9206210  29.8706950  42.9341980
  23.7517790  30.9018420  43.6675420  15.1804600  21.4171530  45.4209470
  15.0007440  20.5197280  45.7012230  14.7784680  21.9643400  46.0956420
  24.0203100  23.6187390  43.3221780  24.3967920  22.7459270  43.2095450
  23.9222610  23.9546090  42.4312220  18.1508110  21.9913020  38.7839220
  18.2574860  22.8916750  39.0907980  17.2400470  21.9430990  38.4933870
  27.8027220  21.1137830  40.2550120  28.6236840  20.6234400  40.2975600
  27.8361300  21.7035490  41.0081960  15.7991270  23.9132030  44.0291810
  16.4801380  24.1770400  44.6479210  15.4839320  23.0732900  44.3629820
  19.9915840  24.9599390  43.1164400  20.4994060  25.4580360  43.7569420
  20.5229080  24.1834590  42.9403760  32.0926770  23.1304580  46.8193750
  31.3878940  23.5186290  46.3008860  32.3584690  23.8254870  47.4214680
  18.2751940  19.5997950  47.3827820  18.2770380  20.1170340  46.5773720
  17.4456250  19.1228130  47.3597750  24.6623030  29.7117260  38.8817720
  24.0440300  30.1766710  38.3180440  25.1746280  30.4044740  39.2987230
  19.5254790  29.2393130  45.5601320  19.1924170  29.8662050  46.2022390
  19.7021470  29.7655010  44.7802990  17.9567270  21.3107910  45.3898270
  18.2984080  22.1549960  45.0952140  17.0183080  21.4591650  45.5063610
  18.7373890  31.2073930  47.3750500  19.3547890  31.8825010  47.0934950
  17.8767010  31.6161910  47.2838000  14.0306230  30.3973790  36.2557350
  13.6534210  30.8860890  35.5242250  14.2879300  31.0699070  36.8863880
  29.6551480  32.6713340  45.2905140  28.9715000  33.3412450  45.2821810
  30.1945770  32.8693990  44.5250000  21.6395160  18.7990180  41.7142860
  21.9470140  18.2437070  40.9978360  20.7095860  18.9334640  41.5315850
  27.1910220  34.5157470  44.0050320  27.2037380  34.1119760  43.1372580
  26.6385440  35.2904760  43.9011750  28.4855640  31.2373690  39.0940490
  28.3751970  30.2948020  39.2189910  28.4823890  31.5989330  39.9803250
  26.5895660  29.4187310  45.3332930  27.0064450  29.2047420  44.4986390
  27.3135480  29.6760100  45.9041550  24.0275920  26.8639010  38.4502980
  23.1005200  26.7976390  38.6791450  24.1800740  27.8019140  38.3358220
  24.0145000  23.1356010  35.4470140  23.0748670  23.2969970  35.5322600
  24.3328260  23.8541690  34.9006130  30.5357760  27.8174530  45.4249170
  29.7076390  27.8867620  44.9499300  31.1308240  28.4028840  44.9565000
  27.4999770  24.6043850  46.3704040  27.0870950  25.4297560  46.6244030
  26.7675720  24.0188890  46.1780400  19.6332560  27.3903750  41.2322710
  19.2289560  26.6781000  40.7368610  19.7195680  27.0456990  42.1210750
  20.1014260  31.0771310  43.3961920  19.8042550  30.4716780  42.7169700
  21.0514080  31.1148620  43.2851280  18.3461180  24.1646960  45.0121750
  18.8975770  24.2742300  44.2375000  18.8604690  24.5384560  45.7276980
  28.1899870  34.6503180  47.0585020  27.7130430  35.4575370  46.8657630
  27.5061660  33.9981510  47.2111230  19.1932690  30.8153000  50.0469720
  18.2961220  31.0392970  50.2943120  19.2185560  30.9387940  49.0981120
  26.2337910  27.6646120  35.9610980  26.6731190  26.8268550  35.8148800
  26.9466330  28.2975520  36.0475120  18.0203910  27.6866320  48.6227090
  17.8811680  28.5589120  48.9914490  17.1385270  27.3439130  48.4775030
  24.3433290  32.6042190  39.9292220  24.7829200  33.3466520  39.5147610
  24.2820180  32.8468760  40.8531180  19.8184260  33.6288020  50.8312240
  19.7899690  34.0330970  49.9640670  19.6549230  32.6998380  50.6683840
  29.8155050  18.9188930  34.2752020  29.5027710  19.0115760  35.1751090
  30.5767520  19.4969960  34.2249450  16.3337190  26.2848730  38.7329360
  16.2134790  27.0110820  38.1210630  16.0238080  25.5151640  38.2557270
  31.7699080  34.4115120  52.1276410  32.2458800  34.8898010  52.8065490
  32.3906240  34.3432610  51.4021910  13.9722560  29.4563870  44.5398000
  14.0502980  29.5912640  43.5953720  14.5864240  28.7479760  44.7326120
  15.2170190  31.1564060  40.9504180  14.8098270  31.2978650  40.0957780
  16.1083200  30.8724220  40.7475390  31.1732330  31.6027970  49.2876420
  31.2995390  31.3639850  48.3693600  31.2153710  30.7712510  49.7598500
  25.0349070  35.3055970  47.8571230  25.5493740  35.2163980  48.6593660
  24.1918150  35.6515670  48.1499140  19.4891850  35.3709840  39.0626850
  19.3134330  34.4545380  38.8494650  18.6347590  35.7297130  39.3024650
  26.7129600  33.0998870  35.8453230  26.0194760  33.0976160  35.1855510
  27.4552460  32.6758190  35.4147400  31.0256340  23.6560430  50.2526160
  30.4100610  24.1640100  49.7241620  30.7052760  22.7558760  50.1952100
  14.0282080  30.4978040  47.0792460  14.1913120  30.0283400  46.2611830
  14.4934530  29.9901600  47.7441300  18.8000850  19.6283800  42.1153030
  18.3569000  20.4093340  41.7837550  19.3585840  19.9513690  42.8223970
  23.0870660  22.4952320  47.7188350  22.6250030  22.7035340  48.5308290
  22.6848770  21.6811670  47.4159020  28.0875170  23.7161270  48.8485010
  27.2368760  23.4167020  49.1694080  27.9276960  23.9603280  47.9368830
  25.1824880  25.2163020  50.9483800  25.5078290  24.3826770  50.6086030
  25.9705210  25.7391540  51.0962130  21.9159670  19.2494500  36.9958860
  21.2913850  19.2454370  37.7212170  21.8289790  18.3825460  36.5994830
  20.8376750  20.1731130  43.9742630  21.1349080  21.0793960  43.8934650
  21.3862310  19.6849910  43.3602200  18.5915070  24.7517370  39.8434280
  18.3655990  24.5354540  40.7480900  17.8107600  25.1845830  39.4980250
  25.8212830  24.7580740  38.4424930  25.2221720  25.4816540  38.2588550
  26.3692440  24.6957520  37.6601380  21.0314280  25.6502950  50.5094550
  20.9357880  24.7097680  50.3594950  21.8746260  25.8718020  50.1142620
  24.4277700  23.3944280  40.4728210  24.8207270  23.7116480  39.6596900
  24.7894550  22.5156160  40.5872730  16.1624820  22.0616620  48.6628330
  15.7688210  22.9091830  48.8701110  15.4743220  21.4242990  48.8536970
  22.7369870  22.1451590  51.7325070  22.0468190  21.9523790  52.3671160
  23.4802170  22.4286230  52.2649370  13.4641870  19.9845080  42.6958410
  13.1754920  20.5547940  43.4083390  14.2087630  19.5049530  43.0589640
  13.6512100  23.9265200  33.9061130  13.5686770  24.8695960  34.0476120
  13.2995160  23.7840110  33.0273480  25.0132840  25.9850030  44.5678990
  24.2813960  26.4936840  44.9169090  24.6157180  25.1680010  44.2667770
  21.4510230  22.6604230  42.9731480  21.4546290  22.2194180  42.1236020
  22.3461350  22.9821560  43.0803300  17.3012610  22.5430720  41.9325690
  16.9612660  23.0205950  42.6892740  16.5389930  22.0895840  41.5726790
  21.5130380  23.6616310  35.9638240  21.6343200  23.6202790  36.9124060
  21.1278890  24.5240460  35.8084970  25.4758750  21.4383710  43.9801930
  25.4931490  21.8892360  44.8243780  25.2274330  20.5389350  44.1935370
  20.5251880  25.9717450  35.3621540  19.9568780  25.5235700  34.7357450
  21.2340880  26.3310230  34.8286690  28.9029500  18.8515890  49.8188310
  29.2275270  18.1205550  50.3446290  28.9386010  18.5329530  48.9169300
  15.6021060  29.8729470  49.2388270  15.2175850  29.2323140  49.8371230
  15.9133250  30.5765590  49.8083000  21.7518200  26.7206010  44.7196890
  22.1188330  26.2464580  45.4658230  21.5623260  27.5947580  45.0605230
  14.6158690  21.4649700  40.8490360  14.3305610  21.1005370  41.6868980
  14.5537550  20.7330160  40.2353500  19.5417570  25.7614650  47.0381100
  19.2374640  26.6406630  47.2631460  20.4964030  25.8214440  47.0738540
  18.0699360  29.9675640  37.6347950  17.2961620  29.4273260  37.4746670
  18.7993990  29.4482250  37.2965710  28.8287340  28.9641000  43.4274340
  29.5486460  29.4596290  43.0370450  28.6269160  28.2858890  42.7828210
  24.2897280  20.3578960  37.5703730  23.4761890  19.8592130  37.4949040
  24.0959230  21.1977210  37.1540080  24.2106140  29.0350060  49.3143340
  24.1443450  28.1145730  49.0600930  23.5811280  29.1325500  50.0287980
  18.1136760  29.6356020  41.2726760  18.6315430  28.8324280  41.2183650
  17.6620780  29.5735160  42.1143590  23.0006260  30.9022300  36.5454060
  23.3421960  31.6464530  36.0497380  22.1718970  31.2153420  36.9078890
  15.5981300  26.6017390  48.1852460  15.2396240  27.2671240  48.7725800
  15.3035860  25.7700940  48.5565080  18.7994420  27.0601630  51.0692010
  18.4994560  27.2058810  50.1719830  19.5705660  26.5006920  50.9765400
  24.1422870  31.8570630  49.0647140  24.1567410  30.9251590  48.8466050
  23.4347970  31.9430390  49.7036910  30.3534080  28.4977970  48.4115720
  29.6282270  29.0906750  48.2145110  30.8809540  28.4901510  47.6129090
  25.8833670  30.2238140  41.9099570  26.2357490  29.6266270  41.2500940
  24.9996000  29.8982370  42.0807820  21.9696950  30.9835830  39.3169980
  22.6568080  31.5305040  39.6977570  21.1829370  31.5276560  39.3519590
  14.1089350  26.6008650  34.8087060  14.9784200  26.8833450  35.0922980
  13.6179670  27.4144520  34.6935870  21.2724160  27.9881860  38.9295340
  21.7286940  28.7987110  39.1555530  20.9212370  27.6705000  39.7613830
  23.5756770  33.4988200  46.1587640  24.2198990  33.7047580  46.8361060
  23.9386210  32.7376600  45.7058490  17.1735940  18.3319510  39.4017860
  17.0450570  18.3237410  40.3502780  16.3497960  18.6702600  39.0508870
  24.8488850  31.5020550  44.8765090  25.4911080  30.8013710  44.9897260
  25.3738200  32.2818990  44.6961980  28.6944570  31.7869170  34.6004230
  28.4682150  31.0699610  35.1928870  28.3040770  31.5381610  33.7625980
  26.6226470  32.3015450  48.0801150  26.9582710  32.8882140  48.7579070
  25.7026810  32.1708160  48.3098940  14.4760600  35.8136030  35.3748690
  14.8358240  36.4125370  34.7205960  14.3352940  36.3595920  36.1483720
  14.1729870  20.0910630  48.8624560  13.4588390  20.2907550  49.4677170
  14.5924910  19.3150200  49.2339360  28.2760820  29.7041110  36.2618390
  27.9882520  30.1653800  37.0496270  29.0712990  29.2438880  36.5302610
  14.4602460  34.0790890  49.8491090  14.5693580  33.1385630  49.7086480
  13.8083020  34.3445640  49.2004820  22.4515050  32.3506780  51.2489210
  22.1311920  31.6316020  51.7934900  21.7773410  33.0261850  51.3225270
  20.4929220  33.1967230  36.1922360  20.4839320  33.9296920  35.5766870
  19.5727580  32.9498810  36.2849320  16.0935860  28.4182120  36.9369120
  15.4863810  29.1581020  36.9464420  16.5685210  28.5081480  36.1107320
  25.6668650  22.5832940  46.6126010  26.0349470  21.7628150  46.9405580
  24.8066850  22.6434830  47.0281660  23.4788820  33.2595470  34.8547550
  23.5800800  33.0559460  33.9249530  22.5790560  33.0053750  35.0595330
  21.0014710  23.8175830  38.8371450  20.2930860  24.2862170  39.2785060
  21.2859190  23.1597840  39.4716640  22.6270640  25.2372530  46.8363980
  23.1255890  25.7118350  47.5015830  22.7693590  24.3136050  47.0434010
  25.0330140  20.5426490  40.2767240  24.9097920  20.5612620  39.3276750
  25.9814700  20.5905430  40.3965640  22.1206930  35.7781790  39.5495220
  22.3748430  35.7403180  38.6274590  21.1719410  35.6515120  39.5423470
  19.2049730  22.1260910  36.2122160  20.0540260  22.5631060  36.1462350
  18.8381000  22.4381170  37.0394220  29.8337500  21.4540490  47.6792370
  29.3311100  22.1945890  48.0186180  30.6494160  21.8424490  47.3629160
  18.1041150  28.3793270  34.6857690  18.8704420  28.2674630  35.2483120
  18.1815840  27.6831240  34.0334460  16.7987910  25.8118340  35.3690580
  16.8791500  24.8645850  35.4807980  17.6907660  26.1425220  35.4751240
  30.1285090  33.8682520  42.8007990  30.2532510  34.6913690  43.2731800
  30.9950650  33.6573250  42.4532140  17.6002620  35.9613730  42.4725120
  18.3365100  35.4129190  42.7433690  17.9843540  36.8269740  42.3331110
  14.4848100  32.0287300  38.3466630  13.5587880  32.2708440  38.3372040
  14.9504530  32.8561560  38.2251380  16.6060900  35.1459800  51.6610700
  17.4073630  35.4671850  52.0746100  16.0912720  34.7855380  52.3830610
  20.7104930  35.1344040  34.2950690  21.5033540  35.4232870  33.8432480
  20.1909280  34.7036210  33.6163170  25.4425530  31.2539670  51.6086110
  24.8363690  31.2771270  50.8681860  25.1379640  30.5222710  52.1453360
  26.8725900  34.9819960  50.2195520  27.8247650  34.8977980  50.1695760
  26.7254120  35.6461670  50.8929310  14.3258710  27.6333260  50.6046750
  14.8297730  27.0540540  51.1762980  13.5866130  27.9173490  51.1423120
  21.2282330  30.3547450  34.1593040  21.1232970  29.7399800  34.8854420
  21.0606550  29.8313340  33.3756050  21.3796650  29.0404250  50.1382270
  20.6142320  29.6089250  50.0536940  21.5612610  28.7480460  49.2450500
  24.4685060  29.4167480  34.7635030  23.9195160  29.8636780  35.4077770
  25.0904320  28.9116730  35.2872700  28.5220000  30.7709580  50.6957290
  29.2629470  31.1085340  50.1924750  27.7592680  30.9401640  50.1427060
  16.3581790  25.7762850  51.4996820  16.3987130  25.4776720  52.4082050
  17.2127290  26.1770460  51.3404340  20.1360180  28.3758400  36.6600330
  20.5576600  28.2098270  37.5031720  20.2611020  27.5658630  36.1655470
  18.2987600  24.3554950  49.4671310  17.7684060  23.8645900  48.8394650
  18.9675670  24.7839150  48.9329240  22.6487820  27.3996010  33.9077430
  23.1693480  26.6845030  33.5418580  23.2956220  28.0381880  34.2077940
  27.1965660  28.8224410  49.2312500  27.6106680  28.9769490  50.0802920
  26.2616660  28.9479630  49.3938280  27.6687830  26.1620570  51.2351650
  28.2508600  25.4072890  51.1472130  27.8449600  26.6928010  50.4583130
  18.7859900  21.3217320  49.5468600  18.6916770  20.7038070  48.8219470
  18.2057290  22.0483610  49.3198510  21.5521340  19.8790560  46.5795990
  21.1038640  19.9014820  45.7341540  20.9186540  19.4809580  47.1766290
  21.9580890  28.7744890  47.2008430  22.3769000  29.6177620  47.0284670
  21.0389520  28.9116930  46.9715210  24.2944790  26.5061070  48.5846270
  24.4141000  25.9102210  49.3241110  25.1538790  26.5430760  48.1647570
  26.6332690  27.0598260  47.1608780  26.1067910  27.5840880  46.5573920
  26.9764030  27.6925650  47.7918510  19.0319080  24.4491630  33.6058490
  18.8308140  23.5858990  33.9671830  18.8611130  24.3624990  32.6680090
  19.8088310  35.0797900  48.3166160  19.2709400  35.8043960  47.9974860
  20.0622270  34.6028240  47.5263500  21.0613560  23.0482420  49.8422090
  21.6513250  22.7398270  50.5299910  20.2433800  22.5762170  49.9981990
  25.8806990  22.6648230  50.0755110  25.1922510  22.0029770  50.0105100
  26.6013010  22.2186500  50.5203570  26.5107390  19.2599860  36.1345370
  26.7909680  18.4167760  36.4904790  25.7373120  19.4922970  36.6484120
  17.8301880  21.5492250  33.5936370  18.1327780  21.5559680  32.6855520
  18.5696470  21.1990110  34.0904030  22.6650520  36.3149110  48.5752810
  22.5909220  37.2184250  48.8825180  21.7629360  35.9961010  48.5474880
  21.0486810  20.4926870  34.5792570  20.7008810  19.8150860  33.9995020
  21.2499580  20.0316380  35.3935960  23.2135850  35.4807620  36.1979170
  24.1086640  35.8192590  36.2197930  23.2453480  34.7587030  35.5703450
  16.8532010  30.8534670  34.4266170  17.2906880  31.3964340  35.0823750
  17.3379740  30.0281620  34.4362510  14.0677810  33.6423700  41.8786430
  14.3980820  32.7744760  41.6465070  14.4968810  33.8482220  42.7091390
  18.6639730  31.9732710  39.5388400  18.3635270  31.8497680  40.4392310
  18.5577220  31.1141300  39.1304130  14.5568020  34.5094290  44.6168060
  14.1199010  34.6895090  45.4492210  15.1245700  35.2668910  44.4749780
  30.1930200  34.0111290  48.9045370  29.5932190  34.0703850  48.1609290
  30.3224100  33.0716270  49.0342220  14.3892450  27.0214520  40.9756940
  13.7341290  26.7526160  40.3316640  15.2270400  26.9119000  40.5258920
  31.8948080  29.3526690  41.5891210  32.2656910  28.5694010  41.1827180
  32.5350010  30.0415790  41.4108510  28.8781840  30.7363270  47.0021530
  28.0641680  31.1660430  47.2647320  29.2856040  31.3481680  46.3890580
  27.3382890  21.8155810  35.1975430  27.7567770  21.6286790  34.3572090
  27.0318950  20.9634860  35.5078360  15.4268380  27.4067090  45.5160280
  15.7941420  27.3194490  46.3956300  14.8579200  26.6433640  45.4167140
  30.2272240  25.8751470  48.5290750  29.9958330  25.6464220  47.6288700
  30.4876790  26.7951020  48.4835640  14.9784380  24.3176180  49.4218700
  14.0840430  24.2842940  49.7612410  15.5181930  24.5162970  50.1869950
  28.6660310  21.1007900  51.3070450  29.5430490  21.1091300  51.6904450
  28.6781150  20.3638740  50.6962800  13.6030530  24.2313450  36.9182270
  12.6994610  24.4943650  36.7433930  14.0871150  24.5024620  36.1382230
  30.2913300  25.0377310  45.7178020  29.3416010  25.0040850  45.8323010
  30.4726310  25.9477420  45.4827790  16.1457740  23.2878990  34.8276650
  16.8549440  22.8662210  34.3423930  15.4297680  23.3554220  34.1960000
  15.7931900  19.3418320  33.8679300  16.5160030  19.8827260  34.1860520
  16.0656420  19.0681740  32.9920840  15.4824090  18.5924510  43.7701920
  16.1300280  18.0421890  43.3297080  15.9025930  18.8467660  44.5917730
  29.3776430  18.7865870  47.1271560  30.0148650  19.4000010  47.4930750
  29.5251320  18.8226530  46.1820790  15.2356090  18.7480180  46.5127240
  14.8870910  19.2044000  47.2785420  14.9043790  17.8537310  46.5949670
  16.8420460  31.9199780  50.6780430  16.7990090  31.5492690  51.5594890
  16.9731470  32.8577350  50.8182250  20.5426490  33.4759370  46.2790150
  20.3017850  33.7433930  45.3920670  21.4829130  33.6465100  46.3341010
  22.7480910  19.9392060  50.0346660  22.6869800  20.5313890  50.7842070
  23.6881290  19.8318020  49.8896920  25.3855470  19.5962120  49.6738950
  25.9995880  19.9141410  49.0120030  25.9305030  19.1110710  50.2934810
  31.8030650  35.4953750  47.0800790  31.3088930  35.8922620  46.3627920
  31.1943940  34.8702960  47.4738070  15.9076730  18.2756380  49.7878010
  16.4559720  18.0944430  49.0244120  15.9732040  17.4850490  50.3234320
  16.6808490  34.8662030  47.7978210  16.0868810  34.7346730  48.5368250
  16.6732330  34.0300170  47.3320310  26.1263510  18.1594260  46.0008240
  25.2523350  18.4929370  45.7981170  26.0174260  17.6867440  46.8260110
  27.0335490  20.3665130  47.3849960  26.7048850  19.5516890  47.0051690
  27.9817790  20.3234940  47.2615650  29.4870100  36.1377170  44.3587530
  29.0273070  36.8892980  43.9845550  28.8582560  35.4183640  44.3002330
  16.3120720  32.2320410  46.7486250  15.5854780  31.6125700  46.6812200
  16.3729870  32.6261020  45.8784330  19.9165820  34.4465410  43.5335660
  20.4330840  33.8352770  43.0083920  20.5663200  34.9494190  44.0246670
  22.6561320  35.3373900  44.3604640  22.9439130  35.0828200  43.4837650
  23.1684540  34.7851260  44.9510210  23.8738330  19.0764100  44.9401150
  23.0910120  19.5509600  45.2197910  23.5801260  18.1718930  44.8314330
  28.4259400  19.7787200  42.9850240  28.8667490  19.7232300  42.1371840
  28.1566990  20.6945210  43.0560420  30.2897970  19.4102440  40.9959060
  30.2286370  18.4663660  40.8490080  31.0690000  19.5182530  41.5412520
  14.5950720  35.5494800  39.9583010  14.4272760  34.9165480  40.6564900
  13.7285230  35.7554200  39.6077200  15.2178740  19.3811580  37.4614870
  15.9758100  19.4940460  36.8878900  14.7555910  20.2180780  37.4158300
  21.7592550  21.4950850  40.4517180  20.9467060  21.1207740  40.1113060
  22.2634190  20.7395930  40.7538370  26.2617530  18.1593300  41.6900250
  26.8646900  18.7313510  42.1648770  25.5210520  18.7232740  41.4674150
  29.4052130  18.5614860  36.9640530  29.6002760  19.4598310  37.2307960
  28.6182000  18.3301940  37.4573480  16.2013420  34.2428030  37.4033150
  15.6761040  34.6236060  36.6995110  16.1258000  34.8678800  38.1242860
  17.5903890  19.9075630  36.0016840  18.1196650  19.1205430  35.8724790
  18.2232210  20.5866820  36.2352370  19.7841730  19.6450770  39.0562230
  19.1544470  18.9438080  39.2232360  19.2446870  20.4054900  38.8395390
  22.7233680  36.2590000  51.7272840  23.6500990  36.0234270  51.7708800
  22.7084110  37.0862000  51.2458870  19.9097290  18.9234750  51.4914720
  19.6281560  19.4268350  50.7275540  20.2916990  18.1256500  51.1256850
  18.8006390  36.1910410  36.2782400  19.5325210  35.9069690  35.7306290
  19.0600060  35.9523690  37.1681780  17.9621180  32.3075140  36.2828730
  17.3330060  32.7760240  36.8314560  18.0769010  31.4624360  36.7174920
  26.5112750  18.3388330  52.0695190  26.3978200  18.6582940  52.9646710
  27.3282490  18.7400840  51.7732470  29.2911240  35.4859860  51.5513880
  30.0836560  34.9909090  51.3439840  29.5844390  36.1650000  52.1589490
  25.4170900  26.3580800  22.4329930  25.3364950  25.4435410  22.1621640
  25.0035320  26.8547870  21.7269640  23.5488940  28.1359820  24.3139200
  22.7731040  27.6560260  24.6037770  24.2001870  27.4565470  24.1395360
  17.5654770  28.4479630  25.1914960  16.7339650  28.1928340  25.5911470
  18.1735750  28.5190400  25.9272880  27.5696370  32.5420010  23.0938330
  27.1077900  31.7707250  23.4225500  28.3821920  32.5686080  23.5990780
  17.5456030  32.4819720  25.3872980  17.8484070  31.5917460  25.2083200
  18.2899620  33.0389940  25.1595230  15.9746720  23.4081520  18.9757350
  15.0863420  23.7497490  18.8737230  16.2587910  23.2081840  18.0838180
  13.9379730  26.0087170  24.8597050  14.5095840  25.2409370  24.8600690
  13.9381270  26.3075930  23.9503660  23.7959680  34.8278020  22.7142320
  23.1771120  35.2835520  22.1436760  24.6511460  34.9829480  22.3132020
  22.9897930  30.8117010  24.3209360  22.9206210  29.8706950  24.1598490
  23.7517790  30.9018420  24.8931930  15.1804600  21.4171530  26.6465980
  15.0007440  20.5197280  26.9268740  14.7784680  21.9643400  27.3212930
  24.0203100  23.6187390  24.5478290  24.3967920  22.7459270  24.4351960
  23.9222610  23.9546090  23.6568730  18.1508110  21.9913020  20.0095730
  18.2574860  22.8916750  20.3164490  17.2400470  21.9430990  19.7190380
  27.8027220  21.1137830  21.4806630  28.6236840  20.6234400  21.5232110
  27.8361300  21.7035490  22.2338470  15.7991270  23.9132030  25.2548320
  16.4801380  24.1770400  25.8735720  15.4839320  23.0732900  25.5886330
  19.9915840  24.9599390  24.3420910  20.4994060  25.4580360  24.9825930
  20.5229080  24.1834590  24.1660270  32.0926770  23.1304580  28.0450260
  31.3878940  23.5186290  27.5265370  32.3584690  23.8254870  28.6471190
  18.2751940  19.5997950  28.6084330  18.2770380  20.1170340  27.8030230
  17.4456250  19.1228130  28.5854260  24.6623030  29.7117260  20.1074230
  24.0440300  30.1766710  19.5436950  25.1746280  30.4044740  20.5243740
  19.5254790  29.2393130  26.7857830  19.1924170  29.8662050  27.4278900
  19.7021470  29.7655010  26.0059500  28.0388700  23.0538210  24.2534170
  27.3344270  23.3423100  24.8337280  28.4000860  23.8638320  23.8933730
  17.9567270  21.3107910  26.6154780  18.2984080  22.1549960  26.3208650
  17.0183080  21.4591650  26.7320120  18.7373890  31.2073930  28.6007010
  19.3547890  31.8825010  28.3191460  17.8767010  31.6161910  28.5094510
  14.0306230  30.3973790  17.4813860  13.6534210  30.8860890  16.7498760
  14.2879300  31.0699070  18.1120390  29.6551480  32.6713340  26.5161650
  28.9715000  33.3412450  26.5078320  30.1945770  32.8693990  25.7506510
  31.1075620  22.4993000  24.6443380  30.1600530  22.5331980  24.7758810
  31.4325610  23.3131950  25.0292740  21.6395160  18.7990180  22.9399370
  21.9470140  18.2437070  22.2234870  20.7095860  18.9334640  22.7572360
  27.1910220  34.5157470  25.2306830  27.2037380  34.1119760  24.3629090
  26.6385440  35.2904760  25.1268260  28.4855640  31.2373690  20.3197000
  28.3751970  30.2948020  20.4446420  28.4823890  31.5989330  21.2059760
  26.5895660  29.4187310  26.5589440  27.0064450  29.2047420  25.7242900
  27.3135480  29.6760100  27.1298060  24.0275920  26.8639010  19.6759490
  23.1005200  26.7976390  19.9047960  24.1800740  27.8019140  19.5614730
  24.0145000  23.1356010  16.6726650  23.0748670  23.2969970  16.7579110
  24.3328260  23.8541690  16.1262640  30.5357760  27.8174530  26.6505680
  29.7076390  27.8867620  26.1755810  31.1308240  28.4028840  26.1821510
  28.0573210  28.4259310  20.1794740  27.4385630  28.0878860  19.5321040
  28.0397660  27.7819070  20.8873930  27.4999770  24.6043850  27.5960550
  27.0870950  25.4297560  27.8500540  26.7675720  24.0188890  27.4036910
  19.6332560  27.3903750  22.4579220  19.2289560  26.6781000  21.9625120
  19.7195680  27.0456990  23.3467260  20.1014260  31.0771310  24.6218430
  19.8042550  30.4716780  23.9426210  21.0514080  31.1148620  24.5107790
  18.3461180  24.1646960  26.2378260  18.8975770  24.2742300  25.4631510
  18.8604690  24.5384560  26.9533490  28.1899870  34.6503180  28.2841530
  27.7130430  35.4575370  28.0914140  27.5061660  33.9981510  28.4367740
  19.1932690  30.8153000  31.2726230  18.2961220  31.0392970  31.5199630
  19.2185560  30.9387940  30.3237630  26.2337910  27.6646120  17.1867490
  26.6731190  26.8268550  17.0405310  26.9466330  28.2975520  17.2731630
  18.0203910  27.6866320  29.8483600  17.8811680  28.5589120  30.2171000
  17.1385270  27.3439130  29.7031540  24.3433290  32.6042190  21.1548730
  24.7829200  33.3466520  20.7404120  24.2820180  32.8468760  22.0787690
  19.8184260  33.6288020  32.0568750  19.7899690  34.0330970  31.1897180
  19.6549230  32.6998380  31.8940350  29.8155050  18.9188930  15.5008530
  29.5027710  19.0115760  16.4007600  30.5767520  19.4969960  15.4505960
  16.3337190  26.2848730  19.9585870  16.2134790  27.0110820  19.3467140
  16.0238080  25.5151640  19.4813780  13.9722560  29.4563870  25.7654510
  14.0502980  29.5912640  24.8210230  14.5864240  28.7479760  25.9582630
  15.2170190  31.1564060  22.1760690  14.8098270  31.2978650  21.3214290
  16.1083200  30.8724220  21.9731900  31.1732330  31.6027970  30.5132930
  31.2995390  31.3639850  29.5950110  31.2153710  30.7712510  30.9855010
  25.0349070  35.3055970  29.0827740  25.5493740  35.2163980  29.8850170
  24.1918150  35.6515670  29.3755650  27.0103470  35.5911310  18.5111740
  26.8504610  35.3014250  19.4093570  26.8450180  34.8151440  17.9756970
  19.4891850  35.3709840  20.2883360  19.3134330  34.4545380  20.0751160
  18.6347590  35.7297130  20.5281160  26.7129600  33.0998870  17.0709740
  26.0194760  33.0976160  16.4112020  27.4552460  32.6758190  16.6403910
  26.2779530  34.7261580  21.1458230  26.7336480  33.9450960  21.4596850
  26.6172050  35.4368400  21.6899410  14.0282080  30.4978040  28.3048970
  14.1913120  30.0283400  27.4868340  14.4934530  29.9901600  28.9697810
  18.8000850  19.6283800  23.3409540  18.3569000  20.4093340  23.0094060
  19.3585840  19.9513690  24.0480480  23.0870660  22.4952320  28.9444860
  22.6250030  22.7035340  29.7564800  22.6848770  21.6811670  28.6415530
  28.0875170  23.7161270  30.0741520  27.2368760  23.4167020  30.3950590
  27.9276960  23.9603280  29.1625340  25.1824880  25.2163020  32.1740310
  25.5078290  24.3826770  31.8342540  25.9705210  25.7391540  32.3218640
  21.9159670  19.2494500  18.2215370  21.2913850  19.2454370  18.9468680
  21.8289790  18.3825460  17.8251340  20.8376750  20.1731130  25.1999140
  21.1349080  21.0793960  25.1191160  21.3862310  19.6849910  24.5858710
  18.5915070  24.7517370  21.0690790  18.3655990  24.5354540  21.9737410
  17.8107600  25.1845830  20.7236760  25.8212830  24.7580740  19.6681440
  25.2221720  25.4816540  19.4845060  26.3692440  24.6957520  18.8857890
  21.0314280  25.6502950  31.7351060  20.9357880  24.7097680  31.5851460
  21.8746260  25.8718020  31.3399130  24.4277700  23.3944280  21.6984720
  24.8207270  23.7116480  20.8853410  24.7894550  22.5156160  21.8129240
  16.1624820  22.0616620  29.8884840  15.7688210  22.9091830  30.0957620
  15.4743220  21.4242990  30.0793480  22.7369870  22.1451590  32.9581580
  22.0468190  21.9523790  33.5927670  23.4802170  22.4286230  33.4905880
  13.4641870  19.9845080  23.9214920  13.1754920  20.5547940  24.6339900
  14.2087630  19.5049530  24.2846150  13.6512100  23.9265200  15.1317640
  13.5686770  24.8695960  15.2732630  13.2995160  23.7840110  14.2529990
  25.0132840  25.9850030  25.7935500  24.2813960  26.4936840  26.1425600
  24.6157180  25.1680010  25.4924280  21.4510230  22.6604230  24.1987990
  21.4546290  22.2194180  23.3492530  22.3461350  22.9821560  24.3059810
  17.3012610  22.5430720  23.1582200  16.9612660  23.0205950  23.9149250
  16.5389930  22.0895840  22.7983300  21.5130380  23.6616310  17.1894750
  21.6343200  23.6202790  18.1380570  21.1278890  24.5240460  17.0341480
  25.4758750  21.4383710  25.2058440  25.4931490  21.8892360  26.0500290
  25.2274330  20.5389350  25.4191880  20.5251880  25.9717450  16.5878050
  19.9568780  25.5235700  15.9613960  21.2340880  26.3310230  16.0543200
  28.9029500  18.8515890  31.0444820  29.2275270  18.1205550  31.5702800
  28.9386010  18.5329530  30.1425810  15.6021060  29.8729470  30.4644780
  15.2175850  29.2323140  31.0627740  15.9133250  30.5765590  31.0339510
  21.7518200  26.7206010  25.9453400  22.1188330  26.2464580  26.6914740
  21.5623260  27.5947580  26.2861740  14.6158690  21.4649700  22.0746870
  14.3305610  21.1005370  22.9125490  14.5537550  20.7330160  21.4610010
  19.5417570  25.7614650  28.2637610  19.2374640  26.6406630  28.4887970
  20.4964030  25.8214440  28.2995050  18.0699360  29.9675640  18.8604460
  17.2961620  29.4273260  18.7003180  18.7993990  29.4482250  18.5222220
  28.8287340  28.9641000  24.6530850  29.5486460  29.4596290  24.2626960
  28.6269160  28.2858890  24.0084720  24.2897280  20.3578960  18.7960240
  23.4761890  19.8592130  18.7205550  24.0959230  21.1977210  18.3796590
  24.2106140  29.0350060  30.5399850  24.1443450  28.1145730  30.2857440
  23.5811280  29.1325500  31.2544490  27.0045670  24.7298610  17.0922400
  27.8925290  25.0415840  16.9173740  26.9750760  23.8570860  16.7002980
  18.1136760  29.6356020  22.4983270  18.6315430  28.8324280  22.4440160
  17.6620780  29.5735160  23.3400100  23.0006260  30.9022300  17.7710570
  23.3421960  31.6464530  17.2753890  22.1718970  31.2153420  18.1335400
  15.5981300  26.6017390  29.4108970  15.2396240  27.2671240  29.9982310
  15.3035860  25.7700940  29.7821590  18.7994420  27.0601630  32.2948520
  18.4994560  27.2058810  31.3976340  19.5705660  26.5006920  32.2021910
  24.1422870  31.8570630  30.2903650  24.1567410  30.9251590  30.0722560
  23.4347970  31.9430390  30.9293420  29.2759940  26.0410450  16.5602260
  29.1923660  26.4724670  15.7098700  29.9954130  26.5008800  16.9929080
  30.3534080  28.4977970  29.6372230  29.6282270  29.0906750  29.4401620
  30.8809540  28.4901510  28.8385600  30.3047190  32.8952710  19.2884390
  29.6623350  32.2408330  19.5628110  29.9177850  33.3007800  18.5125060
  25.8833670  30.2238140  23.1356080  26.2357490  29.6266270  22.4757450
  24.9996000  29.8982370  23.3064330  21.9696950  30.9835830  20.5426490
  22.6568080  31.5305040  20.9234080  21.1829370  31.5276560  20.5776100
  14.1089350  26.6008650  16.0343570  14.9784200  26.8833450  16.3179490
  13.6179670  27.4144520  15.9192380  21.2724160  27.9881860  20.1551850
  21.7286940  28.7987110  20.3812040  20.9212370  27.6705000  20.9870340
  23.5756770  33.4988200  27.3844150  24.2198990  33.7047580  28.0617570
  23.9386210  32.7376600  26.9315000  17.1735940  18.3319510  20.6274370
  17.0450570  18.3237410  21.5759290  16.3497960  18.6702600  20.2765380
  24.8488850  31.5020550  26.1021600  25.4911080  30.8013710  26.2153770
  25.3738200  32.2818990  25.9218490  28.6944570  31.7869170  15.8260740
  28.4682150  31.0699610  16.4185380  28.3040770  31.5381610  14.9882490
  26.6226470  32.3015450  29.3057660  26.9582710  32.8882140  29.9835580
  25.7026810  32.1708160  29.5355450  14.4760600  35.8136030  16.6005200
  14.8358240  36.4125370  15.9462470  14.3352940  36.3595920  17.3740230
  14.1729870  20.0910630  30.0881070  13.4588390  20.2907550  30.6933680
  14.5924910  19.3150200  30.4595870  28.2760820  29.7041110  17.4874900
  27.9882520  30.1653800  18.2752780  29.0712990  29.2438880  17.7559120
  14.4602460  34.0790890  31.0747600  14.5693580  33.1385630  30.9342990
  13.8083020  34.3445640  30.4261330  22.4515050  32.3506780  32.4745720
  22.1311920  31.6316020  33.0191410  21.7773410  33.0261850  32.5481780
  20.4929220  33.1967230  17.4178870  20.4839320  33.9296920  16.8023380
  19.5727580  32.9498810  17.5105830  16.0935860  28.4182120  18.1625630
  15.4863810  29.1581020  18.1720930  16.5685210  28.5081480  17.3363830
  25.6668650  22.5832940  27.8382520  26.0349470  21.7628150  28.1662090
  24.8066850  22.6434830  28.2538170  29.0330680  21.5389880  18.6470080
  28.4043840  21.6435550  17.9328310  28.5382600  21.7586660  19.4363960
  23.4788820  33.2595470  16.0804060  23.5800800  33.0559460  15.1506040
  22.5790560  33.0053750  16.2851840  21.0014710  23.8175830  20.0627960
  20.2930860  24.2862170  20.5041570  21.2859190  23.1597840  20.6973150
  22.6270640  25.2372530  28.0620490  23.1255890  25.7118350  28.7272340
  22.7693590  24.3136050  28.2690520  25.0330140  20.5426490  21.5023750
  24.9097920  20.5612620  20.5533260  25.9814700  20.5905430  21.6222150
  22.1206930  35.7781790  20.7751730  22.3748430  35.7403180  19.8531100
  21.1719410  35.6515120  20.7679980  19.2049730  22.1260910  17.4378670
  20.0540260  22.5631060  17.3718860  18.8381000  22.4381170  18.2650730
  29.8337500  21.4540490  28.9048880  29.3311100  22.1945890  29.2442690
  30.6494160  21.8424490  28.5885670  28.1259510  26.6973670  22.3510240
  27.1849650  26.7123900  22.5257930  28.4403580  25.9109630  22.7970540
  18.1041150  28.3793270  15.9114200  18.8704420  28.2674630  16.4739630
  18.1815840  27.6831240  15.2590970  16.7987910  25.8118340  16.5947090
  16.8791500  24.8645850  16.7064490  17.6907660  26.1425220  16.7007750
  30.1285090  33.8682520  24.0264500  30.2532510  34.6913690  24.4988310
  30.9950650  33.6573250  23.6788650  17.6002620  35.9613730  23.6981630
  18.3365100  35.4129190  23.9690200  17.9843540  36.8269740  23.5587620
  14.4848100  32.0287300  19.5723140  13.5587880  32.2708440  19.5628550
  14.9504530  32.8561560  19.4507890  16.6060900  35.1459800  32.8867210
  17.4073630  35.4671850  33.3002610  16.0912720  34.7855380  33.6087120
  20.7104930  35.1344040  15.5207200  21.5033540  35.4232870  15.0688990
  20.1909280  34.7036210  14.8419680  25.4425530  31.2539670  32.8342620
  24.8363690  31.2771270  32.0938370  25.1379640  30.5222710  33.3709870
  26.8725900  34.9819960  31.4452030  27.8247650  34.8977980  31.3952270
  26.7254120  35.6461670  32.1185820  29.7635100  34.3614170  16.9443940
  29.4776610  33.9479310  16.1298120  29.5654650  35.2901880  16.8244460
  14.3258710  27.6333260  31.8303260  14.8297730  27.0540540  32.4019490
  13.5866130  27.9173490  32.3679630  21.2282330  30.3547450  15.3849550
  21.1232970  29.7399800  16.1110930  21.0606550  29.8313340  14.6012560
  21.3796650  29.0404250  31.3638780  20.6142320  29.6089250  31.2793450
  21.5612610  28.7480460  30.4707010  24.4685060  29.4167480  15.9891540
  23.9195160  29.8636780  16.6334280  25.0904320  28.9116730  16.5129210
  28.5220000  30.7709580  31.9213800  29.2629470  31.1085340  31.4181260
  27.7592680  30.9401640  31.3683570  16.3581790  25.7762850  32.7253330
  16.3987130  25.4776720  33.6338560  17.2127290  26.1770460  32.5660850
  20.1360180  28.3758400  17.8856840  20.5576600  28.2098270  18.7288230
  20.2611020  27.5658630  17.3911980  18.2987600  24.3554950  30.6927820
  17.7684060  23.8645900  30.0651160  18.9675670  24.7839150  30.1585750
  22.6487820  27.3996010  15.1333940  23.1693480  26.6845030  14.7675090
  23.2956220  28.0381880  15.4334450  27.1965660  28.8224410  30.4569010
  27.6106680  28.9769490  31.3059430  26.2616660  28.9479630  30.6194790
  27.6687830  26.1620570  32.4608160  28.2508600  25.4072890  32.3728640
  27.8449600  26.6928010  31.6839640  18.7859900  21.3217320  30.7725110
  18.6916770  20.7038070  30.0475980  18.2057290  22.0483610  30.5455020
  21.5521340  19.8790560  27.8052500  21.1038640  19.9014820  26.9598050
  20.9186540  19.4809580  28.4022800  21.9580890  28.7744890  28.4264940
  22.3769000  29.6177620  28.2541180  21.0389520  28.9116930  28.1971720
  24.2944790  26.5061070  29.8102780  24.4141000  25.9102210  30.5497620
  25.1538790  26.5430760  29.3904080  26.6332690  27.0598260  28.3865290
  26.1067910  27.5840880  27.7830430  26.9764030  27.6925650  29.0175020
  19.0319080  24.4491630  14.8315000  18.8308140  23.5858990  15.1928340
  18.8611130  24.3624990  13.8936600  19.8088310  35.0797900  29.5422670
  19.2709400  35.8043960  29.2231370  20.0622270  34.6028240  28.7520010
  21.0613560  23.0482420  31.0678600  21.6513250  22.7398270  31.7556420
  20.2433800  22.5762170  31.2238500  25.8806990  22.6648230  31.3011620
  25.1922510  22.0029770  31.2361610  26.6013010  22.2186500  31.7460080
  26.5107390  19.2599860  17.3601880  26.7909680  18.4167760  17.7161300
  25.7373120  19.4922970  17.8740630  17.8301880  21.5492250  14.8192880
  18.1327780  21.5559680  13.9112030  18.5696470  21.1990110  15.3160540
  22.6650520  36.3149110  29.8009320  22.5909220  37.2184250  30.1081690
  21.7629360  35.9961010  29.7731390  21.0486810  20.4926870  15.8049080
  20.7008810  19.8150860  15.2251530  21.2499580  20.0316380  16.6192470
  23.2135850  35.4807620  17.4235680  24.1086640  35.8192590  17.4454440
  23.2453480  34.7587030  16.7959960  16.8532010  30.8534670  15.6522680
  17.2906880  31.3964340  16.3080260  17.3379740  30.0281620  15.6619020
  14.0677810  33.6423700  23.1042940  14.3980820  32.7744760  22.8721580
  14.4968810  33.8482220  23.9347900  18.6639730  31.9732710  20.7644910
  18.3635270  31.8497680  21.6648820  18.5577220  31.1141300  20.3560640
  14.5568020  34.5094290  25.8424570  14.1199010  34.6895090  26.6748720
  15.1245700  35.2668910  25.7006290  30.1930200  34.0111290  30.1301880
  29.5932190  34.0703850  29.3865800  30.3224100  33.0716270  30.2598730
  31.4331650  31.7529110  15.4671590  30.6024610  31.8205760  15.9378820
  31.6103480  32.6433230  15.1638450  30.8888110  28.4976590  17.9705790
  31.6507020  29.0673240  18.0765480  30.9042480  27.9303790  18.7414100
  14.3892450  27.0214520  22.2013450  13.7341290  26.7526160  21.5573150
  15.2270400  26.9119000  21.7515430  31.8948080  29.3526690  22.8147720
  32.2656910  28.5694010  22.4083690  32.5350010  30.0415790  22.6365020
  28.8781840  30.7363270  28.2278040  28.0641680  31.1660430  28.4903830
  29.2856040  31.3481680  27.6147090  30.9407280  28.7910960  15.1278310
  31.2156120  29.6989840  14.9997530  30.7518020  28.7273490  16.0640300
  27.3382890  21.8155810  16.4231940  27.7567770  21.6286790  15.5828600
  27.0318950  20.9634860  16.7334870  30.8372620  26.7279950  20.1207740
  30.4616220  25.9607880  19.6889030  30.1075740  27.1102650  20.6082670
  15.4268380  27.4067090  26.7416790  15.7941420  27.3194490  27.6212810
  14.8579200  26.6433640  26.6423650  30.2272240  25.8751470  29.7547260
  29.9958330  25.6464220  28.8545210  30.4876790  26.7951020  29.7092150
  14.9784380  24.3176180  30.6475210  14.0840430  24.2842940  30.9868920
  15.5181930  24.5162970  31.4126460  13.6030530  24.2313450  18.1438780
  12.6994610  24.4943650  17.9690440  14.0871150  24.5024620  17.3638740
  30.1123580  24.9537440  23.4214980  30.6361060  24.4600090  22.7905150
  30.6983000  25.0887800  24.1662550  30.2913300  25.0377310  26.9434530
  29.3416010  25.0040850  27.0579520  30.4726310  25.9477420  26.7084300
  16.1457740  23.2878990  16.0533160  16.8549440  22.8662210  15.5680440
  15.4297680  23.3554220  15.4216510  15.7931900  19.3418320  15.0935810
  16.5160030  19.8827260  15.4117030  16.0656420  19.0681740  14.2177350
  29.6023550  24.2110790  19.3607390  30.0982670  23.9781660  20.1456270
  29.4039620  23.3722630  18.9445030  15.4824090  18.5924510  24.9958430
  16.1300280  18.0421890  24.5553590  15.9025930  18.8467660  25.8174240
  31.0310710  22.8471740  21.8945070  30.9209990  22.6927780  22.8327340
  31.7918300  22.3192680  21.6520480  29.3776430  18.7865870  28.3528070
  30.0148650  19.4000010  28.7187260  29.5251320  18.8226530  27.4077300
  31.9200980  20.6779660  15.1351210  32.8450290  20.5460840  14.9269500
  31.8976770  20.7572480  16.0887660  31.9939470  21.4490320  17.7607920
  31.1990970  21.3835440  18.2900830  32.1982750  22.3840960  17.7493270
  28.9357890  35.4881870  21.7546310  29.5316960  35.1666440  21.0780730
  29.1936040  35.0153690  22.5459580  15.2356090  18.7480180  27.7383750
  14.8870910  19.2044000  28.5041930  14.9043790  17.8537310  27.8206180
  16.8420460  31.9199780  31.9036940  16.7990090  31.5492690  32.7851400
  16.9731470  32.8577350  32.0438760  20.5426490  33.4759370  27.5046660
  20.3017850  33.7433930  26.6177180  21.4829130  33.6465100  27.5597520
  22.7480910  19.9392060  31.2603170  22.6869800  20.5313890  32.0098580
  23.6881290  19.8318020  31.1153430  25.3855470  19.5962120  30.8995460
  25.9995880  19.9141410  30.2376540  25.9305030  19.1110710  31.5191320
  31.8030650  35.4953750  28.3057300  31.3088930  35.8922620  27.5884430
  31.1943940  34.8702960  28.6994580  15.9076730  18.2756380  31.0134520
  16.4559720  18.0944430  30.2500630  15.9732040  17.4850490  31.5490830
  16.6808490  34.8662030  29.0234720  16.0868810  34.7346730  29.7624760
  16.6732330  34.0300170  28.5576820  26.1263510  18.1594260  27.2264750
  25.2523350  18.4929370  27.0237680  26.0174260  17.6867440  28.0516620
  27.0335490  20.3665130  28.6106470  26.7048850  19.5516890  28.2308200
  27.9817790  20.3234940  28.4872160  29.4870100  36.1377170  25.5844040
  29.0273070  36.8892980  25.2102060  28.8582560  35.4183640  25.5258840
  16.3120720  32.2320410  27.9742760  15.5854780  31.6125700  27.9068710
  16.3729870  32.6261020  27.1040840  19.9165820  34.4465410  24.7592170
  20.4330840  33.8352770  24.2340430  20.5663200  34.9494190  25.2503180
  22.6561320  35.3373900  25.5861150  22.9439130  35.0828200  24.7094160
  23.1684540  34.7851260  26.1766720  23.8738330  19.0764100  26.1657660
  23.0910120  19.5509600  26.4454420  23.5801260  18.1718930  26.0570840
  28.4259400  19.7787200  24.2106750  28.8667490  19.7232300  23.3628350
  28.1566990  20.6945210  24.2816930  30.2897970  19.4102440  22.2215570
  30.2286370  18.4663660  22.0746590  31.0690000  19.5182530  22.7669030
  14.5950720  35.5494800  21.1839520  14.4272760  34.9165480  21.8821410
  13.7285230  35.7554200  20.8333710  15.2178740  19.3811580  18.6871380
  15.9758100  19.4940460  18.1135410  14.7555910  20.2180780  18.6414810
  21.7592550  21.4950850  21.6773690  20.9467060  21.1207740  21.3369570
  22.2634190  20.7395930  21.9794880  26.2617530  18.1593300  22.9156760
  26.8646900  18.7313510  23.3905280  25.5210520  18.7232740  22.6930660
  29.4052130  18.5614860  18.1897040  29.6002760  19.4598310  18.4564470
  28.6182000  18.3301940  18.6829990  16.2013420  34.2428030  18.6289660
  15.6761040  34.6236060  17.9251620  16.1258000  34.8678800  19.3499370
  17.5903890  19.9075630  17.2273350  18.1196650  19.1205430  17.0981300
  18.2232210  20.5866820  17.4608880  19.7841730  19.6450770  20.2818740
  19.1544470  18.9438080  20.4488870  19.2446870  20.4054900  20.0651900
  22.7233680  36.2590000  32.9529350  23.6500990  36.0234270  32.9965310
  22.7084110  37.0862000  32.4715380  30.9578740  35.8015570  19.9503600
  31.1330930  35.1153310  19.3064520  30.2600310  36.3262620  19.5580270
  19.9097290  18.9234750  32.7171230  19.6281560  19.4268350  31.9532050
  20.2916990  18.1256500  32.3513360  18.8006390  36.1910410  17.5038910
  19.5325210  35.9069690  16.9562800  19.0600060  35.9523690  18.3938290
  17.9621180  32.3075140  17.5085240  17.3330060  32.7760240  18.0571070
  18.0769010  31.4624360  17.9431430  26.5112750  18.3388330  33.2951700
  26.3978200  18.6582940  34.1903220  27.3282490  18.7400840  32.9988980
  25.4170900  26.3580800   3.6586440  25.3364950  25.4435410   3.3878150
  25.0035320  26.8547870   2.9526150  23.5488940  28.1359820   5.5395710
  22.7731040  27.6560260   5.8294280  24.2001870  27.4565470   5.3651870
  17.5654770  28.4479630   6.4171470  16.7339650  28.1928340   6.8167980
  18.1735750  28.5190400   7.1529390  27.5696370  32.5420010   4.3194840
  27.1077900  31.7707250   4.6482010  28.3821920  32.5686080   4.8247290
  17.5456030  32.4819720   6.6129490  17.8484070  31.5917460   6.4339710
  18.2899620  33.0389940   6.3851740  13.9379730  26.0087170   6.0853560
  14.5095840  25.2409370   6.0857200  13.9381270  26.3075930   5.1760170
  23.7959680  34.8278020   3.9398830  23.1771120  35.2835520   3.3693270
  24.6511460  34.9829480   3.5388530  22.9897930  30.8117010   5.5465870
  22.9206210  29.8706950   5.3855000  23.7517790  30.9018420   6.1188440
  15.1804600  21.4171530   7.8722490  15.0007440  20.5197280   8.1525250
  14.7784680  21.9643400   8.5469440  24.0203100  23.6187390   5.7734800
  24.3967920  22.7459270   5.6608470  23.9222610  23.9546090   4.8825240
  27.8027220  21.1137830   2.7063140  28.6236840  20.6234400   2.7488620
  27.8361300  21.7035490   3.4594980  15.7991270  23.9132030   6.4804830
  16.4801380  24.1770400   7.0992230  15.4839320  23.0732900   6.8142840
  19.9915840  24.9599390   5.5677420  20.4994060  25.4580360   6.2082440
  20.5229080  24.1834590   5.3916780  32.0926770  23.1304580   9.2706770
  31.3878940  23.5186290   8.7521880  32.3584690  23.8254870   9.8727700
  18.2751940  19.5997950   9.8340840  18.2770380  20.1170340   9.0286740
  17.4456250  19.1228130   9.8110770  19.5254790  29.2393130   8.0114340
  19.1924170  29.8662050   8.6535410  19.7021470  29.7655010   7.2316010
  28.0388700  23.0538210   5.4790680  27.3344270  23.3423100   6.0593790
  28.4000860  23.8638320   5.1190240  17.9567270  21.3107910   7.8411290
  18.2984080  22.1549960   7.5465160  17.0183080  21.4591650   7.9576630
  18.7373890  31.2073930   9.8263520  19.3547890  31.8825010   9.5447970
  17.8767010  31.6161910   9.7351020  29.6551480  32.6713340   7.7418160
  28.9715000  33.3412450   7.7334830  30.1945770  32.8693990   6.9763020
  31.1075620  22.4993000   5.8699890  30.1600530  22.5331980   6.0015320
  31.4325610  23.3131950   6.2549250  21.6395160  18.7990180   4.1655880
  21.9470140  18.2437070   3.4491380  20.7095860  18.9334640   3.9828870
  27.1910220  34.5157470   6.4563340  27.2037380  34.1119760   5.5885600
  26.6385440  35.2904760   6.3524770  26.5895660  29.4187310   7.7845950
  27.0064450  29.2047420   6.9499410  27.3135480  29.6760100   8.3554570
  30.5357760  27.8174530   7.8762190  29.7076390  27.8867620   7.4012320
  31.1308240  28.4028840   7.4078020  27.4999770  24.6043850   8.8217060
  27.0870950  25.4297560   9.0757050  26.7675720  24.0188890   8.6293420
  19.6332560  27.3903750   3.6835730  19.2289560  26.6781000   3.1881630
  19.7195680  27.0456990   4.5723770  20.1014260  31.0771310   5.8474940
  19.8042550  30.4716780   5.1682720  21.0514080  31.1148620   5.7364300
  18.3461180  24.1646960   7.4634770  18.8975770  24.2742300   6.6888020
  18.8604690  24.5384560   8.1790000  28.1899870  34.6503180   9.5098040
  27.7130430  35.4575370   9.3170650  27.5061660  33.9981510   9.6624250
  19.1932690  30.8153000  12.4982740  18.2961220  31.0392970  12.7456140
  19.2185560  30.9387940  11.5494140  18.0203910  27.6866320  11.0740110
  17.8811680  28.5589120  11.4427510  17.1385270  27.3439130  10.9288050
  24.3433290  32.6042190   2.3805240  24.7829200  33.3466520   1.9660630
  24.2820180  32.8468760   3.3044200  19.8184260  33.6288020  13.2825260
  19.7899690  34.0330970  12.4153690  19.6549230  32.6998380  13.1196860
  31.7699080  34.4115120  14.5789430  32.2458800  34.8898010  15.2578510
  32.3906240  34.3432610  13.8534930  13.9722560  29.4563870   6.9911020
  14.0502980  29.5912640   6.0466740  14.5864240  28.7479760   7.1839140
  15.2170190  31.1564060   3.4017200  14.8098270  31.2978650   2.5470800
  16.1083200  30.8724220   3.1988410  31.1732330  31.6027970  11.7389440
  31.2995390  31.3639850  10.8206620  31.2153710  30.7712510  12.2111520
  25.0349070  35.3055970  10.3084250  25.5493740  35.2163980  11.1106680
  24.1918150  35.6515670  10.6012160  26.2779530  34.7261580   2.3714740
  26.7336480  33.9450960   2.6853360  26.6172050  35.4368400   2.9155920
  31.0256340  23.6560430  12.7039180  30.4100610  24.1640100  12.1754640
  30.7052760  22.7558760  12.6465120  14.0282080  30.4978040   9.5305480
  14.1913120  30.0283400   8.7124850  14.4934530  29.9901600  10.1954320
  18.8000850  19.6283800   4.5666050  18.3569000  20.4093340   4.2350570
  19.3585840  19.9513690   5.2736990  23.0870660  22.4952320  10.1701370
  22.6250030  22.7035340  10.9821310  22.6848770  21.6811670   9.8672040
  28.0875170  23.7161270  11.2998030  27.2368760  23.4167020  11.6207100
  27.9276960  23.9603280  10.3881850  25.1824880  25.2163020  13.3996820
  25.5078290  24.3826770  13.0599050  25.9705210  25.7391540  13.5475150
  20.8376750  20.1731130   6.4255650  21.1349080  21.0793960   6.3447670
  21.3862310  19.6849910   5.8115220  18.5915070  24.7517370   2.2947300
  18.3655990  24.5354540   3.1993920  17.8107600  25.1845830   1.9493270
  21.0314280  25.6502950  12.9607570  20.9357880  24.7097680  12.8107970
  21.8746260  25.8718020  12.5655640  24.4277700  23.3944280   2.9241230
  24.8207270  23.7116480   2.1109920  24.7894550  22.5156160   3.0385750
  16.1624820  22.0616620  11.1141350  15.7688210  22.9091830  11.3214130
  15.4743220  21.4242990  11.3049990  22.7369870  22.1451590  14.1838090
  22.0468190  21.9523790  14.8184180  23.4802170  22.4286230  14.7162390
  13.4641870  19.9845080   5.1471430  13.1754920  20.5547940   5.8596410
  14.2087630  19.5049530   5.5102660  25.0132840  25.9850030   7.0192010
  24.2813960  26.4936840   7.3682110  24.6157180  25.1680010   6.7180790
  21.4510230  22.6604230   5.4244500  21.4546290  22.2194180   4.5749040
  22.3461350  22.9821560   5.5316320  17.3012610  22.5430720   4.3838710
  16.9612660  23.0205950   5.1405760  16.5389930  22.0895840   4.0239810
  25.4758750  21.4383710   6.4314950  25.4931490  21.8892360   7.2756800
  25.2274330  20.5389350   6.6448390  28.9029500  18.8515890  12.2701330
  29.2275270  18.1205550  12.7959310  28.9386010  18.5329530  11.3682320
  15.6021060  29.8729470  11.6901290  15.2175850  29.2323140  12.2884250
  15.9133250  30.5765590  12.2596020  21.7518200  26.7206010   7.1709910
  22.1188330  26.2464580   7.9171250  21.5623260  27.5947580   7.5118250
  14.6158690  21.4649700   3.3003380  14.3305610  21.1005370   4.1382000
  14.5537550  20.7330160   2.6866520  19.5417570  25.7614650   9.4894120
  19.2374640  26.6406630   9.7144480  20.4964030  25.8214440   9.5251560
  28.8287340  28.9641000   5.8787360  29.5486460  29.4596290   5.4883470
  28.6269160  28.2858890   5.2341230  24.2106140  29.0350060  11.7656360
  24.1443450  28.1145730  11.5113950  23.5811280  29.1325500  12.4801000
  18.1136760  29.6356020   3.7239780  18.6315430  28.8324280   3.6696670
  17.6620780  29.5735160   4.5656610  15.5981300  26.6017390  10.6365480
  15.2396240  27.2671240  11.2238820  15.3035860  25.7700940  11.0078100
  18.7994420  27.0601630  13.5205030  18.4994560  27.2058810  12.6232850
  19.5705660  26.5006920  13.4278420  24.1422870  31.8570630  11.5160160
  24.1567410  30.9251590  11.2979070  23.4347970  31.9430390  12.1549930
  30.3534080  28.4977970  10.8628740  29.6282270  29.0906750  10.6658130
  30.8809540  28.4901510  10.0642110  25.8833670  30.2238140   4.3612590
  26.2357490  29.6266270   3.7013960  24.9996000  29.8982370   4.5320840
  21.9696950  30.9835830   1.7683000  22.6568080  31.5305040   2.1490590
  21.1829370  31.5276560   1.8032610  23.5756770  33.4988200   8.6100660
  24.2198990  33.7047580   9.2874080  23.9386210  32.7376600   8.1571510
  24.8488850  31.5020550   7.3278110  25.4911080  30.8013710   7.4410280
  25.3738200  32.2818990   7.1475000  26.6226470  32.3015450  10.5314170
  26.9582710  32.8882140  11.2092090  25.7026810  32.1708160  10.7611960
  14.1729870  20.0910630  11.3137580  13.4588390  20.2907550  11.9190190
  14.5924910  19.3150200  11.6852380  14.4602460  34.0790890  12.3004110
  14.5693580  33.1385630  12.1599500  13.8083020  34.3445640  11.6517840
  22.4515050  32.3506780  13.7002230  22.1311920  31.6316020  14.2447920
  21.7773410  33.0261850  13.7738290  25.6668650  22.5832940   9.0639030
  26.0349470  21.7628150   9.3918600  24.8066850  22.6434830   9.4794680
  22.6270640  25.2372530   9.2877000  23.1255890  25.7118350   9.9528850
  22.7693590  24.3136050   9.4947030  25.0330140  20.5426490   2.7280260
  24.9097920  20.5612620   1.7789770  25.9814700  20.5905430   2.8478660
  29.8337500  21.4540490  10.1305390  29.3311100  22.1945890  10.4699200
  30.6494160  21.8424490   9.8142180  28.1259510  26.6973670   3.5766750
  27.1849650  26.7123900   3.7514440  28.4403580  25.9109630   4.0227050
  30.1285090  33.8682520   5.2521010  30.2532510  34.6913690   5.7244820
  30.9950650  33.6573250   4.9045160  17.6002620  35.9613730   4.9238140
  18.3365100  35.4129190   5.1946710  17.9843540  36.8269740   4.7844130
  16.6060900  35.1459800  14.1123720  17.4073630  35.4671850  14.5259120
  16.0912720  34.7855380  14.8343630  25.4425530  31.2539670  14.0599130
  24.8363690  31.2771270  13.3194880  25.1379640  30.5222710  14.5966380
  26.8725900  34.9819960  12.6708540  27.8247650  34.8977980  12.6208780
  26.7254120  35.6461670  13.3442330  14.3258710  27.6333260  13.0559770
  14.8297730  27.0540540  13.6276000  13.5866130  27.9173490  13.5936140
  21.3796650  29.0404250  12.5895290  20.6142320  29.6089250  12.5049960
  21.5612610  28.7480460  11.6963520  28.5220000  30.7709580  13.1470310
  29.2629470  31.1085340  12.6437770  27.7592680  30.9401640  12.5940080
  16.3581790  25.7762850  13.9509840  16.3987130  25.4776720  14.8595070
  17.2127290  26.1770460  13.7917360  18.2987600  24.3554950  11.9184330
  17.7684060  23.8645900  11.2907670  18.9675670  24.7839150  11.3842260
  27.1965660  28.8224410  11.6825520  27.6106680  28.9769490  12.5315940
  26.2616660  28.9479630  11.8451300  27.6687830  26.1620570  13.6864670
  28.2508600  25.4072890  13.5985150  27.8449600  26.6928010  12.9096150
  18.7859900  21.3217320  11.9981620  18.6916770  20.7038070  11.2732490
  18.2057290  22.0483610  11.7711530  21.5521340  19.8790560   9.0309010
  21.1038640  19.9014820   8.1854560  20.9186540  19.4809580   9.6279310
  21.9580890  28.7744890   9.6521450  22.3769000  29.6177620   9.4797690
  21.0389520  28.9116930   9.4228230  24.2944790  26.5061070  11.0359290
  24.4141000  25.9102210  11.7754130  25.1538790  26.5430760  10.6160590
  26.6332690  27.0598260   9.6121800  26.1067910  27.5840880   9.0086940
  26.9764030  27.6925650  10.2431530  19.8088310  35.0797900  10.7679180
  19.2709400  35.8043960  10.4487880  20.0622270  34.6028240   9.9776520
  21.0613560  23.0482420  12.2935110  21.6513250  22.7398270  12.9812930
  20.2433800  22.5762170  12.4495010  25.8806990  22.6648230  12.5268130
  25.1922510  22.0029770  12.4618120  26.6013010  22.2186500  12.9716590
  22.6650520  36.3149110  11.0265830  22.5909220  37.2184250  11.3338200
  21.7629360  35.9961010  10.9987900  14.0677810  33.6423700   4.3299450
  14.3980820  32.7744760   4.0978090  14.4968810  33.8482220   5.1604410
  14.5568020  34.5094290   7.0681080  14.1199010  34.6895090   7.9005230
  15.1245700  35.2668910   6.9262800  30.1930200  34.0111290  11.3558390
  29.5932190  34.0703850  10.6122310  30.3224100  33.0716270  11.4855240
  14.3892450  27.0214520   3.4269960  13.7341290  26.7526160   2.7829660
  15.2270400  26.9119000   2.9771940  31.8948080  29.3526690   4.0404230
  32.2656910  28.5694010   3.6340200  32.5350010  30.0415790   3.8621530
  28.8781840  30.7363270   9.4534550  28.0641680  31.1660430   9.7160340
  29.2856040  31.3481680   8.8403600  15.4268380  27.4067090   7.9673300
  15.7941420  27.3194490   8.8469320  14.8579200  26.6433640   7.8680160
  30.2272240  25.8751470  10.9803770  29.9958330  25.6464220  10.0801720
  30.4876790  26.7951020  10.9348660  14.9784380  24.3176180  11.8731720
  14.0840430  24.2842940  12.2125430  15.5181930  24.5162970  12.6382970
  28.6660310  21.1007900  13.7583470  29.5430490  21.1091300  14.1417470
  28.6781150  20.3638740  13.1475820  30.1123580  24.9537440   4.6471490
  30.6361060  24.4600090   4.0161660  30.6983000  25.0887800   5.3919060
  30.2913300  25.0377310   8.1691040  29.3416010  25.0040850   8.2836030
  30.4726310  25.9477420   7.9340810  15.4824090  18.5924510   6.2214940
  16.1300280  18.0421890   5.7810100  15.9025930  18.8467660   7.0430750
  31.0310710  22.8471740   3.1201580  30.9209990  22.6927780   4.0583850
  31.7918300  22.3192680   2.8776990  29.3776430  18.7865870   9.5784580
  30.0148650  19.4000010   9.9443770  29.5251320  18.8226530   8.6333810
  28.9357890  35.4881870   2.9802820  29.5316960  35.1666440   2.3037240
  29.1936040  35.0153690   3.7716090  15.2356090  18.7480180   8.9640260
  14.8870910  19.2044000   9.7298440  14.9043790  17.8537310   9.0462690
  16.8420460  31.9199780  13.1293450  16.7990090  31.5492690  14.0107910
  16.9731470  32.8577350  13.2695270  20.5426490  33.4759370   8.7303170
  20.3017850  33.7433930   7.8433690  21.4829130  33.6465100   8.7854030
  22.7480910  19.9392060  12.4859680  22.6869800  20.5313890  13.2355090
  23.6881290  19.8318020  12.3409940  25.3855470  19.5962120  12.1251970
  25.9995880  19.9141410  11.4633050  25.9305030  19.1110710  12.7447830
  31.8030650  35.4953750   9.5313810  31.3088930  35.8922620   8.8140940
  31.1943940  34.8702960   9.9251090  15.9076730  18.2756380  12.2391030
  16.4559720  18.0944430  11.4757140  15.9732040  17.4850490  12.7747340
  16.6808490  34.8662030  10.2491230  16.0868810  34.7346730  10.9881270
  16.6732330  34.0300170   9.7833330  26.1263510  18.1594260   8.4521260
  25.2523350  18.4929370   8.2494190  26.0174260  17.6867440   9.2773130
  27.0335490  20.3665130   9.8362980  26.7048850  19.5516890   9.4564710
  27.9817790  20.3234940   9.7128670  29.4870100  36.1377170   6.8100550
  29.0273070  36.8892980   6.4358570  28.8582560  35.4183640   6.7515350
  16.3120720  32.2320410   9.1999270  15.5854780  31.6125700   9.1325220
  16.3729870  32.6261020   8.3297350  19.9165820  34.4465410   5.9848680
  20.4330840  33.8352770   5.4596940  20.5663200  34.9494190   6.4759690
  22.6561320  35.3373900   6.8117660  22.9439130  35.0828200   5.9350670
  23.1684540  34.7851260   7.4023230  23.8738330  19.0764100   7.3914170
  23.0910120  19.5509600   7.6710930  23.5801260  18.1718930   7.2827350
  28.4259400  19.7787200   5.4363260  28.8667490  19.7232300   4.5884860
  28.1566990  20.6945210   5.5073440  30.2897970  19.4102440   3.4472080
  30.2286370  18.4663660   3.3003100  31.0690000  19.5182530   3.9925540
  14.5950720  35.5494800   2.4096030  14.4272760  34.9165480   3.1077920
  13.7285230  35.7554200   2.0590220  21.7592550  21.4950850   2.9030200
  20.9467060  21.1207740   2.5626080  22.2634190  20.7395930   3.2051390
  26.2617530  18.1593300   4.1413270  26.8646900  18.7313510   4.6161790
  25.5210520  18.7232740   3.9187170  22.7233680  36.2590000  14.1785860
  23.6500990  36.0234270  14.2221820  22.7084110  37.0862000  13.6971890
  19.9097290  18.9234750  13.9427740  19.6281560  19.4268350  13.1788560
  20.2916990  18.1256500  13.5769870  26.5112750  18.3388330  14.5208210
  26.3978200  18.6582940  15.4159730  27.3282490  18.7400840  14.2245490
  29.2911240  35.4859860  14.0026900  30.0836560  34.9909090  13.7952860
  29.5844390  36.1650000  14.6102510  25.4170900   7.5837310  59.9816910
  25.3364950   6.6691920  59.7108620  25.0035320   8.0804380  59.2756620
  23.5488940   9.3616330  61.8626180  22.7731040   8.8816770  62.1524750
  24.2001870   8.6821980  61.6882340  17.5654770   9.6736140  62.7401940
  16.7339650   9.4184850  63.1398450  18.1735750   9.7446910  63.4759860
  27.5696370  13.7676520  60.6425310  27.1077900  12.9963760  60.9712480
  28.3821920  13.7942590  61.1477760  17.5456030  13.7076230  62.9359960
  17.8484070  12.8173970  62.7570180  18.2899620  14.2646450  62.7082210
  15.9746720   4.6338030  56.5244330  15.0863420   4.9754000  56.4224210
  16.2587910   4.4338350  55.6325160  13.9379730   7.2343680  62.4084030
  14.5095840   6.4665880  62.4087670  13.9381270   7.5332440  61.4990640
  23.7959680  16.0534530  60.2629300  23.1771120  16.5092030  59.6923740
  24.6511460  16.2085990  59.8619000  22.9897930  12.0373520  61.8696340
  22.9206210  11.0963460  61.7085470  23.7517790  12.1274930  62.4418910
  15.1804600   2.6428040  64.1952960  15.0007440   1.7453790  64.4755720
  14.7784680   3.1899910  64.8699910  24.0203100   4.8443900  62.0965270
  24.3967920   3.9715780  61.9838940  23.9222610   5.1802600  61.2055710
  18.1508110   3.2169530  57.5582710  18.2574860   4.1173260  57.8651470
  17.2400470   3.1687500  57.2677360  27.8027220   2.3394340  59.0293610
  28.6236840   1.8490910  59.0719090  27.8361300   2.9292000  59.7825450
  15.7991270   5.1388540  62.8035300  16.4801380   5.4026910  63.4222700
  15.4839320   4.2989410  63.1373310  19.9915840   6.1855900  61.8907890
  20.4994060   6.6836870  62.5312910  20.5229080   5.4091100  61.7147250
  24.6623030  10.9373770  57.6561210  24.0440300  11.4023220  57.0923930
  25.1746280  11.6301250  58.0730720  19.5254790  10.4649640  64.3344810
  19.1924170  11.0918560  64.9765880  19.7021470  10.9911520  63.5546480
  28.0388700   4.2794720  61.8021150  27.3344270   4.5679610  62.3824260
  28.4000860   5.0894830  61.4420710  17.9567270   2.5364420  64.1641760
  18.2984080   3.3806470  63.8695630  17.0183080   2.6848160  64.2807100
  14.0306230  11.6230300  55.0300840  13.6534210  12.1117400  54.2985740
  14.2879300  12.2955580  55.6607370  29.6551480  13.8969850  64.0648630
  28.9715000  14.5668960  64.0565300  30.1945770  14.0950500  63.2993490
  31.1075620   3.7249510  62.1930360  30.1600530   3.7588490  62.3245790
  31.4325610   4.5388460  62.5779720  27.1910220  15.7413980  62.7793810
  27.2037380  15.3376270  61.9116070  26.6385440  16.5161270  62.6755240
  28.4855640  12.4630200  57.8683980  28.3751970  11.5204530  57.9933400
  28.4823890  12.8245840  58.7546740  26.5895660  10.6443820  64.1076420
  27.0064450  10.4303930  63.2729880  27.3135480  10.9016610  64.6785040
  24.0275920   8.0895520  57.2246470  23.1005200   8.0232900  57.4534940
  24.1800740   9.0275650  57.1101710  24.0145000   4.3612520  54.2213630
  23.0748670   4.5226480  54.3066090  24.3328260   5.0798200  53.6749620
  30.5357760   9.0431040  64.1992660  29.7076390   9.1124130  63.7242790
  31.1308240   9.6285350  63.7308490  28.0573210   9.6515820  57.7281720
  27.4385630   9.3135370  57.0808020  28.0397660   9.0075580  58.4360910
  19.6332560   8.6160260  60.0066200  19.2289560   7.9037510  59.5112100
  19.7195680   8.2713500  60.8954240  20.1014260  12.3027820  62.1705410
  19.8042550  11.6973290  61.4913190  21.0514080  12.3405130  62.0594770
  18.3461180   5.3903470  63.7865240  18.8975770   5.4998810  63.0118490
  18.8604690   5.7641070  64.5020470  26.2337910   8.8902630  54.7354470
  26.6731190   8.0525060  54.5892290  26.9466330   9.5232030  54.8218610
  24.3433290  13.8298700  58.7035710  24.7829200  14.5723030  58.2891100
  24.2820180  14.0725270  59.6274670  16.3337190   7.5105240  57.5072850
  16.2134790   8.2367330  56.8954120  16.0238080   6.7408150  57.0300760
  13.9722560  10.6820380  63.3141490  14.0502980  10.8169150  62.3697210
  14.5864240   9.9736270  63.5069610  15.2170190  12.3820570  59.7247670
  14.8098270  12.5235160  58.8701270  16.1083200  12.0980730  59.5218880
  27.0103470  16.8167820  56.0598720  26.8504610  16.5270760  56.9580550
  26.8450180  16.0407950  55.5243950  19.4891850  16.5966350  57.8370340
  19.3134330  15.6801890  57.6238140  18.6347590  16.9553640  58.0768140
  26.7129600  14.3255380  54.6196720  26.0194760  14.3232670  53.9599000
  27.4552460  13.9014700  54.1890890  26.2779530  15.9518090  58.6945210
  26.7336480  15.1707470  59.0083830  26.6172050  16.6624910  59.2386390
  18.5915070   5.9773880  58.6177770  18.3655990   5.7611050  59.5224390
  17.8107600   6.4102340  58.2723740  25.8212830   5.9837250  57.2168420
  25.2221720   6.7073050  57.0332040  26.3692440   5.9214030  56.4344870
  24.4277700   4.6200790  59.2471700  24.8207270   4.9372990  58.4340390
  24.7894550   3.7412670  59.3616220  13.6512100   5.1521710  52.6804620
  13.5686770   6.0952470  52.8219610  13.2995160   5.0096620  51.8016970
  25.0132840   7.2106540  63.3422480  24.2813960   7.7193350  63.6912580
  24.6157180   6.3936520  63.0411260  21.4510230   3.8860740  61.7474970
  21.4546290   3.4450690  60.8979510  22.3461350   4.2078070  61.8546790
  17.3012610   3.7687230  60.7069180  16.9612660   4.2462460  61.4636230
  16.5389930   3.3152350  60.3470280  21.5130380   4.8872820  54.7381730
  21.6343200   4.8459300  55.6867550  21.1278890   5.7496970  54.5828460
  25.4758750   2.6640220  62.7545420  25.4931490   3.1148870  63.5987270
  25.2274330   1.7645860  62.9678860  20.5251880   7.1973960  54.1365030
  19.9568780   6.7492210  53.5100940  21.2340880   7.5566740  53.6030180
  21.7518200   7.9462520  63.4940380  22.1188330   7.4721090  64.2401720
  21.5623260   8.8204090  63.8348720  14.6158690   2.6906210  59.6233850
  14.3305610   2.3261880  60.4612470  14.5537550   1.9586670  59.0096990
  18.0699360  11.1932150  56.4091440  17.2961620  10.6529770  56.2490160
  18.7993990  10.6738760  56.0709200  28.8287340  10.1897510  62.2017830
  29.5486460  10.6852800  61.8113940  28.6269160   9.5115400  61.5571700
  27.0045670   5.9555120  54.6409380  27.8925290   6.2672350  54.4660720
  26.9750760   5.0827370  54.2489960  18.1136760  10.8612530  60.0470250
  18.6315430  10.0580790  59.9927140  17.6620780  10.7991670  60.8887080
  23.0006260  12.1278810  55.3197550  23.3421960  12.8721040  54.8240870
  22.1718970  12.4409930  55.6822380  29.2759940   7.2666960  54.1089240
  29.1923660   7.6981180  53.2585680  29.9954130   7.7265310  54.5416060
  30.3047190  14.1209220  56.8371370  29.6623350  13.4664840  57.1115090
  29.9177850  14.5264310  56.0612040  25.8833670  11.4494650  60.6843060
  26.2357490  10.8522780  60.0244430  24.9996000  11.1238880  60.8551310
  21.9696950  12.2092340  58.0913470  22.6568080  12.7561550  58.4721060
  21.1829370  12.7533070  58.1263080  14.1089350   7.8265160  53.5830550
  14.9784200   8.1089960  53.8666470  13.6179670   8.6401030  53.4679360
  21.2724160   9.2138370  57.7038830  21.7286940  10.0243620  57.9299020
  20.9212370   8.8961510  58.5357320  24.8488850  12.7277060  63.6508580
  25.4911080  12.0270220  63.7640750  25.3738200  13.5075500  63.4705470
  28.6944570  13.0125680  53.3747720  28.4682150  12.2956120  53.9672360
  28.3040770  12.7638120  52.5369470  14.4760600  17.0392540  54.1492180
  14.8358240  17.6381880  53.4949450  14.3352940  17.5852430  54.9227210
  28.2760820  10.9297620  55.0361880  27.9882520  11.3910310  55.8239760
  29.0712990  10.4695390  55.3046100  20.4929220  14.4223740  54.9665850
  20.4839320  15.1553430  54.3510360  19.5727580  14.1755320  55.0592810
  16.0935860   9.6438630  55.7112610  15.4863810  10.3837530  55.7207910
  16.5685210   9.7337990  54.8850810  29.0330680   2.7646390  56.1957060
  28.4043840   2.8692060  55.4815290  28.5382600   2.9843170  56.9850940
  23.4788820  14.4851980  53.6291040  23.5800800  14.2815970  52.6993020
  22.5790560  14.2310260  53.8338820  21.0014710   5.0432340  57.6114940
  20.2930860   5.5118680  58.0528550  21.2859190   4.3854350  58.2460130
  25.0330140   1.7683000  59.0510730  24.9097920   1.7869130  58.1020240
  25.9814700   1.8161940  59.1709130  22.1206930  17.0038300  58.3238710
  22.3748430  16.9659690  57.4018080  21.1719410  16.8771630  58.3166960
  19.2049730   3.3517420  54.9865650  20.0540260   3.7887570  54.9205840
  18.8381000   3.6637680  55.8137710  28.1259510   7.9230180  59.8997220
  27.1849650   7.9380410  60.0744910  28.4403580   7.1366140  60.3457520
  18.1041150   9.6049780  53.4601180  18.8704420   9.4931140  54.0226610
  18.1815840   8.9087750  52.8077950  16.7987910   7.0374850  54.1434070
  16.8791500   6.0902360  54.2551470  17.6907660   7.3681730  54.2494730
  30.1285090  15.0939030  61.5751480  30.2532510  15.9170200  62.0475290
  30.9950650  14.8829760  61.2275630  17.6002620  17.1870240  61.2468610
  18.3365100  16.6385700  61.5177180  17.9843540  18.0526250  61.1074600
  14.4848100  13.2543810  57.1210120  13.5587880  13.4964950  57.1115530
  14.9504530  14.0818070  56.9994870  20.7104930  16.3600550  53.0694180
  21.5033540  16.6489380  52.6175970  20.1909280  15.9292720  52.3906660
  29.7635100  15.5870680  54.4930920  29.4776610  15.1735820  53.6785100
  29.5654650  16.5158390  54.3731440  21.2282330  11.5803960  52.9336530
  21.1232970  10.9656310  53.6597910  21.0606550  11.0569850  52.1499540
  24.4685060  10.6423990  53.5378520  23.9195160  11.0893290  54.1821260
  25.0904320  10.1373240  54.0616190  20.1360180   9.6014910  55.4343820
  20.5576600   9.4354780  56.2775210  20.2611020   8.7915140  54.9398960
  22.6487820   8.6252520  52.6820920  23.1693480   7.9101540  52.3162070
  23.2956220   9.2638390  52.9821430  19.0319080   5.6748140  52.3801980
  18.8308140   4.8115500  52.7415320  18.8611130   5.5881500  51.4423580
  17.8301880   2.7748760  52.3679860  18.1327780   2.7816190  51.4599010
  18.5696470   2.4246620  52.8647520  23.2135850  16.7064130  54.9722660
  24.1086640  17.0449100  54.9941420  23.2453480  15.9843540  54.3446940
  16.8532010  12.0791180  53.2009660  17.2906880  12.6220850  53.8567240
  17.3379740  11.2538130  53.2106000  14.0677810  14.8680210  60.6529920
  14.3980820  14.0001270  60.4208560  14.4968810  15.0738730  61.4834880
  18.6639730  13.1989220  58.3131890  18.3635270  13.0754190  59.2135800
  18.5577220  12.3397810  57.9047620  14.5568020  15.7350800  63.3911550
  14.1199010  15.9151600  64.2235700  15.1245700  16.4925420  63.2493270
  31.4331650  12.9785620  53.0158570  30.6024610  13.0462270  53.4865800
  31.6103480  13.8689740  52.7125430  30.8888110   9.7233100  55.5192770
  31.6507020  10.2929750  55.6252460  30.9042480   9.1560300  56.2901080
  14.3892450   8.2471030  59.7500430  13.7341290   7.9782670  59.1060130
  15.2270400   8.1375510  59.3002410  31.8948080  10.5783200  60.3634700
  32.2656910   9.7950520  59.9570670  32.5350010  11.2672300  60.1852000
  30.9407280  10.0167470  52.6765290  31.2156120  10.9246350  52.5484510
  30.7518020   9.9530000  53.6127280  27.3382890   3.0412320  53.9718920
  27.7567770   2.8543300  53.1315580  27.0318950   2.1891370  54.2821850
  30.8372620   7.9536460  57.6694720  30.4616220   7.1864390  57.2376010
  30.1075740   8.3359160  58.1569650  15.4268380   8.6323600  64.2903770
  15.7941420   8.5451000  65.1699790  14.8579200   7.8690150  64.1910630
  13.6030530   5.4569960  55.6925760  12.6994610   5.7200160  55.5177420
  14.0871150   5.7281130  54.9125720  30.1123580   6.1793950  60.9701960
  30.6361060   5.6856600  60.3392130  30.6983000   6.3144310  61.7149530
  30.2913300   6.2633820  64.4921510  29.3416010   6.2297360  64.6066500
  30.4726310   7.1733930  64.2571280  16.1457740   4.5135500  53.6020140
  16.8549440   4.0918720  53.1167420  15.4297680   4.5810730  52.9703490
  29.6023550   5.4367300  56.9094370  30.0982670   5.2038170  57.6943250
  29.4039620   4.5979140  56.4932010  31.0310710   4.0728250  59.4432050
  30.9209990   3.9184290  60.3814320  31.7918300   3.5449190  59.2007460
  31.9200980   1.9036170  52.6838190  32.8450290   1.7717350  52.4756480
  31.8976770   1.9828990  53.6374640  31.9939470   2.6746830  55.3094900
  31.1990970   2.6091950  55.8387810  32.1982750   3.6097470  55.2980250
  28.9357890  16.7138380  59.3033290  29.5316960  16.3922950  58.6267710
  29.1936040  16.2410200  60.0946560  20.5426490  14.7015880  65.0533640
  20.3017850  14.9690440  64.1664160  21.4829130  14.8721610  65.1084500
  29.4870100  17.3633680  63.1331020  29.0273070  18.1149490  62.7589040
  28.8582560  16.6440150  63.0745820  19.9165820  15.6721920  62.3079150
  20.4330840  15.0609280  61.7827410  20.5663200  16.1750700  62.7990160
  22.6561320  16.5630410  63.1348130  22.9439130  16.3084710  62.2581140
  23.1684540  16.0107770  63.7253700  14.5950720  16.7751310  58.7326500
  14.4272760  16.1421990  59.4308390  13.7285230  16.9810710  58.3820690
  21.7592550   2.7207360  59.2260670  20.9467060   2.3464250  58.8856550
  22.2634190   1.9652440  59.5281860  16.2013420  15.4684540  56.1776640
  15.6761040  15.8492570  55.4738600  16.1258000  16.0935310  56.8986350
  30.9578740  17.0272080  57.4990580  31.1330930  16.3409820  56.8551500
  30.2600310  17.5519130  57.1067250  18.8006390  17.4166920  55.0525890
  19.5325210  17.1326200  54.5049780  19.0600060  17.1780200  55.9425270
  17.9621180  13.5331650  55.0572220  17.3330060  14.0016750  55.6058050
  18.0769010  12.6880870  55.4918410  25.4170900   7.5837310  41.2073420
  25.3364950   6.6691920  40.9365130  25.0035320   8.0804380  40.5013130
  23.5488940   9.3616330  43.0882690  22.7731040   8.8816770  43.3781260
  24.2001870   8.6821980  42.9138850  17.5654770   9.6736140  43.9658450
  16.7339650   9.4184850  44.3654960  18.1735750   9.7446910  44.7016370
  27.5696370  13.7676520  41.8681820  27.1077900  12.9963760  42.1968990
  28.3821920  13.7942590  42.3734270  17.5456030  13.7076230  44.1616470
  17.8484070  12.8173970  43.9826690  18.2899620  14.2646450  43.9338720
  15.9746720   4.6338030  37.7500840  15.0863420   4.9754000  37.6480720
  16.2587910   4.4338350  36.8581670  13.9379730   7.2343680  43.6340540
  14.5095840   6.4665880  43.6344180  13.9381270   7.5332440  42.7247150
  23.7959680  16.0534530  41.4885810  23.1771120  16.5092030  40.9180250
  24.6511460  16.2085990  41.0875510  22.9897930  12.0373520  43.0952850
  22.9206210  11.0963460  42.9341980  23.7517790  12.1274930  43.6675420
  15.1804600   2.6428040  45.4209470  15.0007440   1.7453790  45.7012230
  14.7784680   3.1899910  46.0956420  24.0203100   4.8443900  43.3221780
  24.3967920   3.9715780  43.2095450  23.9222610   5.1802600  42.4312220
  18.1508110   3.2169530  38.7839220  18.2574860   4.1173260  39.0907980
  17.2400470   3.1687500  38.4933870  27.8027220   2.3394340  40.2550120
  28.6236840   1.8490910  40.2975600  27.8361300   2.9292000  41.0081960
  15.7991270   5.1388540  44.0291810  16.4801380   5.4026910  44.6479210
  15.4839320   4.2989410  44.3629820  19.9915840   6.1855900  43.1164400
  20.4994060   6.6836870  43.7569420  20.5229080   5.4091100  42.9403760
  32.0926770   4.3561090  46.8193750  31.3878940   4.7442800  46.3008860
  32.3584690   5.0511380  47.4214680  24.6623030  10.9373770  38.8817720
  24.0440300  11.4023220  38.3180440  25.1746280  11.6301250  39.2987230
  19.5254790  10.4649640  45.5601320  19.1924170  11.0918560  46.2022390
  19.7021470  10.9911520  44.7802990  28.0388700   4.2794720  43.0277660
  27.3344270   4.5679610  43.6080770  28.4000860   5.0894830  42.6677220
  17.9567270   2.5364420  45.3898270  18.2984080   3.3806470  45.0952140
  17.0183080   2.6848160  45.5063610  18.7373890  12.4330440  47.3750500
  19.3547890  13.1081520  47.0934950  17.8767010  12.8418420  47.2838000
  14.0306230  11.6230300  36.2557350  13.6534210  12.1117400  35.5242250
  14.2879300  12.2955580  36.8863880  29.6551480  13.8969850  45.2905140
  28.9715000  14.5668960  45.2821810  30.1945770  14.0950500  44.5250000
  31.1075620   3.7249510  43.4186870  30.1600530   3.7588490  43.5502300
  31.4325610   4.5388460  43.8036230  27.1910220  15.7413980  44.0050320
  27.2037380  15.3376270  43.1372580  26.6385440  16.5161270  43.9011750
  28.4855640  12.4630200  39.0940490  28.3751970  11.5204530  39.2189910
  28.4823890  12.8245840  39.9803250  26.5895660  10.6443820  45.3332930
  27.0064450  10.4303930  44.4986390  27.3135480  10.9016610  45.9041550
  24.0275920   8.0895520  38.4502980  23.1005200   8.0232900  38.6791450
  24.1800740   9.0275650  38.3358220  24.0145000   4.3612520  35.4470140
  23.0748670   4.5226480  35.5322600  24.3328260   5.0798200  34.9006130
  30.5357760   9.0431040  45.4249170  29.7076390   9.1124130  44.9499300
  31.1308240   9.6285350  44.9565000  28.0573210   9.6515820  38.9538230
  27.4385630   9.3135370  38.3064530  28.0397660   9.0075580  39.6617420
  27.4999770   5.8300360  46.3704040  27.0870950   6.6554070  46.6244030
  26.7675720   5.2445400  46.1780400  19.6332560   8.6160260  41.2322710
  19.2289560   7.9037510  40.7368610  19.7195680   8.2713500  42.1210750
  20.1014260  12.3027820  43.3961920  19.8042550  11.6973290  42.7169700
  21.0514080  12.3405130  43.2851280  18.3461180   5.3903470  45.0121750
  18.8975770   5.4998810  44.2375000  18.8604690   5.7641070  45.7276980
  28.1899870  15.8759690  47.0585020  27.7130430  16.6831880  46.8657630
  27.5061660  15.2238020  47.2111230  19.1932690  12.0409510  50.0469720
  18.2961220  12.2649480  50.2943120  19.2185560  12.1644450  49.0981120
  26.2337910   8.8902630  35.9610980  26.6731190   8.0525060  35.8148800
  26.9466330   9.5232030  36.0475120  18.0203910   8.9122830  48.6227090
  17.8811680   9.7845630  48.9914490  17.1385270   8.5695640  48.4775030
  24.3433290  13.8298700  39.9292220  24.7829200  14.5723030  39.5147610
  24.2820180  14.0725270  40.8531180  19.8184260  14.8544530  50.8312240
  19.7899690  15.2587480  49.9640670  19.6549230  13.9254890  50.6683840
  16.3337190   7.5105240  38.7329360  16.2134790   8.2367330  38.1210630
  16.0238080   6.7408150  38.2557270  31.7699080  15.6371630  52.1276410
  32.2458800  16.1154520  52.8065490  32.3906240  15.5689120  51.4021910
  13.9722560  10.6820380  44.5398000  14.0502980  10.8169150  43.5953720
  14.5864240   9.9736270  44.7326120  15.2170190  12.3820570  40.9504180
  14.8098270  12.5235160  40.0957780  16.1083200  12.0980730  40.7475390
  31.1732330  12.8284480  49.2876420  31.2995390  12.5896360  48.3693600
  31.2153710  11.9969020  49.7598500  25.0349070  16.5312480  47.8571230
  25.5493740  16.4420490  48.6593660  24.1918150  16.8772180  48.1499140
  27.0103470  16.8167820  37.2855230  26.8504610  16.5270760  38.1837060
  26.8450180  16.0407950  36.7500460  19.4891850  16.5966350  39.0626850
  19.3134330  15.6801890  38.8494650  18.6347590  16.9553640  39.3024650
  26.7129600  14.3255380  35.8453230  26.0194760  14.3232670  35.1855510
  27.4552460  13.9014700  35.4147400  26.2779530  15.9518090  39.9201720
  26.7336480  15.1707470  40.2340340  26.6172050  16.6624910  40.4642900
  31.0256340   4.8816940  50.2526160  30.4100610   5.3896610  49.7241620
  30.7052760   3.9815270  50.1952100  14.0282080  11.7234550  47.0792460
  14.1913120  11.2539910  46.2611830  14.4934530  11.2158110  47.7441300
  23.0870660   3.7208830  47.7188350  22.6250030   3.9291850  48.5308290
  22.6848770   2.9068180  47.4159020  28.0875170   4.9417780  48.8485010
  27.2368760   4.6423530  49.1694080  27.9276960   5.1859790  47.9368830
  25.1824880   6.4419530  50.9483800  25.5078290   5.6083280  50.6086030
  25.9705210   6.9648050  51.0962130  18.5915070   5.9773880  39.8434280
  18.3655990   5.7611050  40.7480900  17.8107600   6.4102340  39.4980250
  25.8212830   5.9837250  38.4424930  25.2221720   6.7073050  38.2588550
  26.3692440   5.9214030  37.6601380  21.0314280   6.8759460  50.5094550
  20.9357880   5.9354190  50.3594950  21.8746260   7.0974530  50.1142620
  24.4277700   4.6200790  40.4728210  24.8207270   4.9372990  39.6596900
  24.7894550   3.7412670  40.5872730  16.1624820   3.2873130  48.6628330
  15.7688210   4.1348340  48.8701110  15.4743220   2.6499500  48.8536970
  22.7369870   3.3708100  51.7325070  22.0468190   3.1780300  52.3671160
  23.4802170   3.6542740  52.2649370  13.6512100   5.1521710  33.9061130
  13.5686770   6.0952470  34.0476120  13.2995160   5.0096620  33.0273480
  25.0132840   7.2106540  44.5678990  24.2813960   7.7193350  44.9169090
  24.6157180   6.3936520  44.2667770  21.4510230   3.8860740  42.9731480
  21.4546290   3.4450690  42.1236020  22.3461350   4.2078070  43.0803300
  17.3012610   3.7687230  41.9325690  16.9612660   4.2462460  42.6892740
  16.5389930   3.3152350  41.5726790  21.5130380   4.8872820  35.9638240
  21.6343200   4.8459300  36.9124060  21.1278890   5.7496970  35.8084970
  25.4758750   2.6640220  43.9801930  25.4931490   3.1148870  44.8243780
  25.2274330   1.7645860  44.1935370  20.5251880   7.1973960  35.3621540
  19.9568780   6.7492210  34.7357450  21.2340880   7.5566740  34.8286690
  15.6021060  11.0985980  49.2388270  15.2175850  10.4579650  49.8371230
  15.9133250  11.8022100  49.8083000  21.7518200   7.9462520  44.7196890
  22.1188330   7.4721090  45.4658230  21.5623260   8.8204090  45.0605230
  14.6158690   2.6906210  40.8490360  14.3305610   2.3261880  41.6868980
  14.5537550   1.9586670  40.2353500  19.5417570   6.9871160  47.0381100
  19.2374640   7.8663140  47.2631460  20.4964030   7.0470950  47.0738540
  18.0699360  11.1932150  37.6347950  17.2961620  10.6529770  37.4746670
  18.7993990  10.6738760  37.2965710  28.8287340  10.1897510  43.4274340
  29.5486460  10.6852800  43.0370450  28.6269160   9.5115400  42.7828210
  24.2106140  10.2606570  49.3143340  24.1443450   9.3402240  49.0600930
  23.5811280  10.3582010  50.0287980  27.0045670   5.9555120  35.8665890
  27.8925290   6.2672350  35.6917230  26.9750760   5.0827370  35.4746470
  18.1136760  10.8612530  41.2726760  18.6315430  10.0580790  41.2183650
  17.6620780  10.7991670  42.1143590  23.0006260  12.1278810  36.5454060
  23.3421960  12.8721040  36.0497380  22.1718970  12.4409930  36.9078890
  15.5981300   7.8273900  48.1852460  15.2396240   8.4927750  48.7725800
  15.3035860   6.9957450  48.5565080  18.7994420   8.2858140  51.0692010
  18.4994560   8.4315320  50.1719830  19.5705660   7.7263430  50.9765400
  24.1422870  13.0827140  49.0647140  24.1567410  12.1508100  48.8466050
  23.4347970  13.1686900  49.7036910  29.2759940   7.2666960  35.3345750
  29.1923660   7.6981180  34.4842190  29.9954130   7.7265310  35.7672570
  30.3534080   9.7234480  48.4115720  29.6282270  10.3163260  48.2145110
  30.8809540   9.7158020  47.6129090  30.3047190  14.1209220  38.0627880
  29.6623350  13.4664840  38.3371600  29.9177850  14.5264310  37.2868550
  25.8833670  11.4494650  41.9099570  26.2357490  10.8522780  41.2500940
  24.9996000  11.1238880  42.0807820  21.9696950  12.2092340  39.3169980
  22.6568080  12.7561550  39.6977570  21.1829370  12.7533070  39.3519590
  14.1089350   7.8265160  34.8087060  14.9784200   8.1089960  35.0922980
  13.6179670   8.6401030  34.6935870  21.2724160   9.2138370  38.9295340
  21.7286940  10.0243620  39.1555530  20.9212370   8.8961510  39.7613830
  23.5756770  14.7244710  46.1587640  24.2198990  14.9304090  46.8361060
  23.9386210  13.9633110  45.7058490  24.8488850  12.7277060  44.8765090
  25.4911080  12.0270220  44.9897260  25.3738200  13.5075500  44.6961980
  28.6944570  13.0125680  34.6004230  28.4682150  12.2956120  35.1928870
  28.3040770  12.7638120  33.7625980  26.6226470  13.5271960  48.0801150
  26.9582710  14.1138650  48.7579070  25.7026810  13.3964670  48.3098940
  14.4760600  17.0392540  35.3748690  14.8358240  17.6381880  34.7205960
  14.3352940  17.5852430  36.1483720  28.2760820  10.9297620  36.2618390
  27.9882520  11.3910310  37.0496270  29.0712990  10.4695390  36.5302610
  14.4602460  15.3047400  49.8491090  14.5693580  14.3642140  49.7086480
  13.8083020  15.5702150  49.2004820  22.4515050  13.5763290  51.2489210
  22.1311920  12.8572530  51.7934900  21.7773410  14.2518360  51.3225270
  20.4929220  14.4223740  36.1922360  20.4839320  15.1553430  35.5766870
  19.5727580  14.1755320  36.2849320  16.0935860   9.6438630  36.9369120
  15.4863810  10.3837530  36.9464420  16.5685210   9.7337990  36.1107320
  25.6668650   3.8089450  46.6126010  26.0349470   2.9884660  46.9405580
  24.8066850   3.8691340  47.0281660  29.0330680   2.7646390  37.4213570
  28.4043840   2.8692060  36.7071800  28.5382600   2.9843170  38.2107450
  23.4788820  14.4851980  34.8547550  23.5800800  14.2815970  33.9249530
  22.5790560  14.2310260  35.0595330  21.0014710   5.0432340  38.8371450
  20.2930860   5.5118680  39.2785060  21.2859190   4.3854350  39.4716640
  22.6270640   6.4629040  46.8363980  23.1255890   6.9374860  47.5015830
  22.7693590   5.5392560  47.0434010  25.0330140   1.7683000  40.2767240
  24.9097920   1.7869130  39.3276750  25.9814700   1.8161940  40.3965640
  22.1206930  17.0038300  39.5495220  22.3748430  16.9659690  38.6274590
  21.1719410  16.8771630  39.5423470  19.2049730   3.3517420  36.2122160
  20.0540260   3.7887570  36.1462350  18.8381000   3.6637680  37.0394220
  29.8337500   2.6797000  47.6792370  29.3311100   3.4202400  48.0186180
  30.6494160   3.0681000  47.3629160  28.1259510   7.9230180  41.1253730
  27.1849650   7.9380410  41.3001420  28.4403580   7.1366140  41.5714030
  18.1041150   9.6049780  34.6857690  18.8704420   9.4931140  35.2483120
  18.1815840   8.9087750  34.0334460  16.7987910   7.0374850  35.3690580
  16.8791500   6.0902360  35.4807980  17.6907660   7.3681730  35.4751240
  30.1285090  15.0939030  42.8007990  30.2532510  15.9170200  43.2731800
  30.9950650  14.8829760  42.4532140  17.6002620  17.1870240  42.4725120
  18.3365100  16.6385700  42.7433690  17.9843540  18.0526250  42.3331110
  14.4848100  13.2543810  38.3466630  13.5587880  13.4964950  38.3372040
  14.9504530  14.0818070  38.2251380  16.6060900  16.3716310  51.6610700
  17.4073630  16.6928360  52.0746100  16.0912720  16.0111890  52.3830610
  20.7104930  16.3600550  34.2950690  21.5033540  16.6489380  33.8432480
  20.1909280  15.9292720  33.6163170  25.4425530  12.4796180  51.6086110
  24.8363690  12.5027780  50.8681860  25.1379640  11.7479220  52.1453360
  26.8725900  16.2076470  50.2195520  27.8247650  16.1234490  50.1695760
  26.7254120  16.8718180  50.8929310  29.7635100  15.5870680  35.7187430
  29.4776610  15.1735820  34.9041610  29.5654650  16.5158390  35.5987950
  14.3258710   8.8589770  50.6046750  14.8297730   8.2797050  51.1762980
  13.5866130   9.1430000  51.1423120  21.2282330  11.5803960  34.1593040
  21.1232970  10.9656310  34.8854420  21.0606550  11.0569850  33.3756050
  21.3796650  10.2660760  50.1382270  20.6142320  10.8345760  50.0536940
  21.5612610   9.9736970  49.2450500  24.4685060  10.6423990  34.7635030
  23.9195160  11.0893290  35.4077770  25.0904320  10.1373240  35.2872700
  28.5220000  11.9966090  50.6957290  29.2629470  12.3341850  50.1924750
  27.7592680  12.1658150  50.1427060  16.3581790   7.0019360  51.4996820
  16.3987130   6.7033230  52.4082050  17.2127290   7.4026970  51.3404340
  20.1360180   9.6014910  36.6600330  20.5576600   9.4354780  37.5031720
  20.2611020   8.7915140  36.1655470  18.2987600   5.5811460  49.4671310
  17.7684060   5.0902410  48.8394650  18.9675670   6.0095660  48.9329240
  22.6487820   8.6252520  33.9077430  23.1693480   7.9101540  33.5418580
  23.2956220   9.2638390  34.2077940  27.1965660  10.0480920  49.2312500
  27.6106680  10.2026000  50.0802920  26.2616660  10.1736140  49.3938280
  27.6687830   7.3877080  51.2351650  28.2508600   6.6329400  51.1472130
  27.8449600   7.9184520  50.4583130  18.7859900   2.5473830  49.5468600
  18.6916770   1.9294580  48.8219470  18.2057290   3.2740120  49.3198510
  21.9580890  10.0001400  47.2008430  22.3769000  10.8434130  47.0284670
  21.0389520  10.1373440  46.9715210  24.2944790   7.7317580  48.5846270
  24.4141000   7.1358720  49.3241110  25.1538790   7.7687270  48.1647570
  26.6332690   8.2854770  47.1608780  26.1067910   8.8097390  46.5573920
  26.9764030   8.9182160  47.7918510  19.0319080   5.6748140  33.6058490
  18.8308140   4.8115500  33.9671830  18.8611130   5.5881500  32.6680090
  19.8088310  16.3054410  48.3166160  19.2709400  17.0300470  47.9974860
  20.0622270  15.8284750  47.5263500  21.0613560   4.2738930  49.8422090
  21.6513250   3.9654780  50.5299910  20.2433800   3.8018680  49.9981990
  25.8806990   3.8904740  50.0755110  25.1922510   3.2286280  50.0105100
  26.6013010   3.4443010  50.5203570  17.8301880   2.7748760  33.5936370
  18.1327780   2.7816190  32.6855520  18.5696470   2.4246620  34.0904030
  22.6650520  17.5405620  48.5752810  22.5909220  18.4440760  48.8825180
  21.7629360  17.2217520  48.5474880  23.2135850  16.7064130  36.1979170
  24.1086640  17.0449100  36.2197930  23.2453480  15.9843540  35.5703450
  16.8532010  12.0791180  34.4266170  17.2906880  12.6220850  35.0823750
  17.3379740  11.2538130  34.4362510  14.0677810  14.8680210  41.8786430
  14.3980820  14.0001270  41.6465070  14.4968810  15.0738730  42.7091390
  18.6639730  13.1989220  39.5388400  18.3635270  13.0754190  40.4392310
  18.5577220  12.3397810  39.1304130  14.5568020  15.7350800  44.6168060
  14.1199010  15.9151600  45.4492210  15.1245700  16.4925420  44.4749780
  30.1930200  15.2367800  48.9045370  29.5932190  15.2960360  48.1609290
  30.3224100  14.2972780  49.0342220  31.4331650  12.9785620  34.2415080
  30.6024610  13.0462270  34.7122310  31.6103480  13.8689740  33.9381940
  30.8888110   9.7233100  36.7449280  31.6507020  10.2929750  36.8508970
  30.9042480   9.1560300  37.5157590  14.3892450   8.2471030  40.9756940
  13.7341290   7.9782670  40.3316640  15.2270400   8.1375510  40.5258920
  31.8948080  10.5783200  41.5891210  32.2656910   9.7950520  41.1827180
  32.5350010  11.2672300  41.4108510  28.8781840  11.9619780  47.0021530
  28.0641680  12.3916940  47.2647320  29.2856040  12.5738190  46.3890580
  30.9407280  10.0167470  33.9021800  31.2156120  10.9246350  33.7741020
  30.7518020   9.9530000  34.8383790  27.3382890   3.0412320  35.1975430
  27.7567770   2.8543300  34.3572090  27.0318950   2.1891370  35.5078360
  30.8372620   7.9536460  38.8951230  30.4616220   7.1864390  38.4632520
  30.1075740   8.3359160  39.3826160  15.4268380   8.6323600  45.5160280
  15.7941420   8.5451000  46.3956300  14.8579200   7.8690150  45.4167140
  30.2272240   7.1007980  48.5290750  29.9958330   6.8720730  47.6288700
  30.4876790   8.0207530  48.4835640  14.9784380   5.5432690  49.4218700
  14.0840430   5.5099450  49.7612410  15.5181930   5.7419480  50.1869950
  28.6660310   2.3264410  51.3070450  29.5430490   2.3347810  51.6904450
  28.6781150   1.5895250  50.6962800  13.6030530   5.4569960  36.9182270
  12.6994610   5.7200160  36.7433930  14.0871150   5.7281130  36.1382230
  30.1123580   6.1793950  42.1958470  30.6361060   5.6856600  41.5648640
  30.6983000   6.3144310  42.9406040  30.2913300   6.2633820  45.7178020
  29.3416010   6.2297360  45.8323010  30.4726310   7.1733930  45.4827790
  16.1457740   4.5135500  34.8276650  16.8549440   4.0918720  34.3423930
  15.4297680   4.5810730  34.1960000  29.6023550   5.4367300  38.1350880
  30.0982670   5.2038170  38.9199760  29.4039620   4.5979140  37.7188520
  31.0310710   4.0728250  40.6688560  30.9209990   3.9184290  41.6070830
  31.7918300   3.5449190  40.4263970  31.9200980   1.9036170  33.9094700
  32.8450290   1.7717350  33.7012990  31.8976770   1.9828990  34.8631150
  31.9939470   2.6746830  36.5351410  31.1990970   2.6091950  37.0644320
  32.1982750   3.6097470  36.5236760  28.9357890  16.7138380  40.5289800
  29.5316960  16.3922950  39.8524220  29.1936040  16.2410200  41.3203070
  16.8420460  13.1456290  50.6780430  16.7990090  12.7749200  51.5594890
  16.9731470  14.0833860  50.8182250  20.5426490  14.7015880  46.2790150
  20.3017850  14.9690440  45.3920670  21.4829130  14.8721610  46.3341010
  31.8030650  16.7210260  47.0800790  31.3088930  17.1179130  46.3627920
  31.1943940  16.0959470  47.4738070  16.6808490  16.0918540  47.7978210
  16.0868810  15.9603240  48.5368250  16.6732330  15.2556680  47.3320310
  29.4870100  17.3633680  44.3587530  29.0273070  18.1149490  43.9845550
  28.8582560  16.6440150  44.3002330  16.3120720  13.4576920  46.7486250
  15.5854780  12.8382210  46.6812200  16.3729870  13.8517530  45.8784330
  19.9165820  15.6721920  43.5335660  20.4330840  15.0609280  43.0083920
  20.5663200  16.1750700  44.0246670  22.6561320  16.5630410  44.3604640
  22.9439130  16.3084710  43.4837650  23.1684540  16.0107770  44.9510210
  14.5950720  16.7751310  39.9583010  14.4272760  16.1421990  40.6564900
  13.7285230  16.9810710  39.6077200  21.7592550   2.7207360  40.4517180
  20.9467060   2.3464250  40.1113060  22.2634190   1.9652440  40.7538370
  16.2013420  15.4684540  37.4033150  15.6761040  15.8492570  36.6995110
  16.1258000  16.0935310  38.1242860  22.7233680  17.4846510  51.7272840
  23.6500990  17.2490780  51.7708800  22.7084110  18.3118510  51.2458870
  30.9578740  17.0272080  38.7247090  31.1330930  16.3409820  38.0808010
  30.2600310  17.5519130  38.3323760  18.8006390  17.4166920  36.2782400
  19.5325210  17.1326200  35.7306290  19.0600060  17.1780200  37.1681780
  17.9621180  13.5331650  36.2828730  17.3330060  14.0016750  36.8314560
  18.0769010  12.6880870  36.7174920  29.2911240  16.7116370  51.5513880
  30.0836560  16.2165600  51.3439840  29.5844390  17.3906510  52.1589490
  25.4170900   7.5837310  22.4329930  25.3364950   6.6691920  22.1621640
  25.0035320   8.0804380  21.7269640  23.5488940   9.3616330  24.3139200
  22.7731040   8.8816770  24.6037770  24.2001870   8.6821980  24.1395360
  17.5654770   9.6736140  25.1914960  16.7339650   9.4184850  25.5911470
  18.1735750   9.7446910  25.9272880  27.5696370  13.7676520  23.0938330
  27.1077900  12.9963760  23.4225500  28.3821920  13.7942590  23.5990780
  17.5456030  13.7076230  25.3872980  17.8484070  12.8173970  25.2083200
  18.2899620  14.2646450  25.1595230  15.9746720   4.6338030  18.9757350
  15.0863420   4.9754000  18.8737230  16.2587910   4.4338350  18.0838180
  13.9379730   7.2343680  24.8597050  14.5095840   6.4665880  24.8600690
  13.9381270   7.5332440  23.9503660  23.7959680  16.0534530  22.7142320
  23.1771120  16.5092030  22.1436760  24.6511460  16.2085990  22.3132020
  22.9897930  12.0373520  24.3209360  22.9206210  11.0963460  24.1598490
  23.7517790  12.1274930  24.8931930  15.1804600   2.6428040  26.6465980
  15.0007440   1.7453790  26.9268740  14.7784680   3.1899910  27.3212930
  24.0203100   4.8443900  24.5478290  24.3967920   3.9715780  24.4351960
  23.9222610   5.1802600  23.6568730  18.1508110   3.2169530  20.0095730
  18.2574860   4.1173260  20.3164490  17.2400470   3.1687500  19.7190380
  27.8027220   2.3394340  21.4806630  28.6236840   1.8490910  21.5232110
  27.8361300   2.9292000  22.2338470  15.7991270   5.1388540  25.2548320
  16.4801380   5.4026910  25.8735720  15.4839320   4.2989410  25.5886330
  19.9915840   6.1855900  24.3420910  20.4994060   6.6836870  24.9825930
  20.5229080   5.4091100  24.1660270  32.0926770   4.3561090  28.0450260
  31.3878940   4.7442800  27.5265370  32.3584690   5.0511380  28.6471190
  24.6623030  10.9373770  20.1074230  24.0440300  11.4023220  19.5436950
  25.1746280  11.6301250  20.5243740  19.5254790  10.4649640  26.7857830
  19.1924170  11.0918560  27.4278900  19.7021470  10.9911520  26.0059500
  28.0388700   4.2794720  24.2534170  27.3344270   4.5679610  24.8337280
  28.4000860   5.0894830  23.8933730  17.9567270   2.5364420  26.6154780
  18.2984080   3.3806470  26.3208650  17.0183080   2.6848160  26.7320120
  18.7373890  12.4330440  28.6007010  19.3547890  13.1081520  28.3191460
  17.8767010  12.8418420  28.5094510  14.0306230  11.6230300  17.4813860
  13.6534210  12.1117400  16.7498760  14.2879300  12.2955580  18.1120390
  29.6551480  13.8969850  26.5161650  28.9715000  14.5668960  26.5078320
  30.1945770  14.0950500  25.7506510  31.1075620   3.7249510  24.6443380
  30.1600530   3.7588490  24.7758810  31.4325610   4.5388460  25.0292740
  27.1910220  15.7413980  25.2306830  27.2037380  15.3376270  24.3629090
  26.6385440  16.5161270  25.1268260  28.4855640  12.4630200  20.3197000
  28.3751970  11.5204530  20.4446420  28.4823890  12.8245840  21.2059760
  26.5895660  10.6443820  26.5589440  27.0064450  10.4303930  25.7242900
  27.3135480  10.9016610  27.1298060  24.0275920   8.0895520  19.6759490
  23.1005200   8.0232900  19.9047960  24.1800740   9.0275650  19.5614730
  24.0145000   4.3612520  16.6726650  23.0748670   4.5226480  16.7579110
  24.3328260   5.0798200  16.1262640  30.5357760   9.0431040  26.6505680
  29.7076390   9.1124130  26.1755810  31.1308240   9.6285350  26.1821510
  28.0573210   9.6515820  20.1794740  27.4385630   9.3135370  19.5321040
  28.0397660   9.0075580  20.8873930  27.4999770   5.8300360  27.5960550
  27.0870950   6.6554070  27.8500540  26.7675720   5.2445400  27.4036910
  19.6332560   8.6160260  22.4579220  19.2289560   7.9037510  21.9625120
  19.7195680   8.2713500  23.3467260  20.1014260  12.3027820  24.6218430
  19.8042550  11.6973290  23.9426210  21.0514080  12.3405130  24.5107790
  18.3461180   5.3903470  26.2378260  18.8975770   5.4998810  25.4631510
  18.8604690   5.7641070  26.9533490  28.1899870  15.8759690  28.2841530
  27.7130430  16.6831880  28.0914140  27.5061660  15.2238020  28.4367740
  19.1932690  12.0409510  31.2726230  18.2961220  12.2649480  31.5199630
  19.2185560  12.1644450  30.3237630  26.2337910   8.8902630  17.1867490
  26.6731190   8.0525060  17.0405310  26.9466330   9.5232030  17.2731630
  18.0203910   8.9122830  29.8483600  17.8811680   9.7845630  30.2171000
  17.1385270   8.5695640  29.7031540  24.3433290  13.8298700  21.1548730
  24.7829200  14.5723030  20.7404120  24.2820180  14.0725270  22.0787690
  19.8184260  14.8544530  32.0568750  19.7899690  15.2587480  31.1897180
  19.6549230  13.9254890  31.8940350  16.3337190   7.5105240  19.9585870
  16.2134790   8.2367330  19.3467140  16.0238080   6.7408150  19.4813780
  31.7699080  15.6371630  33.3532920  32.2458800  16.1154520  34.0322000
  32.3906240  15.5689120  32.6278420  13.9722560  10.6820380  25.7654510
  14.0502980  10.8169150  24.8210230  14.5864240   9.9736270  25.9582630
  15.2170190  12.3820570  22.1760690  14.8098270  12.5235160  21.3214290
  16.1083200  12.0980730  21.9731900  31.1732330  12.8284480  30.5132930
  31.2995390  12.5896360  29.5950110  31.2153710  11.9969020  30.9855010
  25.0349070  16.5312480  29.0827740  25.5493740  16.4420490  29.8850170
  24.1918150  16.8772180  29.3755650  27.0103470  16.8167820  18.5111740
  26.8504610  16.5270760  19.4093570  26.8450180  16.0407950  17.9756970
  19.4891850  16.5966350  20.2883360  19.3134330  15.6801890  20.0751160
  18.6347590  16.9553640  20.5281160  26.7129600  14.3255380  17.0709740
  26.0194760  14.3232670  16.4112020  27.4552460  13.9014700  16.6403910
  26.2779530  15.9518090  21.1458230  26.7336480  15.1707470  21.4596850
  26.6172050  16.6624910  21.6899410  31.0256340   4.8816940  31.4782670
  30.4100610   5.3896610  30.9498130  30.7052760   3.9815270  31.4208610
  14.0282080  11.7234550  28.3048970  14.1913120  11.2539910  27.4868340
  14.4934530  11.2158110  28.9697810  23.0870660   3.7208830  28.9444860
  22.6250030   3.9291850  29.7564800  22.6848770   2.9068180  28.6415530
  28.0875170   4.9417780  30.0741520  27.2368760   4.6423530  30.3950590
  27.9276960   5.1859790  29.1625340  25.1824880   6.4419530  32.1740310
  25.5078290   5.6083280  31.8342540  25.9705210   6.9648050  32.3218640
  18.5915070   5.9773880  21.0690790  18.3655990   5.7611050  21.9737410
  17.8107600   6.4102340  20.7236760  25.8212830   5.9837250  19.6681440
  25.2221720   6.7073050  19.4845060  26.3692440   5.9214030  18.8857890
  21.0314280   6.8759460  31.7351060  20.9357880   5.9354190  31.5851460
  21.8746260   7.0974530  31.3399130  24.4277700   4.6200790  21.6984720
  24.8207270   4.9372990  20.8853410  24.7894550   3.7412670  21.8129240
  16.1624820   3.2873130  29.8884840  15.7688210   4.1348340  30.0957620
  15.4743220   2.6499500  30.0793480  22.7369870   3.3708100  32.9581580
  22.0468190   3.1780300  33.5927670  23.4802170   3.6542740  33.4905880
  13.6512100   5.1521710  15.1317640  13.5686770   6.0952470  15.2732630
  13.2995160   5.0096620  14.2529990  25.0132840   7.2106540  25.7935500
  24.2813960   7.7193350  26.1425600  24.6157180   6.3936520  25.4924280
  21.4510230   3.8860740  24.1987990  21.4546290   3.4450690  23.3492530
  22.3461350   4.2078070  24.3059810  17.3012610   3.7687230  23.1582200
  16.9612660   4.2462460  23.9149250  16.5389930   3.3152350  22.7983300
  21.5130380   4.8872820  17.1894750  21.6343200   4.8459300  18.1380570
  21.1278890   5.7496970  17.0341480  25.4758750   2.6640220  25.2058440
  25.4931490   3.1148870  26.0500290  25.2274330   1.7645860  25.4191880
  20.5251880   7.1973960  16.5878050  19.9568780   6.7492210  15.9613960
  21.2340880   7.5566740  16.0543200  15.6021060  11.0985980  30.4644780
  15.2175850  10.4579650  31.0627740  15.9133250  11.8022100  31.0339510
  21.7518200   7.9462520  25.9453400  22.1188330   7.4721090  26.6914740
  21.5623260   8.8204090  26.2861740  14.6158690   2.6906210  22.0746870
  14.3305610   2.3261880  22.9125490  14.5537550   1.9586670  21.4610010
  19.5417570   6.9871160  28.2637610  19.2374640   7.8663140  28.4887970
  20.4964030   7.0470950  28.2995050  18.0699360  11.1932150  18.8604460
  17.2961620  10.6529770  18.7003180  18.7993990  10.6738760  18.5222220
  28.8287340  10.1897510  24.6530850  29.5486460  10.6852800  24.2626960
  28.6269160   9.5115400  24.0084720  24.2106140  10.2606570  30.5399850
  24.1443450   9.3402240  30.2857440  23.5811280  10.3582010  31.2544490
  27.0045670   5.9555120  17.0922400  27.8925290   6.2672350  16.9173740
  26.9750760   5.0827370  16.7002980  18.1136760  10.8612530  22.4983270
  18.6315430  10.0580790  22.4440160  17.6620780  10.7991670  23.3400100
  23.0006260  12.1278810  17.7710570  23.3421960  12.8721040  17.2753890
  22.1718970  12.4409930  18.1335400  15.5981300   7.8273900  29.4108970
  15.2396240   8.4927750  29.9982310  15.3035860   6.9957450  29.7821590
  18.7994420   8.2858140  32.2948520  18.4994560   8.4315320  31.3976340
  19.5705660   7.7263430  32.2021910  24.1422870  13.0827140  30.2903650
  24.1567410  12.1508100  30.0722560  23.4347970  13.1686900  30.9293420
  29.2759940   7.2666960  16.5602260  29.1923660   7.6981180  15.7098700
  29.9954130   7.7265310  16.9929080  30.3534080   9.7234480  29.6372230
  29.6282270  10.3163260  29.4401620  30.8809540   9.7158020  28.8385600
  30.3047190  14.1209220  19.2884390  29.6623350  13.4664840  19.5628110
  29.9177850  14.5264310  18.5125060  25.8833670  11.4494650  23.1356080
  26.2357490  10.8522780  22.4757450  24.9996000  11.1238880  23.3064330
  21.9696950  12.2092340  20.5426490  22.6568080  12.7561550  20.9234080
  21.1829370  12.7533070  20.5776100  14.1089350   7.8265160  16.0343570
  14.9784200   8.1089960  16.3179490  13.6179670   8.6401030  15.9192380
  21.2724160   9.2138370  20.1551850  21.7286940  10.0243620  20.3812040
  20.9212370   8.8961510  20.9870340  23.5756770  14.7244710  27.3844150
  24.2198990  14.9304090  28.0617570  23.9386210  13.9633110  26.9315000
  24.8488850  12.7277060  26.1021600  25.4911080  12.0270220  26.2153770
  25.3738200  13.5075500  25.9218490  28.6944570  13.0125680  15.8260740
  28.4682150  12.2956120  16.4185380  28.3040770  12.7638120  14.9882490
  26.6226470  13.5271960  29.3057660  26.9582710  14.1138650  29.9835580
  25.7026810  13.3964670  29.5355450  14.4760600  17.0392540  16.6005200
  14.8358240  17.6381880  15.9462470  14.3352940  17.5852430  17.3740230
  28.2760820  10.9297620  17.4874900  27.9882520  11.3910310  18.2752780
  29.0712990  10.4695390  17.7559120  14.4602460  15.3047400  31.0747600
  14.5693580  14.3642140  30.9342990  13.8083020  15.5702150  30.4261330
  22.4515050  13.5763290  32.4745720  22.1311920  12.8572530  33.0191410
  21.7773410  14.2518360  32.5481780  20.4929220  14.4223740  17.4178870
  20.4839320  15.1553430  16.8023380  19.5727580  14.1755320  17.5105830
  16.0935860   9.6438630  18.1625630  15.4863810  10.3837530  18.1720930
  16.5685210   9.7337990  17.3363830  25.6668650   3.8089450  27.8382520
  26.0349470   2.9884660  28.1662090  24.8066850   3.8691340  28.2538170
  29.0330680   2.7646390  18.6470080  28.4043840   2.8692060  17.9328310
  28.5382600   2.9843170  19.4363960  23.4788820  14.4851980  16.0804060
  23.5800800  14.2815970  15.1506040  22.5790560  14.2310260  16.2851840
  21.0014710   5.0432340  20.0627960  20.2930860   5.5118680  20.5041570
  21.2859190   4.3854350  20.6973150  22.6270640   6.4629040  28.0620490
  23.1255890   6.9374860  28.7272340  22.7693590   5.5392560  28.2690520
  25.0330140   1.7683000  21.5023750  24.9097920   1.7869130  20.5533260
  25.9814700   1.8161940  21.6222150  22.1206930  17.0038300  20.7751730
  22.3748430  16.9659690  19.8531100  21.1719410  16.8771630  20.7679980
  19.2049730   3.3517420  17.4378670  20.0540260   3.7887570  17.3718860
  18.8381000   3.6637680  18.2650730  29.8337500   2.6797000  28.9048880
  29.3311100   3.4202400  29.2442690  30.6494160   3.0681000  28.5885670
  28.1259510   7.9230180  22.3510240  27.1849650   7.9380410  22.5257930
  28.4403580   7.1366140  22.7970540  18.1041150   9.6049780  15.9114200
  18.8704420   9.4931140  16.4739630  18.1815840   8.9087750  15.2590970
  16.7987910   7.0374850  16.5947090  16.8791500   6.0902360  16.7064490
  17.6907660   7.3681730  16.7007750  30.1285090  15.0939030  24.0264500
  30.2532510  15.9170200  24.4988310  30.9950650  14.8829760  23.6788650
  17.6002620  17.1870240  23.6981630  18.3365100  16.6385700  23.9690200
  17.9843540  18.0526250  23.5587620  14.4848100  13.2543810  19.5723140
  13.5587880  13.4964950  19.5628550  14.9504530  14.0818070  19.4507890
  16.6060900  16.3716310  32.8867210  17.4073630  16.6928360  33.3002610
  16.0912720  16.0111890  33.6087120  20.7104930  16.3600550  15.5207200
  21.5033540  16.6489380  15.0688990  20.1909280  15.9292720  14.8419680
  25.4425530  12.4796180  32.8342620  24.8363690  12.5027780  32.0938370
  25.1379640  11.7479220  33.3709870  26.8725900  16.2076470  31.4452030
  27.8247650  16.1234490  31.3952270  26.7254120  16.8718180  32.1185820
  29.7635100  15.5870680  16.9443940  29.4776610  15.1735820  16.1298120
  29.5654650  16.5158390  16.8244460  14.3258710   8.8589770  31.8303260
  14.8297730   8.2797050  32.4019490  13.5866130   9.1430000  32.3679630
  21.2282330  11.5803960  15.3849550  21.1232970  10.9656310  16.1110930
  21.0606550  11.0569850  14.6012560  21.3796650  10.2660760  31.3638780
  20.6142320  10.8345760  31.2793450  21.5612610   9.9736970  30.4707010
  24.4685060  10.6423990  15.9891540  23.9195160  11.0893290  16.6334280
  25.0904320  10.1373240  16.5129210  28.5220000  11.9966090  31.9213800
  29.2629470  12.3341850  31.4181260  27.7592680  12.1658150  31.3683570
  16.3581790   7.0019360  32.7253330  16.3987130   6.7033230  33.6338560
  17.2127290   7.4026970  32.5660850  20.1360180   9.6014910  17.8856840
  20.5576600   9.4354780  18.7288230  20.2611020   8.7915140  17.3911980
  18.2987600   5.5811460  30.6927820  17.7684060   5.0902410  30.0651160
  18.9675670   6.0095660  30.1585750  22.6487820   8.6252520  15.1333940
  23.1693480   7.9101540  14.7675090  23.2956220   9.2638390  15.4334450
  27.1965660  10.0480920  30.4569010  27.6106680  10.2026000  31.3059430
  26.2616660  10.1736140  30.6194790  27.6687830   7.3877080  32.4608160
  28.2508600   6.6329400  32.3728640  27.8449600   7.9184520  31.6839640
  18.7859900   2.5473830  30.7725110  18.6916770   1.9294580  30.0475980
  18.2057290   3.2740120  30.5455020  21.9580890  10.0001400  28.4264940
  22.3769000  10.8434130  28.2541180  21.0389520  10.1373440  28.1971720
  24.2944790   7.7317580  29.8102780  24.4141000   7.1358720  30.5497620
  25.1538790   7.7687270  29.3904080  26.6332690   8.2854770  28.3865290
  26.1067910   8.8097390  27.7830430  26.9764030   8.9182160  29.0175020
  19.0319080   5.6748140  14.8315000  18.8308140   4.8115500  15.1928340
  18.8611130   5.5881500  13.8936600  19.8088310  16.3054410  29.5422670
  19.2709400  17.0300470  29.2231370  20.0622270  15.8284750  28.7520010
  21.0613560   4.2738930  31.0678600  21.6513250   3.9654780  31.7556420
  20.2433800   3.8018680  31.2238500  25.8806990   3.8904740  31.3011620
  25.1922510   3.2286280  31.2361610  26.6013010   3.4443010  31.7460080
  17.8301880   2.7748760  14.8192880  18.1327780   2.7816190  13.9112030
  18.5696470   2.4246620  15.3160540  22.6650520  17.5405620  29.8009320
  22.5909220  18.4440760  30.1081690  21.7629360  17.2217520  29.7731390
  23.2135850  16.7064130  17.4235680  24.1086640  17.0449100  17.4454440
  23.2453480  15.9843540  16.7959960  16.8532010  12.0791180  15.6522680
  17.2906880  12.6220850  16.3080260  17.3379740  11.2538130  15.6619020
  14.0677810  14.8680210  23.1042940  14.3980820  14.0001270  22.8721580
  14.4968810  15.0738730  23.9347900  18.6639730  13.1989220  20.7644910
  18.3635270  13.0754190  21.6648820  18.5577220  12.3397810  20.3560640
  14.5568020  15.7350800  25.8424570  14.1199010  15.9151600  26.6748720
  15.1245700  16.4925420  25.7006290  30.1930200  15.2367800  30.1301880
  29.5932190  15.2960360  29.3865800  30.3224100  14.2972780  30.2598730
  31.4331650  12.9785620  15.4671590  30.6024610  13.0462270  15.9378820
  31.6103480  13.8689740  15.1638450  30.8888110   9.7233100  17.9705790
  31.6507020  10.2929750  18.0765480  30.9042480   9.1560300  18.7414100
  14.3892450   8.2471030  22.2013450  13.7341290   7.9782670  21.5573150
  15.2270400   8.1375510  21.7515430  31.8948080  10.5783200  22.8147720
  32.2656910   9.7950520  22.4083690  32.5350010  11.2672300  22.6365020
  28.8781840  11.9619780  28.2278040  28.0641680  12.3916940  28.4903830
  29.2856040  12.5738190  27.6147090  30.9407280  10.0167470  15.1278310
  31.2156120  10.9246350  14.9997530  30.7518020   9.9530000  16.0640300
  27.3382890   3.0412320  16.4231940  27.7567770   2.8543300  15.5828600
  27.0318950   2.1891370  16.7334870  30.8372620   7.9536460  20.1207740
  30.4616220   7.1864390  19.6889030  30.1075740   8.3359160  20.6082670
  15.4268380   8.6323600  26.7416790  15.7941420   8.5451000  27.6212810
  14.8579200   7.8690150  26.6423650  30.2272240   7.1007980  29.7547260
  29.9958330   6.8720730  28.8545210  30.4876790   8.0207530  29.7092150
  14.9784380   5.5432690  30.6475210  14.0840430   5.5099450  30.9868920
  15.5181930   5.7419480  31.4126460  28.6660310   2.3264410  32.5326960
  29.5430490   2.3347810  32.9160960  28.6781150   1.5895250  31.9219310
  13.6030530   5.4569960  18.1438780  12.6994610   5.7200160  17.9690440
  14.0871150   5.7281130  17.3638740  30.1123580   6.1793950  23.4214980
  30.6361060   5.6856600  22.7905150  30.6983000   6.3144310  24.1662550
  30.2913300   6.2633820  26.9434530  29.3416010   6.2297360  27.0579520
  30.4726310   7.1733930  26.7084300  16.1457740   4.5135500  16.0533160
  16.8549440   4.0918720  15.5680440  15.4297680   4.5810730  15.4216510
  29.6023550   5.4367300  19.3607390  30.0982670   5.2038170  20.1456270
  29.4039620   4.5979140  18.9445030  31.0310710   4.0728250  21.8945070
  30.9209990   3.9184290  22.8327340  31.7918300   3.5449190  21.6520480
  31.9200980   1.9036170  15.1351210  32.8450290   1.7717350  14.9269500
  31.8976770   1.9828990  16.0887660  31.9939470   2.6746830  17.7607920
  31.1990970   2.6091950  18.2900830  32.1982750   3.6097470  17.7493270
  28.9357890  16.7138380  21.7546310  29.5316960  16.3922950  21.0780730
  29.1936040  16.2410200  22.5459580  16.8420460  13.1456290  31.9036940
  16.7990090  12.7749200  32.7851400  16.9731470  14.0833860  32.0438760
  20.5426490  14.7015880  27.5046660  20.3017850  14.9690440  26.6177180
  21.4829130  14.8721610  27.5597520  31.8030650  16.7210260  28.3057300
  31.3088930  17.1179130  27.5884430  31.1943940  16.0959470  28.6994580
  16.6808490  16.0918540  29.0234720  16.0868810  15.9603240  29.7624760
  16.6732330  15.2556680  28.5576820  29.4870100  17.3633680  25.5844040
  29.0273070  18.1149490  25.2102060  28.8582560  16.6440150  25.5258840
  16.3120720  13.4576920  27.9742760  15.5854780  12.8382210  27.9068710
  16.3729870  13.8517530  27.1040840  19.9165820  15.6721920  24.7592170
  20.4330840  15.0609280  24.2340430  20.5663200  16.1750700  25.2503180
  22.6561320  16.5630410  25.5861150  22.9439130  16.3084710  24.7094160
  23.1684540  16.0107770  26.1766720  14.5950720  16.7751310  21.1839520
  14.4272760  16.1421990  21.8821410  13.7285230  16.9810710  20.8333710
  21.7592550   2.7207360  21.6773690  20.9467060   2.3464250  21.3369570
  22.2634190   1.9652440  21.9794880  16.2013420  15.4684540  18.6289660
  15.6761040  15.8492570  17.9251620  16.1258000  16.0935310  19.3499370
  22.7233680  17.4846510  32.9529350  23.6500990  17.2490780  32.9965310
  22.7084110  18.3118510  32.4715380  30.9578740  17.0272080  19.9503600
  31.1330930  16.3409820  19.3064520  30.2600310  17.5519130  19.5580270
  18.8006390  17.4166920  17.5038910  19.5325210  17.1326200  16.9562800
  19.0600060  17.1780200  18.3938290  17.9621180  13.5331650  17.5085240
  17.3330060  14.0016750  18.0571070  18.0769010  12.6880870  17.9431430
  29.2911240  16.7116370  32.7770390  30.0836560  16.2165600  32.5696350
  29.5844390  17.3906510  33.3846000  25.4170900   7.5837310   3.6586440
  25.3364950   6.6691920   3.3878150  25.0035320   8.0804380   2.9526150
  23.5488940   9.3616330   5.5395710  22.7731040   8.8816770   5.8294280
  24.2001870   8.6821980   5.3651870  17.5654770   9.6736140   6.4171470
  16.7339650   9.4184850   6.8167980  18.1735750   9.7446910   7.1529390
  27.5696370  13.7676520   4.3194840  27.1077900  12.9963760   4.6482010
  28.3821920  13.7942590   4.8247290  17.5456030  13.7076230   6.6129490
  17.8484070  12.8173970   6.4339710  18.2899620  14.2646450   6.3851740
  13.9379730   7.2343680   6.0853560  14.5095840   6.4665880   6.0857200
  13.9381270   7.5332440   5.1760170  23.7959680  16.0534530   3.9398830
  23.1771120  16.5092030   3.3693270  24.6511460  16.2085990   3.5388530
  22.9897930  12.0373520   5.5465870  22.9206210  11.0963460   5.3855000
  23.7517790  12.1274930   6.1188440  15.1804600   2.6428040   7.8722490
  15.0007440   1.7453790   8.1525250  14.7784680   3.1899910   8.5469440
  24.0203100   4.8443900   5.7734800  24.3967920   3.9715780   5.6608470
  23.9222610   5.1802600   4.8825240  27.8027220   2.3394340   2.7063140
  28.6236840   1.8490910   2.7488620  27.8361300   2.9292000   3.4594980
  15.7991270   5.1388540   6.4804830  16.4801380   5.4026910   7.0992230
  15.4839320   4.2989410   6.8142840  19.9915840   6.1855900   5.5677420
  20.4994060   6.6836870   6.2082440  20.5229080   5.4091100   5.3916780
  32.0926770   4.3561090   9.2706770  31.3878940   4.7442800   8.7521880
  32.3584690   5.0511380   9.8727700  19.5254790  10.4649640   8.0114340
  19.1924170  11.0918560   8.6535410  19.7021470  10.9911520   7.2316010
  28.0388700   4.2794720   5.4790680  27.3344270   4.5679610   6.0593790
  28.4000860   5.0894830   5.1190240  17.9567270   2.5364420   7.8411290
  18.2984080   3.3806470   7.5465160  17.0183080   2.6848160   7.9576630
  18.7373890  12.4330440   9.8263520  19.3547890  13.1081520   9.5447970
  17.8767010  12.8418420   9.7351020  29.6551480  13.8969850   7.7418160
  28.9715000  14.5668960   7.7334830  30.1945770  14.0950500   6.9763020
  31.1075620   3.7249510   5.8699890  30.1600530   3.7588490   6.0015320
  31.4325610   4.5388460   6.2549250  27.1910220  15.7413980   6.4563340
  27.2037380  15.3376270   5.5885600  26.6385440  16.5161270   6.3524770
  26.5895660  10.6443820   7.7845950  27.0064450  10.4303930   6.9499410
  27.3135480  10.9016610   8.3554570  30.5357760   9.0431040   7.8762190
  29.7076390   9.1124130   7.4012320  31.1308240   9.6285350   7.4078020
  27.4999770   5.8300360   8.8217060  27.0870950   6.6554070   9.0757050
  26.7675720   5.2445400   8.6293420  19.6332560   8.6160260   3.6835730
  19.2289560   7.9037510   3.1881630  19.7195680   8.2713500   4.5723770
  20.1014260  12.3027820   5.8474940  19.8042550  11.6973290   5.1682720
  21.0514080  12.3405130   5.7364300  18.3461180   5.3903470   7.4634770
  18.8975770   5.4998810   6.6888020  18.8604690   5.7641070   8.1790000
  28.1899870  15.8759690   9.5098040  27.7130430  16.6831880   9.3170650
  27.5061660  15.2238020   9.6624250  19.1932690  12.0409510  12.4982740
  18.2961220  12.2649480  12.7456140  19.2185560  12.1644450  11.5494140
  18.0203910   8.9122830  11.0740110  17.8811680   9.7845630  11.4427510
  17.1385270   8.5695640  10.9288050  24.3433290  13.8298700   2.3805240
  24.7829200  14.5723030   1.9660630  24.2820180  14.0725270   3.3044200
  19.8184260  14.8544530  13.2825260  19.7899690  15.2587480  12.4153690
  19.6549230  13.9254890  13.1196860  31.7699080  15.6371630  14.5789430
  32.2458800  16.1154520  15.2578510  32.3906240  15.5689120  13.8534930
  13.9722560  10.6820380   6.9911020  14.0502980  10.8169150   6.0466740
  14.5864240   9.9736270   7.1839140  15.2170190  12.3820570   3.4017200
  14.8098270  12.5235160   2.5470800  16.1083200  12.0980730   3.1988410
  31.1732330  12.8284480  11.7389440  31.2995390  12.5896360  10.8206620
  31.2153710  11.9969020  12.2111520  25.0349070  16.5312480  10.3084250
  25.5493740  16.4420490  11.1106680  24.1918150  16.8772180  10.6012160
  26.2779530  15.9518090   2.3714740  26.7336480  15.1707470   2.6853360
  26.6172050  16.6624910   2.9155920  31.0256340   4.8816940  12.7039180
  30.4100610   5.3896610  12.1754640  30.7052760   3.9815270  12.6465120
  14.0282080  11.7234550   9.5305480  14.1913120  11.2539910   8.7124850
  14.4934530  11.2158110  10.1954320  23.0870660   3.7208830  10.1701370
  22.6250030   3.9291850  10.9821310  22.6848770   2.9068180   9.8672040
  28.0875170   4.9417780  11.2998030  27.2368760   4.6423530  11.6207100
  27.9276960   5.1859790  10.3881850  25.1824880   6.4419530  13.3996820
  25.5078290   5.6083280  13.0599050  25.9705210   6.9648050  13.5475150
  18.5915070   5.9773880   2.2947300  18.3655990   5.7611050   3.1993920
  17.8107600   6.4102340   1.9493270  21.0314280   6.8759460  12.9607570
  20.9357880   5.9354190  12.8107970  21.8746260   7.0974530  12.5655640
  24.4277700   4.6200790   2.9241230  24.8207270   4.9372990   2.1109920
  24.7894550   3.7412670   3.0385750  16.1624820   3.2873130  11.1141350
  15.7688210   4.1348340  11.3214130  15.4743220   2.6499500  11.3049990
  22.7369870   3.3708100  14.1838090  22.0468190   3.1780300  14.8184180
  23.4802170   3.6542740  14.7162390  25.0132840   7.2106540   7.0192010
  24.2813960   7.7193350   7.3682110  24.6157180   6.3936520   6.7180790
  21.4510230   3.8860740   5.4244500  21.4546290   3.4450690   4.5749040
  22.3461350   4.2078070   5.5316320  17.3012610   3.7687230   4.3838710
  16.9612660   4.2462460   5.1405760  16.5389930   3.3152350   4.0239810
  25.4758750   2.6640220   6.4314950  25.4931490   3.1148870   7.2756800
  25.2274330   1.7645860   6.6448390  15.6021060  11.0985980  11.6901290
  15.2175850  10.4579650  12.2884250  15.9133250  11.8022100  12.2596020
  21.7518200   7.9462520   7.1709910  22.1188330   7.4721090   7.9171250
  21.5623260   8.8204090   7.5118250  14.6158690   2.6906210   3.3003380
  14.3305610   2.3261880   4.1382000  14.5537550   1.9586670   2.6866520
  19.5417570   6.9871160   9.4894120  19.2374640   7.8663140   9.7144480
  20.4964030   7.0470950   9.5251560  28.8287340  10.1897510   5.8787360
  29.5486460  10.6852800   5.4883470  28.6269160   9.5115400   5.2341230
  24.2106140  10.2606570  11.7656360  24.1443450   9.3402240  11.5113950
  23.5811280  10.3582010  12.4801000  18.1136760  10.8612530   3.7239780
  18.6315430  10.0580790   3.6696670  17.6620780  10.7991670   4.5656610
  15.5981300   7.8273900  10.6365480  15.2396240   8.4927750  11.2238820
  15.3035860   6.9957450  11.0078100  18.7994420   8.2858140  13.5205030
  18.4994560   8.4315320  12.6232850  19.5705660   7.7263430  13.4278420
  24.1422870  13.0827140  11.5160160  24.1567410  12.1508100  11.2979070
  23.4347970  13.1686900  12.1549930  30.3534080   9.7234480  10.8628740
  29.6282270  10.3163260  10.6658130  30.8809540   9.7158020  10.0642110
  25.8833670  11.4494650   4.3612590  26.2357490  10.8522780   3.7013960
  24.9996000  11.1238880   4.5320840  21.9696950  12.2092340   1.7683000
  22.6568080  12.7561550   2.1490590  21.1829370  12.7533070   1.8032610
  23.5756770  14.7244710   8.6100660  24.2198990  14.9304090   9.2874080
  23.9386210  13.9633110   8.1571510  24.8488850  12.7277060   7.3278110
  25.4911080  12.0270220   7.4410280  25.3738200  13.5075500   7.1475000
  26.6226470  13.5271960  10.5314170  26.9582710  14.1138650  11.2092090
  25.7026810  13.3964670  10.7611960  14.4602460  15.3047400  12.3004110
  14.5693580  14.3642140  12.1599500  13.8083020  15.5702150  11.6517840
  22.4515050  13.5763290  13.7002230  22.1311920  12.8572530  14.2447920
  21.7773410  14.2518360  13.7738290  25.6668650   3.8089450   9.0639030
  26.0349470   2.9884660   9.3918600  24.8066850   3.8691340   9.4794680
  22.6270640   6.4629040   9.2877000  23.1255890   6.9374860   9.9528850
  22.7693590   5.5392560   9.4947030  25.0330140   1.7683000   2.7280260
  24.9097920   1.7869130   1.7789770  25.9814700   1.8161940   2.8478660
  29.8337500   2.6797000  10.1305390  29.3311100   3.4202400  10.4699200
  30.6494160   3.0681000   9.8142180  28.1259510   7.9230180   3.5766750
  27.1849650   7.9380410   3.7514440  28.4403580   7.1366140   4.0227050
  30.1285090  15.0939030   5.2521010  30.2532510  15.9170200   5.7244820
  30.9950650  14.8829760   4.9045160  17.6002620  17.1870240   4.9238140
  18.3365100  16.6385700   5.1946710  17.9843540  18.0526250   4.7844130
  16.6060900  16.3716310  14.1123720  17.4073630  16.6928360  14.5259120
  16.0912720  16.0111890  14.8343630  25.4425530  12.4796180  14.0599130
  24.8363690  12.5027780  13.3194880  25.1379640  11.7479220  14.5966380
  26.8725900  16.2076470  12.6708540  27.8247650  16.1234490  12.6208780
  26.7254120  16.8718180  13.3442330  14.3258710   8.8589770  13.0559770
  14.8297730   8.2797050  13.6276000  13.5866130   9.1430000  13.5936140
  21.3796650  10.2660760  12.5895290  20.6142320  10.8345760  12.5049960
  21.5612610   9.9736970  11.6963520  28.5220000  11.9966090  13.1470310
  29.2629470  12.3341850  12.6437770  27.7592680  12.1658150  12.5940080
  16.3581790   7.0019360  13.9509840  16.3987130   6.7033230  14.8595070
  17.2127290   7.4026970  13.7917360  18.2987600   5.5811460  11.9184330
  17.7684060   5.0902410  11.2907670  18.9675670   6.0095660  11.3842260
  27.1965660  10.0480920  11.6825520  27.6106680  10.2026000  12.5315940
  26.2616660  10.1736140  11.8451300  27.6687830   7.3877080  13.6864670
  28.2508600   6.6329400  13.5985150  27.8449600   7.9184520  12.9096150
  18.7859900   2.5473830  11.9981620  18.6916770   1.9294580  11.2732490
  18.2057290   3.2740120  11.7711530  21.9580890  10.0001400   9.6521450
  22.3769000  10.8434130   9.4797690  21.0389520  10.1373440   9.4228230
  24.2944790   7.7317580  11.0359290  24.4141000   7.1358720  11.7754130
  25.1538790   7.7687270  10.6160590  26.6332690   8.2854770   9.6121800
  26.1067910   8.8097390   9.0086940  26.9764030   8.9182160  10.2431530
  19.8088310  16.3054410  10.7679180  19.2709400  17.0300470  10.4487880
  20.0622270  15.8284750   9.9776520  21.0613560   4.2738930  12.2935110
  21.6513250   3.9654780  12.9812930  20.2433800   3.8018680  12.4495010
  25.8806990   3.8904740  12.5268130  25.1922510   3.2286280  12.4618120
  26.6013010   3.4443010  12.9716590  22.6650520  17.5405620  11.0265830
  22.5909220  18.4440760  11.3338200  21.7629360  17.2217520  10.9987900
  14.0677810  14.8680210   4.3299450  14.3980820  14.0001270   4.0978090
  14.4968810  15.0738730   5.1604410  14.5568020  15.7350800   7.0681080
  14.1199010  15.9151600   7.9005230  15.1245700  16.4925420   6.9262800
  30.1930200  15.2367800  11.3558390  29.5932190  15.2960360  10.6122310
  30.3224100  14.2972780  11.4855240  14.3892450   8.2471030   3.4269960
  13.7341290   7.9782670   2.7829660  15.2270400   8.1375510   2.9771940
  31.8948080  10.5783200   4.0404230  32.2656910   9.7950520   3.6340200
  32.5350010  11.2672300   3.8621530  28.8781840  11.9619780   9.4534550
  28.0641680  12.3916940   9.7160340  29.2856040  12.5738190   8.8403600
  15.4268380   8.6323600   7.9673300  15.7941420   8.5451000   8.8469320
  14.8579200   7.8690150   7.8680160  30.2272240   7.1007980  10.9803770
  29.9958330   6.8720730  10.0801720  30.4876790   8.0207530  10.9348660
  14.9784380   5.5432690  11.8731720  14.0840430   5.5099450  12.2125430
  15.5181930   5.7419480  12.6382970  28.6660310   2.3264410  13.7583470
  29.5430490   2.3347810  14.1417470  28.6781150   1.5895250  13.1475820
  30.1123580   6.1793950   4.6471490  30.6361060   5.6856600   4.0161660
  30.6983000   6.3144310   5.3919060  30.2913300   6.2633820   8.1691040
  29.3416010   6.2297360   8.2836030  30.4726310   7.1733930   7.9340810
  31.0310710   4.0728250   3.1201580  30.9209990   3.9184290   4.0583850
  31.7918300   3.5449190   2.8776990  28.9357890  16.7138380   2.9802820
  29.5316960  16.3922950   2.3037240  29.1936040  16.2410200   3.7716090
  16.8420460  13.1456290  13.1293450  16.7990090  12.7749200  14.0107910
  16.9731470  14.0833860  13.2695270  20.5426490  14.7015880   8.7303170
  20.3017850  14.9690440   7.8433690  21.4829130  14.8721610   8.7854030
  31.8030650  16.7210260   9.5313810  31.3088930  17.1179130   8.8140940
  31.1943940  16.0959470   9.9251090  16.6808490  16.0918540  10.2491230
  16.0868810  15.9603240  10.9881270  16.6732330  15.2556680   9.7833330
  29.4870100  17.3633680   6.8100550  29.0273070  18.1149490   6.4358570
  28.8582560  16.6440150   6.7515350  16.3120720  13.4576920   9.1999270
  15.5854780  12.8382210   9.1325220  16.3729870  13.8517530   8.3297350
  19.9165820  15.6721920   5.9848680  20.4330840  15.0609280   5.4596940
  20.5663200  16.1750700   6.4759690  22.6561320  16.5630410   6.8117660
  22.9439130  16.3084710   5.9350670  23.1684540  16.0107770   7.4023230
  14.5950720  16.7751310   2.4096030  14.4272760  16.1421990   3.1077920
  13.7285230  16.9810710   2.0590220  21.7592550   2.7207360   2.9030200
  20.9467060   2.3464250   2.5626080  22.2634190   1.9652440   3.2051390
  22.7233680  17.4846510  14.1785860  23.6500990  17.2490780  14.2221820
  22.7084110  18.3118510  13.6971890  29.2911240  16.7116370  14.0026900
  30.0836560  16.2165600  13.7952860  29.5844390  17.3906510  14.6102510
   6.6427410  63.9067780  59.9816910   6.5621460  62.9922390  59.7108620
   6.2291830  64.4034850  59.2756620   4.7745450  65.6846800  61.8626180
   3.9987550  65.2047240  62.1524750   5.4258380  65.0052450  61.6882340
   8.7952880  70.0906990  60.6425310   8.3334410  69.3194230  60.9712480
   9.6078430  70.1173060  61.1477760   4.2154440  68.3603990  61.8696340
   4.1462720  67.4193930  61.7085470   4.9774300  68.4505400  62.4418910
   5.2459610  61.1674370  62.0965270   5.6224430  60.2946250  61.9838940
   5.1479120  61.5033070  61.2055710   9.0283730  58.6624810  59.0293610
   9.8493350  58.1721380  59.0719090   9.0617810  59.2522470  59.7825450
   5.8879540  67.2604240  57.6561210   5.2696810  67.7253690  57.0923930
   6.4002790  67.9531720  58.0730720   9.2645210  60.6025190  61.8021150
   8.5600780  60.8910080  62.3824260   9.6257370  61.4125300  61.4420710
  10.8807990  70.2200320  64.0648630  10.1971510  70.8899430  64.0565300
  11.4202280  70.4180970  63.2993490  12.3332130  60.0479980  62.1930360
  11.3857040  60.0818960  62.3245790  12.6582120  60.8618930  62.5779720
   2.8651670  56.3477160  60.4886350   3.1726650  55.7924050  59.7721850
   1.9352370  56.4821620  60.3059340   9.7112150  68.7860670  57.8683980
   9.6008480  67.8435000  57.9933400   9.7080400  69.1476310  58.7546740
   7.8152170  66.9674290  64.1076420   8.2320960  66.7534400  63.2729880
   8.5391990  67.2247080  64.6785040   5.2532430  64.4125990  57.2246470
   4.3261710  64.3463370  57.4534940   5.4057250  65.3506120  57.1101710
   5.2401510  60.6842990  54.2213630   4.3005180  60.8456950  54.3066090
   5.5584770  61.4028670  53.6749620  11.7614270  65.3661510  64.1992660
  10.9332900  65.4354600  63.7242790  12.3564750  65.9515820  63.7308490
   9.2829720  65.9746290  57.7281720   8.6642140  65.6365840  57.0808020
   9.2654170  65.3306050  58.4360910   7.4594420  65.2133100  54.7354470
   7.8987700  64.3755530  54.5892290   8.1722840  65.8462500  54.8218610
   5.5689800  70.1529170  58.7035710   6.0085710  70.8953500  58.2891100
   5.5076690  70.3955740  59.6274670  11.0411560  56.4675910  53.0495510
  10.7284220  56.5602740  53.9494580  11.8024030  57.0456940  52.9992940
   7.9386110  70.6485850  54.6196720   7.2451270  70.6463140  53.9599000
   8.6808970  70.2245170  54.1890890   3.1416180  56.7981480  55.7702350
   2.5170360  56.7941350  56.4955660   3.0546300  55.9312440  55.3738320
   2.0633260  57.7218110  62.7486120   2.3605590  58.6280940  62.6678140
   2.6118820  57.2336890  62.1345690   7.0469340  62.3067720  57.2168420
   6.4478230  63.0303520  57.0332040   7.5948950  62.2444500  56.4344870
   5.6534210  60.9431260  59.2471700   6.0463780  61.2603460  58.4340390
   6.0151060  60.0643140  59.3616220   6.2389350  63.5337010  63.3422480
   5.5070470  64.0423820  63.6912580   5.8413690  62.7166990  63.0411260
   2.6766740  60.2091210  61.7474970   2.6802800  59.7681160  60.8979510
   3.5717860  60.5308540  61.8546790   2.7386890  61.2103290  54.7381730
   2.8599710  61.1689770  55.6867550   2.3535400  62.0727440  54.5828460
   6.7015260  58.9870690  62.7545420   6.7188000  59.4379340  63.5987270
   6.4530840  58.0876330  62.9678860   2.9774710  64.2692990  63.4940380
   3.3444840  63.7951560  64.2401720   2.7879770  65.1434560  63.8348720
  10.0543850  66.5127980  62.2017830  10.7742970  67.0083270  61.8113940
   9.8525670  65.8345870  61.5571700   5.5153790  57.9065940  56.3447220
   4.7018400  57.4079110  56.2692530   5.3215740  58.7464190  55.9283570
   8.2302180  62.2785590  54.6409380   9.1181800  62.5902820  54.4660720
   8.2007270  61.4057840  54.2489960   4.2262770  68.4509280  55.3197550
   4.5678470  69.1951510  54.8240870   3.3975480  68.7640400  55.6822380
  10.5016450  63.5897430  54.1089240  10.4180170  64.0211650  53.2585680
  11.2210640  64.0495780  54.5416060  11.5303700  70.4439690  56.8371370
  10.8879860  69.7895310  57.1115090  11.1434360  70.8494780  56.0612040
   7.1090180  67.7725120  60.6843060   7.4614000  67.1753250  60.0244430
   6.2252510  67.4469350  60.8551310   3.1953460  68.5322810  58.0913470
   3.8824590  69.0792020  58.4721060   2.4085880  69.0763540  58.1263080
   2.4980670  65.5368840  57.7038830   2.9543450  66.3474090  57.9299020
   2.1468880  65.2191980  58.5357320   6.0745360  69.0507530  63.6508580
   6.7167590  68.3500690  63.7640750   6.5994710  69.8305970  63.4705470
   9.9201080  69.3356150  53.3747720   9.6938660  68.6186590  53.9672360
   9.5297280  69.0868590  52.5369470   9.5017330  67.2528090  55.0361880
   9.2139030  67.7140780  55.8239760  10.2969500  66.7925860  55.3046100
  10.2587190  59.0876860  56.1957060   9.6300350  59.1922530  55.4815290
   9.7639110  59.3073640  56.9850940   4.7045330  70.8082450  53.6291040
   4.8057310  70.6046440  52.6993020   3.8047070  70.5540730  53.8338820
   2.2271220  61.3662810  57.6114940   1.5187370  61.8349150  58.0528550
   2.5115700  60.7084820  58.2460130   6.2586650  58.0913470  59.0510730
   6.1354430  58.1099600  58.1020240   7.2071210  58.1392410  59.1709130
   9.3516020  64.2460650  59.8997220   8.4106160  64.2610880  60.0744910
   9.6660090  63.4596610  60.3457520   2.4538840  67.9034430  52.9336530
   2.3489480  67.2886780  53.6597910   2.2863060  67.3800320  52.1499540
   5.6941570  66.9654460  53.5378520   5.1451670  67.4123760  54.1821260
   6.3160830  66.4603710  54.0616190   3.8744330  64.9482990  52.6820920
   4.3949990  64.2332010  52.3162070   4.5212730  65.5868860  52.9821430
   7.7363900  56.8086840  54.9088860   8.0166190  55.9654740  55.2648280
   6.9629630  57.0409950  55.4227610   2.2743320  58.0413850  53.3536060
   1.9265320  57.3637840  52.7738510   2.4756090  57.5803360  54.1679450
  12.6588160  69.3016090  53.0158570  11.8281120  69.3692740  53.4865800
  12.8359990  70.1920210  52.7125430  12.1144620  66.0463570  55.5192770
  12.8763530  66.6160220  55.6252460  12.1298990  65.4790770  56.2901080
  13.1204590  66.9013670  60.3634700  13.4913420  66.1180990  59.9570670
  13.7606520  67.5902770  60.1852000  12.1663790  66.3397940  52.6765290
  12.4412630  67.2476820  52.5484510  11.9774530  66.2760470  53.6127280
   8.5639400  59.3642790  53.9718920   8.9824280  59.1773770  53.1315580
   8.2575460  58.5121840  54.2821850  12.0629130  64.2766930  57.6694720
  11.6872730  63.5094860  57.2376010  11.3332250  64.6589630  58.1569650
  11.3380090  62.5024420  60.9701960  11.8617570  62.0087070  60.3392130
  11.9239510  62.6374780  61.7149530  11.5169810  62.5864290  64.4921510
  10.5672520  62.5527830  64.6066500  11.6982820  63.4964400  64.2571280
  10.8280060  61.7597770  56.9094370  11.3239180  61.5268640  57.6943250
  10.6296130  60.9209610  56.4932010  12.2567220  60.3958720  59.4432050
  12.1466500  60.2414760  60.3814320  13.0174810  59.8679660  59.2007460
  13.1457490  58.2266640  52.6838190  14.0706800  58.0947820  52.4756480
  13.1233280  58.3059460  53.6374640  13.2195980  58.9977300  55.3094900
  12.4247480  58.9322420  55.8387810  13.4239260  59.9327940  55.2980250
   1.7683000  71.0246350  65.0533640   1.5274360  71.2920910  64.1664160
   2.7085640  71.1952080  65.1084500   5.0994840  56.6251080  63.7144640
   4.3166630  57.0996580  63.9941400   4.8057770  55.7205910  63.6057820
   9.6515910  57.3274180  61.7593730  10.0924000  57.2719280  60.9115330
   9.3823500  58.2432190  61.8303910  11.5154480  56.9589420  59.7702550
  11.4542880  56.0150640  59.6233570  12.2946510  57.0669510  60.3156010
   2.9849060  59.0437830  59.2260670   2.1723570  58.6694720  58.8856550
   3.4890700  58.2882910  59.5281860   7.4874040  55.7080280  60.4643740
   8.0903410  56.2800490  60.9392260   6.7467030  56.2719720  60.2417640
  10.6308640  56.1101840  55.7384020  10.8259270  57.0085290  56.0051450
   9.8438510  55.8788920  56.2316970   6.6427410  63.9067780  41.2073420
   6.5621460  62.9922390  40.9365130   6.2291830  64.4034850  40.5013130
   4.7745450  65.6846800  43.0882690   3.9987550  65.2047240  43.3781260
   5.4258380  65.0052450  42.9138850   8.7952880  70.0906990  41.8681820
   8.3334410  69.3194230  42.1968990   9.6078430  70.1173060  42.3734270
   4.2154440  68.3603990  43.0952850   4.1462720  67.4193930  42.9341980
   4.9774300  68.4505400  43.6675420   5.2459610  61.1674370  43.3221780
   5.6224430  60.2946250  43.2095450   5.1479120  61.5033070  42.4312220
   9.0283730  58.6624810  40.2550120   9.8493350  58.1721380  40.2975600
   9.0617810  59.2522470  41.0081960  13.3183280  60.6791560  46.8193750
  12.6135450  61.0673270  46.3008860  13.5841200  61.3741850  47.4214680
   5.8879540  67.2604240  38.8817720   5.2696810  67.7253690  38.3180440
   6.4002790  67.9531720  39.2987230   9.2645210  60.6025190  43.0277660
   8.5600780  60.8910080  43.6080770   9.6257370  61.4125300  42.6677220
  10.8807990  70.2200320  45.2905140  10.1971510  70.8899430  45.2821810
  11.4202280  70.4180970  44.5250000  12.3332130  60.0479980  43.4186870
  11.3857040  60.0818960  43.5502300  12.6582120  60.8618930  43.8036230
   2.8651670  56.3477160  41.7142860   3.1726650  55.7924050  40.9978360
   1.9352370  56.4821620  41.5315850   9.7112150  68.7860670  39.0940490
   9.6008480  67.8435000  39.2189910   9.7080400  69.1476310  39.9803250
   7.8152170  66.9674290  45.3332930   8.2320960  66.7534400  44.4986390
   8.5391990  67.2247080  45.9041550   5.2532430  64.4125990  38.4502980
   4.3261710  64.3463370  38.6791450   5.4057250  65.3506120  38.3358220
   5.2401510  60.6842990  35.4470140   4.3005180  60.8456950  35.5322600
   5.5584770  61.4028670  34.9006130  11.7614270  65.3661510  45.4249170
  10.9332900  65.4354600  44.9499300  12.3564750  65.9515820  44.9565000
   9.2829720  65.9746290  38.9538230   8.6642140  65.6365840  38.3064530
   9.2654170  65.3306050  39.6617420   8.7256280  62.1530830  46.3704040
   8.3127460  62.9784540  46.6244030   7.9932230  61.5675870  46.1780400
   7.4594420  65.2133100  35.9610980   7.8987700  64.3755530  35.8148800
   8.1722840  65.8462500  36.0475120   5.5689800  70.1529170  39.9292220
   6.0085710  70.8953500  39.5147610   5.5076690  70.3955740  40.8531180
  11.0411560  56.4675910  34.2752020  10.7284220  56.5602740  35.1751090
  11.8024030  57.0456940  34.2249450  12.3988840  69.1514950  49.2876420
  12.5251900  68.9126830  48.3693600  12.4410220  68.3199490  49.7598500
   7.9386110  70.6485850  35.8453230   7.2451270  70.6463140  35.1855510
   8.6808970  70.2245170  35.4147400  12.2512850  61.2047410  50.2526160
  11.6357120  61.7127080  49.7241620  11.9309270  60.3045740  50.1952100
   4.3127170  60.0439300  47.7188350   3.8506540  60.2522320  48.5308290
   3.9105280  59.2298650  47.4159020   9.3131680  61.2648250  48.8485010
   8.4625270  60.9654000  49.1694080   9.1533470  61.5090260  47.9368830
   6.4081390  62.7650000  50.9483800   6.7334800  61.9313750  50.6086030
   7.1961720  63.2878520  51.0962130   3.1416180  56.7981480  36.9958860
   2.5170360  56.7941350  37.7212170   3.0546300  55.9312440  36.5994830
   2.0633260  57.7218110  43.9742630   2.3605590  58.6280940  43.8934650
   2.6118820  57.2336890  43.3602200   7.0469340  62.3067720  38.4424930
   6.4478230  63.0303520  38.2588550   7.5948950  62.2444500  37.6601380
   2.2570790  63.1989930  50.5094550   2.1614390  62.2584660  50.3594950
   3.1002770  63.4205000  50.1142620   5.6534210  60.9431260  40.4728210
   6.0463780  61.2603460  39.6596900   6.0151060  60.0643140  40.5872730
   3.9626380  59.6938570  51.7325070   3.2724700  59.5010770  52.3671160
   4.7058680  59.9773210  52.2649370   6.2389350  63.5337010  44.5678990
   5.5070470  64.0423820  44.9169090   5.8413690  62.7166990  44.2667770
   2.6766740  60.2091210  42.9731480   2.6802800  59.7681160  42.1236020
   3.5717860  60.5308540  43.0803300   2.7386890  61.2103290  35.9638240
   2.8599710  61.1689770  36.9124060   2.3535400  62.0727440  35.8084970
   6.7015260  58.9870690  43.9801930   6.7188000  59.4379340  44.8243780
   6.4530840  58.0876330  44.1935370  10.1286010  56.4002870  49.8188310
  10.4531780  55.6692530  50.3446290  10.1642520  56.0816510  48.9169300
   2.9774710  64.2692990  44.7196890   3.3444840  63.7951560  45.4658230
   2.7879770  65.1434560  45.0605230  10.0543850  66.5127980  43.4274340
  10.7742970  67.0083270  43.0370450   9.8525670  65.8345870  42.7828210
   5.5153790  57.9065940  37.5703730   4.7018400  57.4079110  37.4949040
   5.3215740  58.7464190  37.1540080   5.4362650  66.5837040  49.3143340
   5.3699960  65.6632710  49.0600930   4.8067790  66.6812480  50.0287980
   8.2302180  62.2785590  35.8665890   9.1181800  62.5902820  35.6917230
   8.2007270  61.4057840  35.4746470   4.2262770  68.4509280  36.5454060
   4.5678470  69.1951510  36.0497380   3.3975480  68.7640400  36.9078890
   5.3679380  69.4057610  49.0647140   5.3823920  68.4738570  48.8466050
   4.6604480  69.4917370  49.7036910  10.5016450  63.5897430  35.3345750
  10.4180170  64.0211650  34.4842190  11.2210640  64.0495780  35.7672570
  11.5790590  66.0464950  48.4115720  10.8538780  66.6393730  48.2145110
  12.1066050  66.0388490  47.6129090  11.5303700  70.4439690  38.0627880
  10.8879860  69.7895310  38.3371600  11.1434360  70.8494780  37.2868550
   7.1090180  67.7725120  41.9099570   7.4614000  67.1753250  41.2500940
   6.2252510  67.4469350  42.0807820   3.1953460  68.5322810  39.3169980
   3.8824590  69.0792020  39.6977570   2.4085880  69.0763540  39.3519590
   2.4980670  65.5368840  38.9295340   2.9543450  66.3474090  39.1555530
   2.1468880  65.2191980  39.7613830   4.8013280  71.0475180  46.1587640
   5.4455500  71.2534560  46.8361060   5.1642720  70.2863580  45.7058490
   6.0745360  69.0507530  44.8765090   6.7167590  68.3500690  44.9897260
   6.5994710  69.8305970  44.6961980   9.9201080  69.3356150  34.6004230
   9.6938660  68.6186590  35.1928870   9.5297280  69.0868590  33.7625980
   7.8482980  69.8502430  48.0801150   8.1839220  70.4369120  48.7579070
   6.9283320  69.7195140  48.3098940   9.5017330  67.2528090  36.2618390
   9.2139030  67.7140780  37.0496270  10.2969500  66.7925860  36.5302610
   3.6771560  69.8993760  51.2489210   3.3568430  69.1803000  51.7934900
   3.0029920  70.5748830  51.3225270   6.8925160  60.1319920  46.6126010
   7.2605980  59.3115130  46.9405580   6.0323360  60.1921810  47.0281660
  10.2587190  59.0876860  37.4213570   9.6300350  59.1922530  36.7071800
   9.7639110  59.3073640  38.2107450   4.7045330  70.8082450  34.8547550
   4.8057310  70.6046440  33.9249530   3.8047070  70.5540730  35.0595330
   2.2271220  61.3662810  38.8371450   1.5187370  61.8349150  39.2785060
   2.5115700  60.7084820  39.4716640   3.8527150  62.7859510  46.8363980
   4.3512400  63.2605330  47.5015830   3.9950100  61.8623030  47.0434010
   6.2586650  58.0913470  40.2767240   6.1354430  58.1099600  39.3276750
   7.2071210  58.1392410  40.3965640  11.0594010  59.0027470  47.6792370
  10.5567610  59.7432870  48.0186180  11.8750670  59.3911470  47.3629160
   9.3516020  64.2460650  41.1253730   8.4106160  64.2610880  41.3001420
   9.6660090  63.4596610  41.5714030   6.6682040  68.8026650  51.6086110
   6.0620200  68.8258250  50.8681860   6.3636150  68.0709690  52.1453360
   2.4538840  67.9034430  34.1593040   2.3489480  67.2886780  34.8854420
   2.2863060  67.3800320  33.3756050   2.6053160  66.5891230  50.1382270
   1.8398830  67.1576230  50.0536940   2.7869120  66.2967440  49.2450500
   5.6941570  66.9654460  34.7635030   5.1451670  67.4123760  35.4077770
   6.3160830  66.4603710  35.2872700   9.7476510  68.3196560  50.6957290
  10.4885980  68.6572320  50.1924750   8.9849190  68.4888620  50.1427060
   3.8744330  64.9482990  33.9077430   4.3949990  64.2332010  33.5418580
   4.5212730  65.5868860  34.2077940   8.4222170  66.3711390  49.2312500
   8.8363190  66.5256470  50.0802920   7.4873170  66.4966610  49.3938280
   8.8944340  63.7107550  51.2351650   9.4765110  62.9559870  51.1472130
   9.0706110  64.2414990  50.4583130   2.7777850  57.4277540  46.5795990
   2.3295150  57.4501800  45.7341540   2.1443050  57.0296560  47.1766290
   3.1837400  66.3231870  47.2008430   3.6025510  67.1664600  47.0284670
   2.2646030  66.4603910  46.9715210   5.5201300  64.0548050  48.5846270
   5.6397510  63.4589190  49.3241110   6.3795300  64.0917740  48.1647570
   7.8589200  64.6085240  47.1608780   7.3324420  65.1327860  46.5573920
   8.2020540  65.2412630  47.7918510   2.2870070  60.5969400  49.8422090
   2.8769760  60.2885250  50.5299910   1.4690310  60.1249150  49.9981990
   7.1063500  60.2135210  50.0755110   6.4179020  59.5516750  50.0105100
   7.8269520  59.7673480  50.5203570   7.7363900  56.8086840  36.1345370
   8.0166190  55.9654740  36.4904790   6.9629630  57.0409950  36.6484120
   2.2743320  58.0413850  34.5792570   1.9265320  57.3637840  33.9995020
   2.4756090  57.5803360  35.3935960  11.4186710  71.5598270  48.9045370
  10.8188700  71.6190830  48.1609290  11.5480610  70.6203250  49.0342220
  12.6588160  69.3016090  34.2415080  11.8281120  69.3692740  34.7122310
  12.8359990  70.1920210  33.9381940  12.1144620  66.0463570  36.7449280
  12.8763530  66.6160220  36.8508970  12.1298990  65.4790770  37.5157590
  13.1204590  66.9013670  41.5891210  13.4913420  66.1180990  41.1827180
  13.7606520  67.5902770  41.4108510  10.1038350  68.2850250  47.0021530
   9.2898190  68.7147410  47.2647320  10.5112550  68.8968660  46.3890580
  12.1663790  66.3397940  33.9021800  12.4412630  67.2476820  33.7741020
  11.9774530  66.2760470  34.8383790   8.5639400  59.3642790  35.1975430
   8.9824280  59.1773770  34.3572090   8.2575460  58.5121840  35.5078360
  12.0629130  64.2766930  38.8951230  11.6872730  63.5094860  38.4632520
  11.3332250  64.6589630  39.3826160  11.4528750  63.4238450  48.5290750
  11.2214840  63.1951200  47.6288700  11.7133300  64.3438000  48.4835640
   9.8916820  58.6494880  51.3070450  10.7687000  58.6578280  51.6904450
   9.9037660  57.9125720  50.6962800  11.3380090  62.5024420  42.1958470
  11.8617570  62.0087070  41.5648640  11.9239510  62.6374780  42.9406040
  11.5169810  62.5864290  45.7178020  10.5672520  62.5527830  45.8323010
  11.6982820  63.4964400  45.4827790  10.8280060  61.7597770  38.1350880
  11.3239180  61.5268640  38.9199760  10.6296130  60.9209610  37.7188520
  12.2567220  60.3958720  40.6688560  12.1466500  60.2414760  41.6070830
  13.0174810  59.8679660  40.4263970  10.6032940  56.3352850  47.1271560
  11.2405160  56.9486990  47.4930750  10.7507830  56.3713510  46.1820790
  13.1457490  58.2266640  33.9094700  14.0706800  58.0947820  33.7012990
  13.1233280  58.3059460  34.8631150  13.2195980  58.9977300  36.5351410
  12.4247480  58.9322420  37.0644320  13.4239260  59.9327940  36.5236760
   1.7683000  71.0246350  46.2790150   1.5274360  71.2920910  45.3920670
   2.7085640  71.1952080  46.3341010   3.9737420  57.4879040  50.0346660
   3.9126310  58.0800870  50.7842070   4.9137800  57.3805000  49.8896920
   6.6111980  57.1449100  49.6738950   7.2252390  57.4628390  49.0120030
   7.1561540  56.6597690  50.2934810   7.3520020  55.7081240  46.0008240
   6.4779860  56.0416350  45.7981170   7.2430770  55.2354420  46.8260110
   8.2592000  57.9152110  47.3849960   7.9305360  57.1003870  47.0051690
   9.2074300  57.8721920  47.2615650   5.0994840  56.6251080  44.9401150
   4.3166630  57.0996580  45.2197910   4.8057770  55.7205910  44.8314330
   9.6515910  57.3274180  42.9850240  10.0924000  57.2719280  42.1371840
   9.3823500  58.2432190  43.0560420  11.5154480  56.9589420  40.9959060
  11.4542880  56.0150640  40.8490080  12.2946510  57.0669510  41.5412520
   2.9849060  59.0437830  40.4517180   2.1723570  58.6694720  40.1113060
   3.4890700  58.2882910  40.7538370   7.4874040  55.7080280  41.6900250
   8.0903410  56.2800490  42.1648770   6.7467030  56.2719720  41.4674150
  10.6308640  56.1101840  36.9640530  10.8259270  57.0085290  37.2307960
   9.8438510  55.8788920  37.4573480   7.7369260  55.8875310  52.0695190
   7.6234710  56.2069920  52.9646710   8.5539000  56.2887820  51.7732470
   6.6427410  63.9067780  22.4329930   6.5621460  62.9922390  22.1621640
   6.2291830  64.4034850  21.7269640   4.7745450  65.6846800  24.3139200
   3.9987550  65.2047240  24.6037770   5.4258380  65.0052450  24.1395360
   8.7952880  70.0906990  23.0938330   8.3334410  69.3194230  23.4225500
   9.6078430  70.1173060  23.5990780   4.2154440  68.3603990  24.3209360
   4.1462720  67.4193930  24.1598490   4.9774300  68.4505400  24.8931930
   5.2459610  61.1674370  24.5478290   5.6224430  60.2946250  24.4351960
   5.1479120  61.5033070  23.6568730   9.0283730  58.6624810  21.4806630
   9.8493350  58.1721380  21.5232110   9.0617810  59.2522470  22.2338470
  13.3183280  60.6791560  28.0450260  12.6135450  61.0673270  27.5265370
  13.5841200  61.3741850  28.6471190   5.8879540  67.2604240  20.1074230
   5.2696810  67.7253690  19.5436950   6.4002790  67.9531720  20.5243740
   9.2645210  60.6025190  24.2534170   8.5600780  60.8910080  24.8337280
   9.6257370  61.4125300  23.8933730  10.8807990  70.2200320  26.5161650
  10.1971510  70.8899430  26.5078320  11.4202280  70.4180970  25.7506510
  12.3332130  60.0479980  24.6443380  11.3857040  60.0818960  24.7758810
  12.6582120  60.8618930  25.0292740   2.8651670  56.3477160  22.9399370
   3.1726650  55.7924050  22.2234870   1.9352370  56.4821620  22.7572360
   9.7112150  68.7860670  20.3197000   9.6008480  67.8435000  20.4446420
   9.7080400  69.1476310  21.2059760   7.8152170  66.9674290  26.5589440
   8.2320960  66.7534400  25.7242900   8.5391990  67.2247080  27.1298060
   5.2532430  64.4125990  19.6759490   4.3261710  64.3463370  19.9047960
   5.4057250  65.3506120  19.5614730   5.2401510  60.6842990  16.6726650
   4.3005180  60.8456950  16.7579110   5.5584770  61.4028670  16.1262640
  11.7614270  65.3661510  26.6505680  10.9332900  65.4354600  26.1755810
  12.3564750  65.9515820  26.1821510   9.2829720  65.9746290  20.1794740
   8.6642140  65.6365840  19.5321040   9.2654170  65.3306050  20.8873930
   8.7256280  62.1530830  27.5960550   8.3127460  62.9784540  27.8500540
   7.9932230  61.5675870  27.4036910   7.4594420  65.2133100  17.1867490
   7.8987700  64.3755530  17.0405310   8.1722840  65.8462500  17.2731630
   5.5689800  70.1529170  21.1548730   6.0085710  70.8953500  20.7404120
   5.5076690  70.3955740  22.0787690  11.0411560  56.4675910  15.5008530
  10.7284220  56.5602740  16.4007600  11.8024030  57.0456940  15.4505960
  12.3988840  69.1514950  30.5132930  12.5251900  68.9126830  29.5950110
  12.4410220  68.3199490  30.9855010   7.9386110  70.6485850  17.0709740
   7.2451270  70.6463140  16.4112020   8.6808970  70.2245170  16.6403910
  12.2512850  61.2047410  31.4782670  11.6357120  61.7127080  30.9498130
  11.9309270  60.3045740  31.4208610   4.3127170  60.0439300  28.9444860
   3.8506540  60.2522320  29.7564800   3.9105280  59.2298650  28.6415530
   9.3131680  61.2648250  30.0741520   8.4625270  60.9654000  30.3950590
   9.1533470  61.5090260  29.1625340   6.4081390  62.7650000  32.1740310
   6.7334800  61.9313750  31.8342540   7.1961720  63.2878520  32.3218640
   3.1416180  56.7981480  18.2215370   2.5170360  56.7941350  18.9468680
   3.0546300  55.9312440  17.8251340   2.0633260  57.7218110  25.1999140
   2.3605590  58.6280940  25.1191160   2.6118820  57.2336890  24.5858710
   7.0469340  62.3067720  19.6681440   6.4478230  63.0303520  19.4845060
   7.5948950  62.2444500  18.8857890   2.2570790  63.1989930  31.7351060
   2.1614390  62.2584660  31.5851460   3.1002770  63.4205000  31.3399130
   5.6534210  60.9431260  21.6984720   6.0463780  61.2603460  20.8853410
   6.0151060  60.0643140  21.8129240   3.9626380  59.6938570  32.9581580
   3.2724700  59.5010770  33.5927670   4.7058680  59.9773210  33.4905880
   6.2389350  63.5337010  25.7935500   5.5070470  64.0423820  26.1425600
   5.8413690  62.7166990  25.4924280   2.6766740  60.2091210  24.1987990
   2.6802800  59.7681160  23.3492530   3.5717860  60.5308540  24.3059810
   2.7386890  61.2103290  17.1894750   2.8599710  61.1689770  18.1380570
   2.3535400  62.0727440  17.0341480   6.7015260  58.9870690  25.2058440
   6.7188000  59.4379340  26.0500290   6.4530840  58.0876330  25.4191880
  10.1286010  56.4002870  31.0444820  10.4531780  55.6692530  31.5702800
  10.1642520  56.0816510  30.1425810   2.9774710  64.2692990  25.9453400
   3.3444840  63.7951560  26.6914740   2.7879770  65.1434560  26.2861740
  10.0543850  66.5127980  24.6530850  10.7742970  67.0083270  24.2626960
   9.8525670  65.8345870  24.0084720   5.5153790  57.9065940  18.7960240
   4.7018400  57.4079110  18.7205550   5.3215740  58.7464190  18.3796590
   5.4362650  66.5837040  30.5399850   5.3699960  65.6632710  30.2857440
   4.8067790  66.6812480  31.2544490   8.2302180  62.2785590  17.0922400
   9.1181800  62.5902820  16.9173740   8.2007270  61.4057840  16.7002980
   4.2262770  68.4509280  17.7710570   4.5678470  69.1951510  17.2753890
   3.3975480  68.7640400  18.1335400   5.3679380  69.4057610  30.2903650
   5.3823920  68.4738570  30.0722560   4.6604480  69.4917370  30.9293420
  10.5016450  63.5897430  16.5602260  10.4180170  64.0211650  15.7098700
  11.2210640  64.0495780  16.9929080  11.5790590  66.0464950  29.6372230
  10.8538780  66.6393730  29.4401620  12.1066050  66.0388490  28.8385600
  11.5303700  70.4439690  19.2884390  10.8879860  69.7895310  19.5628110
  11.1434360  70.8494780  18.5125060   7.1090180  67.7725120  23.1356080
   7.4614000  67.1753250  22.4757450   6.2252510  67.4469350  23.3064330
   3.1953460  68.5322810  20.5426490   3.8824590  69.0792020  20.9234080
   2.4085880  69.0763540  20.5776100   2.4980670  65.5368840  20.1551850
   2.9543450  66.3474090  20.3812040   2.1468880  65.2191980  20.9870340
   4.8013280  71.0475180  27.3844150   5.4455500  71.2534560  28.0617570
   5.1642720  70.2863580  26.9315000   6.0745360  69.0507530  26.1021600
   6.7167590  68.3500690  26.2153770   6.5994710  69.8305970  25.9218490
   9.9201080  69.3356150  15.8260740   9.6938660  68.6186590  16.4185380
   9.5297280  69.0868590  14.9882490   7.8482980  69.8502430  29.3057660
   8.1839220  70.4369120  29.9835580   6.9283320  69.7195140  29.5355450
   9.5017330  67.2528090  17.4874900   9.2139030  67.7140780  18.2752780
  10.2969500  66.7925860  17.7559120   3.6771560  69.8993760  32.4745720
   3.3568430  69.1803000  33.0191410   3.0029920  70.5748830  32.5481780
   6.8925160  60.1319920  27.8382520   7.2605980  59.3115130  28.1662090
   6.0323360  60.1921810  28.2538170  10.2587190  59.0876860  18.6470080
   9.6300350  59.1922530  17.9328310   9.7639110  59.3073640  19.4363960
   4.7045330  70.8082450  16.0804060   4.8057310  70.6046440  15.1506040
   3.8047070  70.5540730  16.2851840   2.2271220  61.3662810  20.0627960
   1.5187370  61.8349150  20.5041570   2.5115700  60.7084820  20.6973150
   3.8527150  62.7859510  28.0620490   4.3512400  63.2605330  28.7272340
   3.9950100  61.8623030  28.2690520   6.2586650  58.0913470  21.5023750
   6.1354430  58.1099600  20.5533260   7.2071210  58.1392410  21.6222150
  11.0594010  59.0027470  28.9048880  10.5567610  59.7432870  29.2442690
  11.8750670  59.3911470  28.5885670   9.3516020  64.2460650  22.3510240
   8.4106160  64.2610880  22.5257930   9.6660090  63.4596610  22.7970540
   6.6682040  68.8026650  32.8342620   6.0620200  68.8258250  32.0938370
   6.3636150  68.0709690  33.3709870   2.4538840  67.9034430  15.3849550
   2.3489480  67.2886780  16.1110930   2.2863060  67.3800320  14.6012560
   2.6053160  66.5891230  31.3638780   1.8398830  67.1576230  31.2793450
   2.7869120  66.2967440  30.4707010   5.6941570  66.9654460  15.9891540
   5.1451670  67.4123760  16.6334280   6.3160830  66.4603710  16.5129210
   9.7476510  68.3196560  31.9213800  10.4885980  68.6572320  31.4181260
   8.9849190  68.4888620  31.3683570   3.8744330  64.9482990  15.1333940
   4.3949990  64.2332010  14.7675090   4.5212730  65.5868860  15.4334450
   8.4222170  66.3711390  30.4569010   8.8363190  66.5256470  31.3059430
   7.4873170  66.4966610  30.6194790   8.8944340  63.7107550  32.4608160
   9.4765110  62.9559870  32.3728640   9.0706110  64.2414990  31.6839640
   2.7777850  57.4277540  27.8052500   2.3295150  57.4501800  26.9598050
   2.1443050  57.0296560  28.4022800   3.1837400  66.3231870  28.4264940
   3.6025510  67.1664600  28.2541180   2.2646030  66.4603910  28.1971720
   5.5201300  64.0548050  29.8102780   5.6397510  63.4589190  30.5497620
   6.3795300  64.0917740  29.3904080   7.8589200  64.6085240  28.3865290
   7.3324420  65.1327860  27.7830430   8.2020540  65.2412630  29.0175020
   2.2870070  60.5969400  31.0678600   2.8769760  60.2885250  31.7556420
   1.4690310  60.1249150  31.2238500   7.1063500  60.2135210  31.3011620
   6.4179020  59.5516750  31.2361610   7.8269520  59.7673480  31.7460080
   7.7363900  56.8086840  17.3601880   8.0166190  55.9654740  17.7161300
   6.9629630  57.0409950  17.8740630   2.2743320  58.0413850  15.8049080
   1.9265320  57.3637840  15.2251530   2.4756090  57.5803360  16.6192470
  11.4186710  71.5598270  30.1301880  10.8188700  71.6190830  29.3865800
  11.5480610  70.6203250  30.2598730  12.6588160  69.3016090  15.4671590
  11.8281120  69.3692740  15.9378820  12.8359990  70.1920210  15.1638450
  12.1144620  66.0463570  17.9705790  12.8763530  66.6160220  18.0765480
  12.1298990  65.4790770  18.7414100  13.1204590  66.9013670  22.8147720
  13.4913420  66.1180990  22.4083690  13.7606520  67.5902770  22.6365020
  10.1038350  68.2850250  28.2278040   9.2898190  68.7147410  28.4903830
  10.5112550  68.8968660  27.6147090  12.1663790  66.3397940  15.1278310
  12.4412630  67.2476820  14.9997530  11.9774530  66.2760470  16.0640300
   8.5639400  59.3642790  16.4231940   8.9824280  59.1773770  15.5828600
   8.2575460  58.5121840  16.7334870  12.0629130  64.2766930  20.1207740
  11.6872730  63.5094860  19.6889030  11.3332250  64.6589630  20.6082670
  11.4528750  63.4238450  29.7547260  11.2214840  63.1951200  28.8545210
  11.7133300  64.3438000  29.7092150   9.8916820  58.6494880  32.5326960
  10.7687000  58.6578280  32.9160960   9.9037660  57.9125720  31.9219310
  11.3380090  62.5024420  23.4214980  11.8617570  62.0087070  22.7905150
  11.9239510  62.6374780  24.1662550  11.5169810  62.5864290  26.9434530
  10.5672520  62.5527830  27.0579520  11.6982820  63.4964400  26.7084300
  10.8280060  61.7597770  19.3607390  11.3239180  61.5268640  20.1456270
  10.6296130  60.9209610  18.9445030  12.2567220  60.3958720  21.8945070
  12.1466500  60.2414760  22.8327340  13.0174810  59.8679660  21.6520480
  10.6032940  56.3352850  28.3528070  11.2405160  56.9486990  28.7187260
  10.7507830  56.3713510  27.4077300  13.1457490  58.2266640  15.1351210
  14.0706800  58.0947820  14.9269500  13.1233280  58.3059460  16.0887660
  13.2195980  58.9977300  17.7607920  12.4247480  58.9322420  18.2900830
  13.4239260  59.9327940  17.7493270   1.7683000  71.0246350  27.5046660
   1.5274360  71.2920910  26.6177180   2.7085640  71.1952080  27.5597520
   3.9737420  57.4879040  31.2603170   3.9126310  58.0800870  32.0098580
   4.9137800  57.3805000  31.1153430   6.6111980  57.1449100  30.8995460
   7.2252390  57.4628390  30.2376540   7.1561540  56.6597690  31.5191320
   7.3520020  55.7081240  27.2264750   6.4779860  56.0416350  27.0237680
   7.2430770  55.2354420  28.0516620   8.2592000  57.9152110  28.6106470
   7.9305360  57.1003870  28.2308200   9.2074300  57.8721920  28.4872160
   5.0994840  56.6251080  26.1657660   4.3166630  57.0996580  26.4454420
   4.8057770  55.7205910  26.0570840   9.6515910  57.3274180  24.2106750
  10.0924000  57.2719280  23.3628350   9.3823500  58.2432190  24.2816930
  11.5154480  56.9589420  22.2215570  11.4542880  56.0150640  22.0746590
  12.2946510  57.0669510  22.7669030   2.9849060  59.0437830  21.6773690
   2.1723570  58.6694720  21.3369570   3.4890700  58.2882910  21.9794880
   7.4874040  55.7080280  22.9156760   8.0903410  56.2800490  23.3905280
   6.7467030  56.2719720  22.6930660  10.6308640  56.1101840  18.1897040
  10.8259270  57.0085290  18.4564470   9.8438510  55.8788920  18.6829990
   7.7369260  55.8875310  33.2951700   7.6234710  56.2069920  34.1903220
   8.5539000  56.2887820  32.9988980   6.6427410  63.9067780   3.6586440
   6.5621460  62.9922390   3.3878150   6.2291830  64.4034850   2.9526150
   4.7745450  65.6846800   5.5395710   3.9987550  65.2047240   5.8294280
   5.4258380  65.0052450   5.3651870   8.7952880  70.0906990   4.3194840
   8.3334410  69.3194230   4.6482010   9.6078430  70.1173060   4.8247290
   4.2154440  68.3603990   5.5465870   4.1462720  67.4193930   5.3855000
   4.9774300  68.4505400   6.1188440   5.2459610  61.1674370   5.7734800
   5.6224430  60.2946250   5.6608470   5.1479120  61.5033070   4.8825240
   9.0283730  58.6624810   2.7063140   9.8493350  58.1721380   2.7488620
   9.0617810  59.2522470   3.4594980  13.3183280  60.6791560   9.2706770
  12.6135450  61.0673270   8.7521880  13.5841200  61.3741850   9.8727700
   9.2645210  60.6025190   5.4790680   8.5600780  60.8910080   6.0593790
   9.6257370  61.4125300   5.1190240  10.8807990  70.2200320   7.7418160
  10.1971510  70.8899430   7.7334830  11.4202280  70.4180970   6.9763020
  12.3332130  60.0479980   5.8699890  11.3857040  60.0818960   6.0015320
  12.6582120  60.8618930   6.2549250   2.8651670  56.3477160   4.1655880
   3.1726650  55.7924050   3.4491380   1.9352370  56.4821620   3.9828870
   7.8152170  66.9674290   7.7845950   8.2320960  66.7534400   6.9499410
   8.5391990  67.2247080   8.3554570  11.7614270  65.3661510   7.8762190
  10.9332900  65.4354600   7.4012320  12.3564750  65.9515820   7.4078020
   8.7256280  62.1530830   8.8217060   8.3127460  62.9784540   9.0757050
   7.9932230  61.5675870   8.6293420   5.5689800  70.1529170   2.3805240
   6.0085710  70.8953500   1.9660630   5.5076690  70.3955740   3.3044200
  12.3988840  69.1514950  11.7389440  12.5251900  68.9126830  10.8206620
  12.4410220  68.3199490  12.2111520  12.2512850  61.2047410  12.7039180
  11.6357120  61.7127080  12.1754640  11.9309270  60.3045740  12.6465120
   4.3127170  60.0439300  10.1701370   3.8506540  60.2522320  10.9821310
   3.9105280  59.2298650   9.8672040   9.3131680  61.2648250  11.2998030
   8.4625270  60.9654000  11.6207100   9.1533470  61.5090260  10.3881850
   6.4081390  62.7650000  13.3996820   6.7334800  61.9313750  13.0599050
   7.1961720  63.2878520  13.5475150   2.0633260  57.7218110   6.4255650
   2.3605590  58.6280940   6.3447670   2.6118820  57.2336890   5.8115220
   2.2570790  63.1989930  12.9607570   2.1614390  62.2584660  12.8107970
   3.1002770  63.4205000  12.5655640   5.6534210  60.9431260   2.9241230
   6.0463780  61.2603460   2.1109920   6.0151060  60.0643140   3.0385750
   3.9626380  59.6938570  14.1838090   3.2724700  59.5010770  14.8184180
   4.7058680  59.9773210  14.7162390   6.2389350  63.5337010   7.0192010
   5.5070470  64.0423820   7.3682110   5.8413690  62.7166990   6.7180790
   2.6766740  60.2091210   5.4244500   2.6802800  59.7681160   4.5749040
   3.5717860  60.5308540   5.5316320   6.7015260  58.9870690   6.4314950
   6.7188000  59.4379340   7.2756800   6.4530840  58.0876330   6.6448390
  10.1286010  56.4002870  12.2701330  10.4531780  55.6692530  12.7959310
  10.1642520  56.0816510  11.3682320   2.9774710  64.2692990   7.1709910
   3.3444840  63.7951560   7.9171250   2.7879770  65.1434560   7.5118250
  10.0543850  66.5127980   5.8787360  10.7742970  67.0083270   5.4883470
   9.8525670  65.8345870   5.2341230   5.4362650  66.5837040  11.7656360
   5.3699960  65.6632710  11.5113950   4.8067790  66.6812480  12.4801000
   5.3679380  69.4057610  11.5160160   5.3823920  68.4738570  11.2979070
   4.6604480  69.4917370  12.1549930  11.5790590  66.0464950  10.8628740
  10.8538780  66.6393730  10.6658130  12.1066050  66.0388490  10.0642110
   7.1090180  67.7725120   4.3612590   7.4614000  67.1753250   3.7013960
   6.2252510  67.4469350   4.5320840   3.1953460  68.5322810   1.7683000
   3.8824590  69.0792020   2.1490590   2.4085880  69.0763540   1.8032610
   4.8013280  71.0475180   8.6100660   5.4455500  71.2534560   9.2874080
   5.1642720  70.2863580   8.1571510   6.0745360  69.0507530   7.3278110
   6.7167590  68.3500690   7.4410280   6.5994710  69.8305970   7.1475000
   7.8482980  69.8502430  10.5314170   8.1839220  70.4369120  11.2092090
   6.9283320  69.7195140  10.7611960   3.6771560  69.8993760  13.7002230
   3.3568430  69.1803000  14.2447920   3.0029920  70.5748830  13.7738290
   6.8925160  60.1319920   9.0639030   7.2605980  59.3115130   9.3918600
   6.0323360  60.1921810   9.4794680   3.8527150  62.7859510   9.2877000
   4.3512400  63.2605330   9.9528850   3.9950100  61.8623030   9.4947030
   6.2586650  58.0913470   2.7280260   6.1354430  58.1099600   1.7789770
   7.2071210  58.1392410   2.8478660  11.0594010  59.0027470  10.1305390
  10.5567610  59.7432870  10.4699200  11.8750670  59.3911470   9.8142180
   9.3516020  64.2460650   3.5766750   8.4106160  64.2610880   3.7514440
   9.6660090  63.4596610   4.0227050   6.6682040  68.8026650  14.0599130
   6.0620200  68.8258250  13.3194880   6.3636150  68.0709690  14.5966380
   2.6053160  66.5891230  12.5895290   1.8398830  67.1576230  12.5049960
   2.7869120  66.2967440  11.6963520   9.7476510  68.3196560  13.1470310
  10.4885980  68.6572320  12.6437770   8.9849190  68.4888620  12.5940080
   8.4222170  66.3711390  11.6825520   8.8363190  66.5256470  12.5315940
   7.4873170  66.4966610  11.8451300   8.8944340  63.7107550  13.6864670
   9.4765110  62.9559870  13.5985150   9.0706110  64.2414990  12.9096150
   2.7777850  57.4277540   9.0309010   2.3295150  57.4501800   8.1854560
   2.1443050  57.0296560   9.6279310   3.1837400  66.3231870   9.6521450
   3.6025510  67.1664600   9.4797690   2.2646030  66.4603910   9.4228230
   5.5201300  64.0548050  11.0359290   5.6397510  63.4589190  11.7754130
   6.3795300  64.0917740  10.6160590   7.8589200  64.6085240   9.6121800
   7.3324420  65.1327860   9.0086940   8.2020540  65.2412630  10.2431530
   2.2870070  60.5969400  12.2935110   2.8769760  60.2885250  12.9812930
   1.4690310  60.1249150  12.4495010   7.1063500  60.2135210  12.5268130
   6.4179020  59.5516750  12.4618120   7.8269520  59.7673480  12.9716590
  11.4186710  71.5598270  11.3558390  10.8188700  71.6190830  10.6122310
  11.5480610  70.6203250  11.4855240  13.1204590  66.9013670   4.0404230
  13.4913420  66.1180990   3.6340200  13.7606520  67.5902770   3.8621530
  10.1038350  68.2850250   9.4534550   9.2898190  68.7147410   9.7160340
  10.5112550  68.8968660   8.8403600  11.4528750  63.4238450  10.9803770
  11.2214840  63.1951200  10.0801720  11.7133300  64.3438000  10.9348660
   9.8916820  58.6494880  13.7583470  10.7687000  58.6578280  14.1417470
   9.9037660  57.9125720  13.1475820  11.3380090  62.5024420   4.6471490
  11.8617570  62.0087070   4.0161660  11.9239510  62.6374780   5.3919060
  11.5169810  62.5864290   8.1691040  10.5672520  62.5527830   8.2836030
  11.6982820  63.4964400   7.9340810  12.2567220  60.3958720   3.1201580
  12.1466500  60.2414760   4.0583850  13.0174810  59.8679660   2.8776990
  10.6032940  56.3352850   9.5784580  11.2405160  56.9486990   9.9443770
  10.7507830  56.3713510   8.6333810   1.7683000  71.0246350   8.7303170
   1.5274360  71.2920910   7.8433690   2.7085640  71.1952080   8.7854030
   3.9737420  57.4879040  12.4859680   3.9126310  58.0800870  13.2355090
   4.9137800  57.3805000  12.3409940   6.6111980  57.1449100  12.1251970
   7.2252390  57.4628390  11.4633050   7.1561540  56.6597690  12.7447830
   7.3520020  55.7081240   8.4521260   6.4779860  56.0416350   8.2494190
   7.2430770  55.2354420   9.2773130   8.2592000  57.9152110   9.8362980
   7.9305360  57.1003870   9.4564710   9.2074300  57.8721920   9.7128670
   5.0994840  56.6251080   7.3914170   4.3166630  57.0996580   7.6710930
   4.8057770  55.7205910   7.2827350   9.6515910  57.3274180   5.4363260
  10.0924000  57.2719280   4.5884860   9.3823500  58.2432190   5.5073440
  11.5154480  56.9589420   3.4472080  11.4542880  56.0150640   3.3003100
  12.2946510  57.0669510   3.9925540   2.9849060  59.0437830   2.9030200
   2.1723570  58.6694720   2.5626080   3.4890700  58.2882910   3.2051390
   7.4874040  55.7080280   4.1413270   8.0903410  56.2800490   4.6161790
   6.7467030  56.2719720   3.9187170   7.7369260  55.8875310  14.5208210
   7.6234710  56.2069920  15.4159730   8.5539000  56.2887820  14.2245490
   6.6427410  45.1324290  59.9816910   6.5621460  44.2178900  59.7108620
   6.2291830  45.6291360  59.2756620   4.7745450  46.9103310  61.8626180
   3.9987550  46.4303750  62.1524750   5.4258380  46.2308960  61.6882340
   8.7952880  51.3163500  60.6425310   8.3334410  50.5450740  60.9712480
   9.6078430  51.3429570  61.1477760   5.0216190  53.6021510  60.2629300
   4.4027630  54.0579010  59.6923740   5.8767970  53.7572970  59.8619000
   4.2154440  49.5860500  61.8696340   4.1462720  48.6450440  61.7085470
   4.9774300  49.6761910  62.4418910   5.2459610  42.3930880  62.0965270
   5.6224430  41.5202760  61.9838940   5.1479120  42.7289580  61.2055710
   9.0283730  39.8881320  59.0293610   9.8493350  39.3977890  59.0719090
   9.0617810  40.4778980  59.7825450   5.8879540  48.4860750  57.6561210
   5.2696810  48.9510200  57.0923930   6.4002790  49.1788230  58.0730720
   9.2645210  41.8281700  61.8021150   8.5600780  42.1166590  62.3824260
   9.6257370  42.6381810  61.4420710  10.8807990  51.4456830  64.0648630
  10.1971510  52.1155940  64.0565300  11.4202280  51.6437480  63.2993490
  12.3332130  41.2736490  62.1930360  11.3857040  41.3075470  62.3245790
  12.6582120  42.0875440  62.5779720   2.8651670  37.5733670  60.4886350
   3.1726650  37.0180560  59.7721850   1.9352370  37.7078130  60.3059340
   8.4166730  53.2900960  62.7793810   8.4293890  52.8863250  61.9116070
   7.8641950  54.0648250  62.6755240   9.7112150  50.0117180  57.8683980
   9.6008480  49.0691510  57.9933400   9.7080400  50.3732820  58.7546740
   7.8152170  48.1930800  64.1076420   8.2320960  47.9790910  63.2729880
   8.5391990  48.4503590  64.6785040   5.2532430  45.6382500  57.2246470
   4.3261710  45.5719880  57.4534940   5.4057250  46.5762630  57.1101710
   5.2401510  41.9099500  54.2213630   4.3005180  42.0713460  54.3066090
   5.5584770  42.6285180  53.6749620  11.7614270  46.5918020  64.1992660
  10.9332900  46.6611110  63.7242790  12.3564750  47.1772330  63.7308490
   9.2829720  47.2002800  57.7281720   8.6642140  46.8622350  57.0808020
   9.2654170  46.5562560  58.4360910   7.4594420  46.4389610  54.7354470
   7.8987700  45.6012040  54.5892290   8.1722840  47.0719010  54.8218610
   5.5689800  51.3785680  58.7035710   6.0085710  52.1210010  58.2891100
   5.5076690  51.6212250  59.6274670  11.0411560  37.6932420  53.0495510
  10.7284220  37.7859250  53.9494580  11.8024030  38.2713450  52.9992940
   8.2359980  54.3654800  56.0598720   8.0761120  54.0757740  56.9580550
   8.0706690  53.5894930  55.5243950   7.9386110  51.8742360  54.6196720
   7.2451270  51.8719650  53.9599000   8.6808970  51.4501680  54.1890890
   7.5036040  53.5005070  58.6945210   7.9592990  52.7194450  59.0083830
   7.8428560  54.2111890  59.2386390   3.1416180  38.0237990  55.7702350
   2.5170360  38.0197860  56.4955660   3.0546300  37.1568950  55.3738320
   2.0633260  38.9474620  62.7486120   2.3605590  39.8537450  62.6678140
   2.6118820  38.4593400  62.1345690   7.0469340  43.5324230  57.2168420
   6.4478230  44.2560030  57.0332040   7.5948950  43.4701010  56.4344870
   5.6534210  42.1687770  59.2471700   6.0463780  42.4859970  58.4340390
   6.0151060  41.2899650  59.3616220   6.2389350  44.7593520  63.3422480
   5.5070470  45.2680330  63.6912580   5.8413690  43.9423500  63.0411260
   2.6766740  41.4347720  61.7474970   2.6802800  40.9937670  60.8979510
   3.5717860  41.7565050  61.8546790   2.7386890  42.4359800  54.7381730
   2.8599710  42.3946280  55.6867550   2.3535400  43.2983950  54.5828460
   6.7015260  40.2127200  62.7545420   6.7188000  40.6635850  63.5987270
   6.4530840  39.3132840  62.9678860   2.9774710  45.4949500  63.4940380
   3.3444840  45.0208070  64.2401720   2.7879770  46.3691070  63.8348720
  10.0543850  47.7384490  62.2017830  10.7742970  48.2339780  61.8113940
   9.8525670  47.0602380  61.5571700   5.5153790  39.1322450  56.3447220
   4.7018400  38.6335620  56.2692530   5.3215740  39.9720700  55.9283570
   8.2302180  43.5042100  54.6409380   9.1181800  43.8159330  54.4660720
   8.2007270  42.6314350  54.2489960   4.2262770  49.6765790  55.3197550
   4.5678470  50.4208020  54.8240870   3.3975480  49.9896910  55.6822380
  10.5016450  44.8153940  54.1089240  10.4180170  45.2468160  53.2585680
  11.2210640  45.2752290  54.5416060  11.5303700  51.6696200  56.8371370
  10.8879860  51.0151820  57.1115090  11.1434360  52.0751290  56.0612040
   7.1090180  48.9981630  60.6843060   7.4614000  48.4009760  60.0244430
   6.2252510  48.6725860  60.8551310   3.1953460  49.7579320  58.0913470
   3.8824590  50.3048530  58.4721060   2.4085880  50.3020050  58.1263080
   2.4980670  46.7625350  57.7038830   2.9543450  47.5730600  57.9299020
   2.1468880  46.4448490  58.5357320   6.0745360  50.2764040  63.6508580
   6.7167590  49.5757200  63.7640750   6.5994710  51.0562480  63.4705470
   9.9201080  50.5612660  53.3747720   9.6938660  49.8443100  53.9672360
   9.5297280  50.3125100  52.5369470   9.5017330  48.4784600  55.0361880
   9.2139030  48.9397290  55.8239760  10.2969500  48.0182370  55.3046100
  10.2587190  40.3133370  56.1957060   9.6300350  40.4179040  55.4815290
   9.7639110  40.5330150  56.9850940   4.7045330  52.0338960  53.6291040
   4.8057310  51.8302950  52.6993020   3.8047070  51.7797240  53.8338820
   2.2271220  42.5919320  57.6114940   1.5187370  43.0605660  58.0528550
   2.5115700  41.9341330  58.2460130   6.2586650  39.3169980  59.0510730
   6.1354430  39.3356110  58.1020240   7.2071210  39.3648920  59.1709130
   3.3463440  54.5525280  58.3238710   3.6004940  54.5146670  57.4018080
   2.3975920  54.4258610  58.3166960   9.3516020  45.4717160  59.8997220
   8.4106160  45.4867390  60.0744910   9.6660090  44.6853120  60.3457520
  11.3541600  52.6426010  61.5751480  11.4789020  53.4657180  62.0475290
  12.2207160  52.4316740  61.2275630   1.9361440  53.9087530  53.0694180
   2.7290050  54.1976360  52.6175970   1.4165790  53.4779700  52.3906660
  10.9891610  53.1357660  54.4930920  10.7033120  52.7222800  53.6785100
  10.7911160  54.0645370  54.3731440   2.4538840  49.1290940  52.9336530
   2.3489480  48.5143290  53.6597910   2.2863060  48.6056830  52.1499540
   5.6941570  48.1910970  53.5378520   5.1451670  48.6380270  54.1821260
   6.3160830  47.6860220  54.0616190   3.8744330  46.1739500  52.6820920
   4.3949990  45.4588520  52.3162070   4.5212730  46.8125370  52.9821430
   7.7363900  38.0343350  54.9088860   8.0166190  37.1911250  55.2648280
   6.9629630  38.2666460  55.4227610   2.2743320  39.2670360  53.3536060
   1.9265320  38.5894350  52.7738510   2.4756090  38.8059870  54.1679450
   4.4392360  54.2551110  54.9722660   5.3343150  54.5936080  54.9941420
   4.4709990  53.5330520  54.3446940  12.6588160  50.5272600  53.0158570
  11.8281120  50.5949250  53.4865800  12.8359990  51.4176720  52.7125430
  12.1144620  47.2720080  55.5192770  12.8763530  47.8416730  55.6252460
  12.1298990  46.7047280  56.2901080  13.1204590  48.1270180  60.3634700
  13.4913420  47.3437500  59.9570670  13.7606520  48.8159280  60.1852000
  12.1663790  47.5654450  52.6765290  12.4412630  48.4733330  52.5484510
  11.9774530  47.5016980  53.6127280   8.5639400  40.5899300  53.9718920
   8.9824280  40.4030280  53.1315580   8.2575460  39.7378350  54.2821850
  12.0629130  45.5023440  57.6694720  11.6872730  44.7351370  57.2376010
  11.3332250  45.8846140  58.1569650  11.3380090  43.7280930  60.9701960
  11.8617570  43.2343580  60.3392130  11.9239510  43.8631290  61.7149530
  11.5169810  43.8120800  64.4921510  10.5672520  43.7784340  64.6066500
  11.6982820  44.7220910  64.2571280  10.8280060  42.9854280  56.9094370
  11.3239180  42.7525150  57.6943250  10.6296130  42.1466120  56.4932010
  12.2567220  41.6215230  59.4432050  12.1466500  41.4671270  60.3814320
  13.0174810  41.0936170  59.2007460  13.1457490  39.4523150  52.6838190
  14.0706800  39.3204330  52.4756480  13.1233280  39.5315970  53.6374640
  13.2195980  40.2233810  55.3094900  12.4247480  40.1578930  55.8387810
  13.4239260  41.1584450  55.2980250  10.1614400  54.2625360  59.3033290
  10.7573470  53.9409930  58.6267710  10.4192550  53.7897180  60.0946560
   1.7683000  52.2502860  65.0533640   1.5274360  52.5177420  64.1664160
   2.7085640  52.4208590  65.1084500  10.7126610  54.9120660  63.1331020
  10.2529580  55.6636470  62.7589040  10.0839070  54.1927130  63.0745820
   3.8817830  54.1117390  63.1348130   4.1695640  53.8571690  62.2581140
   4.3941050  53.5594750  63.7253700   5.0994840  37.8507590  63.7144640
   4.3166630  38.3253090  63.9941400   4.8057770  36.9462420  63.6057820
   9.6515910  38.5530690  61.7593730  10.0924000  38.4975790  60.9115330
   9.3823500  39.4688700  61.8303910  11.5154480  38.1845930  59.7702550
  11.4542880  37.2407150  59.6233570  12.2946510  38.2926020  60.3156010
   2.9849060  40.2694340  59.2260670   2.1723570  39.8951230  58.8856550
   3.4890700  39.5139420  59.5281860   7.4874040  36.9336790  60.4643740
   8.0903410  37.5057000  60.9392260   6.7467030  37.4976230  60.2417640
  10.6308640  37.3358350  55.7384020  10.8259270  38.2341800  56.0051450
   9.8438510  37.1045430  56.2316970  12.1835250  54.5759060  57.4990580
  12.3587440  53.8896800  56.8551500  11.4856820  55.1006110  57.1067250
   6.6427410  45.1324290  41.2073420   6.5621460  44.2178900  40.9365130
   6.2291830  45.6291360  40.5013130   4.7745450  46.9103310  43.0882690
   3.9987550  46.4303750  43.3781260   5.4258380  46.2308960  42.9138850
   8.7952880  51.3163500  41.8681820   8.3334410  50.5450740  42.1968990
   9.6078430  51.3429570  42.3734270   5.0216190  53.6021510  41.4885810
   4.4027630  54.0579010  40.9180250   5.8767970  53.7572970  41.0875510
   4.2154440  49.5860500  43.0952850   4.1462720  48.6450440  42.9341980
   4.9774300  49.6761910  43.6675420   5.2459610  42.3930880  43.3221780
   5.6224430  41.5202760  43.2095450   5.1479120  42.7289580  42.4312220
   9.0283730  39.8881320  40.2550120   9.8493350  39.3977890  40.2975600
   9.0617810  40.4778980  41.0081960  13.3183280  41.9048070  46.8193750
  12.6135450  42.2929780  46.3008860  13.5841200  42.5998360  47.4214680
   5.8879540  48.4860750  38.8817720   5.2696810  48.9510200  38.3180440
   6.4002790  49.1788230  39.2987230   9.2645210  41.8281700  43.0277660
   8.5600780  42.1166590  43.6080770   9.6257370  42.6381810  42.6677220
  10.8807990  51.4456830  45.2905140  10.1971510  52.1155940  45.2821810
  11.4202280  51.6437480  44.5250000  12.3332130  41.2736490  43.4186870
  11.3857040  41.3075470  43.5502300  12.6582120  42.0875440  43.8036230
   2.8651670  37.5733670  41.7142860   3.1726650  37.0180560  40.9978360
   1.9352370  37.7078130  41.5315850   8.4166730  53.2900960  44.0050320
   8.4293890  52.8863250  43.1372580   7.8641950  54.0648250  43.9011750
   9.7112150  50.0117180  39.0940490   9.6008480  49.0691510  39.2189910
   9.7080400  50.3732820  39.9803250   7.8152170  48.1930800  45.3332930
   8.2320960  47.9790910  44.4986390   8.5391990  48.4503590  45.9041550
   5.2532430  45.6382500  38.4502980   4.3261710  45.5719880  38.6791450
   5.4057250  46.5762630  38.3358220   5.2401510  41.9099500  35.4470140
   4.3005180  42.0713460  35.5322600   5.5584770  42.6285180  34.9006130
  11.7614270  46.5918020  45.4249170  10.9332900  46.6611110  44.9499300
  12.3564750  47.1772330  44.9565000   9.2829720  47.2002800  38.9538230
   8.6642140  46.8622350  38.3064530   9.2654170  46.5562560  39.6617420
   8.7256280  43.3787340  46.3704040   8.3127460  44.2041050  46.6244030
   7.9932230  42.7932380  46.1780400   9.4156380  53.4246670  47.0585020
   8.9386940  54.2318860  46.8657630   8.7318170  52.7725000  47.2111230
   7.4594420  46.4389610  35.9610980   7.8987700  45.6012040  35.8148800
   8.1722840  47.0719010  36.0475120   5.5689800  51.3785680  39.9292220
   6.0085710  52.1210010  39.5147610   5.5076690  51.6212250  40.8531180
  11.0411560  37.6932420  34.2752020  10.7284220  37.7859250  35.1751090
  11.8024030  38.2713450  34.2249450  12.9955590  53.1858610  52.1276410
  13.4715310  53.6641500  52.8065490  13.6162750  53.1176100  51.4021910
  12.3988840  50.3771460  49.2876420  12.5251900  50.1383340  48.3693600
  12.4410220  49.5456000  49.7598500   6.2605580  54.0799460  47.8571230
   6.7750250  53.9907470  48.6593660   5.4174660  54.4259160  48.1499140
   8.2359980  54.3654800  37.2855230   8.0761120  54.0757740  38.1837060
   8.0706690  53.5894930  36.7500460   7.9386110  51.8742360  35.8453230
   7.2451270  51.8719650  35.1855510   8.6808970  51.4501680  35.4147400
   7.5036040  53.5005070  39.9201720   7.9592990  52.7194450  40.2340340
   7.8428560  54.2111890  40.4642900  12.2512850  42.4303920  50.2526160
  11.6357120  42.9383590  49.7241620  11.9309270  41.5302250  50.1952100
   4.3127170  41.2695810  47.7188350   3.8506540  41.4778830  48.5308290
   3.9105280  40.4555160  47.4159020   9.3131680  42.4904760  48.8485010
   8.4625270  42.1910510  49.1694080   9.1533470  42.7346770  47.9368830
   6.4081390  43.9906510  50.9483800   6.7334800  43.1570260  50.6086030
   7.1961720  44.5135030  51.0962130   3.1416180  38.0237990  36.9958860
   2.5170360  38.0197860  37.7212170   3.0546300  37.1568950  36.5994830
   2.0633260  38.9474620  43.9742630   2.3605590  39.8537450  43.8934650
   2.6118820  38.4593400  43.3602200   7.0469340  43.5324230  38.4424930
   6.4478230  44.2560030  38.2588550   7.5948950  43.4701010  37.6601380
   2.2570790  44.4246440  50.5094550   2.1614390  43.4841170  50.3594950
   3.1002770  44.6461510  50.1142620   5.6534210  42.1687770  40.4728210
   6.0463780  42.4859970  39.6596900   6.0151060  41.2899650  40.5872730
   3.9626380  40.9195080  51.7325070   3.2724700  40.7267280  52.3671160
   4.7058680  41.2029720  52.2649370   6.2389350  44.7593520  44.5678990
   5.5070470  45.2680330  44.9169090   5.8413690  43.9423500  44.2667770
   2.6766740  41.4347720  42.9731480   2.6802800  40.9937670  42.1236020
   3.5717860  41.7565050  43.0803300   2.7386890  42.4359800  35.9638240
   2.8599710  42.3946280  36.9124060   2.3535400  43.2983950  35.8084970
   6.7015260  40.2127200  43.9801930   6.7188000  40.6635850  44.8243780
   6.4530840  39.3132840  44.1935370  10.1286010  37.6259380  49.8188310
  10.4531780  36.8949040  50.3446290  10.1642520  37.3073020  48.9169300
   2.9774710  45.4949500  44.7196890   3.3444840  45.0208070  45.4658230
   2.7879770  46.3691070  45.0605230  10.0543850  47.7384490  43.4274340
  10.7742970  48.2339780  43.0370450   9.8525670  47.0602380  42.7828210
   5.5153790  39.1322450  37.5703730   4.7018400  38.6335620  37.4949040
   5.3215740  39.9720700  37.1540080   5.4362650  47.8093550  49.3143340
   5.3699960  46.8889220  49.0600930   4.8067790  47.9068990  50.0287980
   8.2302180  43.5042100  35.8665890   9.1181800  43.8159330  35.6917230
   8.2007270  42.6314350  35.4746470   4.2262770  49.6765790  36.5454060
   4.5678470  50.4208020  36.0497380   3.3975480  49.9896910  36.9078890
   5.3679380  50.6314120  49.0647140   5.3823920  49.6995080  48.8466050
   4.6604480  50.7173880  49.7036910  10.5016450  44.8153940  35.3345750
  10.4180170  45.2468160  34.4842190  11.2210640  45.2752290  35.7672570
  11.5790590  47.2721460  48.4115720  10.8538780  47.8650240  48.2145110
  12.1066050  47.2645000  47.6129090  11.5303700  51.6696200  38.0627880
  10.8879860  51.0151820  38.3371600  11.1434360  52.0751290  37.2868550
   7.1090180  48.9981630  41.9099570   7.4614000  48.4009760  41.2500940
   6.2252510  48.6725860  42.0807820   3.1953460  49.7579320  39.3169980
   3.8824590  50.3048530  39.6977570   2.4085880  50.3020050  39.3519590
   2.4980670  46.7625350  38.9295340   2.9543450  47.5730600  39.1555530
   2.1468880  46.4448490  39.7613830   4.8013280  52.2731690  46.1587640
   5.4455500  52.4791070  46.8361060   5.1642720  51.5120090  45.7058490
   6.0745360  50.2764040  44.8765090   6.7167590  49.5757200  44.9897260
   6.5994710  51.0562480  44.6961980   9.9201080  50.5612660  34.6004230
   9.6938660  49.8443100  35.1928870   9.5297280  50.3125100  33.7625980
   7.8482980  51.0758940  48.0801150   8.1839220  51.6625630  48.7579070
   6.9283320  50.9451650  48.3098940   9.5017330  48.4784600  36.2618390
   9.2139030  48.9397290  37.0496270  10.2969500  48.0182370  36.5302610
   3.6771560  51.1250270  51.2489210   3.3568430  50.4059510  51.7934900
   3.0029920  51.8005340  51.3225270   6.8925160  41.3576430  46.6126010
   7.2605980  40.5371640  46.9405580   6.0323360  41.4178320  47.0281660
  10.2587190  40.3133370  37.4213570   9.6300350  40.4179040  36.7071800
   9.7639110  40.5330150  38.2107450   4.7045330  52.0338960  34.8547550
   4.8057310  51.8302950  33.9249530   3.8047070  51.7797240  35.0595330
   2.2271220  42.5919320  38.8371450   1.5187370  43.0605660  39.2785060
   2.5115700  41.9341330  39.4716640   3.8527150  44.0116020  46.8363980
   4.3512400  44.4861840  47.5015830   3.9950100  43.0879540  47.0434010
   6.2586650  39.3169980  40.2767240   6.1354430  39.3356110  39.3276750
   7.2071210  39.3648920  40.3965640   3.3463440  54.5525280  39.5495220
   3.6004940  54.5146670  38.6274590   2.3975920  54.4258610  39.5423470
  11.0594010  40.2283980  47.6792370  10.5567610  40.9689380  48.0186180
  11.8750670  40.6167980  47.3629160   9.3516020  45.4717160  41.1253730
   8.4106160  45.4867390  41.3001420   9.6660090  44.6853120  41.5714030
  11.3541600  52.6426010  42.8007990  11.4789020  53.4657180  43.2731800
  12.2207160  52.4316740  42.4532140   1.9361440  53.9087530  34.2950690
   2.7290050  54.1976360  33.8432480   1.4165790  53.4779700  33.6163170
   6.6682040  50.0283160  51.6086110   6.0620200  50.0514760  50.8681860
   6.3636150  49.2966200  52.1453360   8.0982410  53.7563450  50.2195520
   9.0504160  53.6721470  50.1695760   7.9510630  54.4205160  50.8929310
  10.9891610  53.1357660  35.7187430  10.7033120  52.7222800  34.9041610
  10.7911160  54.0645370  35.5987950   2.4538840  49.1290940  34.1593040
   2.3489480  48.5143290  34.8854420   2.2863060  48.6056830  33.3756050
   2.6053160  47.8147740  50.1382270   1.8398830  48.3832740  50.0536940
   2.7869120  47.5223950  49.2450500   5.6941570  48.1910970  34.7635030
   5.1451670  48.6380270  35.4077770   6.3160830  47.6860220  35.2872700
   9.7476510  49.5453070  50.6957290  10.4885980  49.8828830  50.1924750
   8.9849190  49.7145130  50.1427060   3.8744330  46.1739500  33.9077430
   4.3949990  45.4588520  33.5418580   4.5212730  46.8125370  34.2077940
   8.4222170  47.5967900  49.2312500   8.8363190  47.7512980  50.0802920
   7.4873170  47.7223120  49.3938280   8.8944340  44.9364060  51.2351650
   9.4765110  44.1816380  51.1472130   9.0706110  45.4671500  50.4583130
   2.7777850  38.6534050  46.5795990   2.3295150  38.6758310  45.7341540
   2.1443050  38.2553070  47.1766290   3.1837400  47.5488380  47.2008430
   3.6025510  48.3921110  47.0284670   2.2646030  47.6860420  46.9715210
   5.5201300  45.2804560  48.5846270   5.6397510  44.6845700  49.3241110
   6.3795300  45.3174250  48.1647570   7.8589200  45.8341750  47.1608780
   7.3324420  46.3584370  46.5573920   8.2020540  46.4669140  47.7918510
   2.2870070  41.8225910  49.8422090   2.8769760  41.5141760  50.5299910
   1.4690310  41.3505660  49.9981990   7.1063500  41.4391720  50.0755110
   6.4179020  40.7773260  50.0105100   7.8269520  40.9929990  50.5203570
   7.7363900  38.0343350  36.1345370   8.0166190  37.1911250  36.4904790
   6.9629630  38.2666460  36.6484120   3.8907030  55.0892600  48.5752810
   3.8165730  55.9927740  48.8825180   2.9885870  54.7704500  48.5474880
   2.2743320  39.2670360  34.5792570   1.9265320  38.5894350  33.9995020
   2.4756090  38.8059870  35.3935960   4.4392360  54.2551110  36.1979170
   5.3343150  54.5936080  36.2197930   4.4709990  53.5330520  35.5703450
  11.4186710  52.7854780  48.9045370  10.8188700  52.8447340  48.1609290
  11.5480610  51.8459760  49.0342220  12.6588160  50.5272600  34.2415080
  11.8281120  50.5949250  34.7122310  12.8359990  51.4176720  33.9381940
  12.1144620  47.2720080  36.7449280  12.8763530  47.8416730  36.8508970
  12.1298990  46.7047280  37.5157590  10.1038350  49.5106760  47.0021530
   9.2898190  49.9403920  47.2647320  10.5112550  50.1225170  46.3890580
  12.1663790  47.5654450  33.9021800  12.4412630  48.4733330  33.7741020
  11.9774530  47.5016980  34.8383790   8.5639400  40.5899300  35.1975430
   8.9824280  40.4030280  34.3572090   8.2575460  39.7378350  35.5078360
  12.0629130  45.5023440  38.8951230  11.6872730  44.7351370  38.4632520
  11.3332250  45.8846140  39.3826160  11.4528750  44.6494960  48.5290750
  11.2214840  44.4207710  47.6288700  11.7133300  45.5694510  48.4835640
   9.8916820  39.8751390  51.3070450  10.7687000  39.8834790  51.6904450
   9.9037660  39.1382230  50.6962800  11.3380090  43.7280930  42.1958470
  11.8617570  43.2343580  41.5648640  11.9239510  43.8631290  42.9406040
  11.5169810  43.8120800  45.7178020  10.5672520  43.7784340  45.8323010
  11.6982820  44.7220910  45.4827790  10.8280060  42.9854280  38.1350880
  11.3239180  42.7525150  38.9199760  10.6296130  42.1466120  37.7188520
  12.2567220  41.6215230  40.6688560  12.1466500  41.4671270  41.6070830
  13.0174810  41.0936170  40.4263970  10.6032940  37.5609360  47.1271560
  11.2405160  38.1743500  47.4930750  10.7507830  37.5970020  46.1820790
  13.1457490  39.4523150  33.9094700  14.0706800  39.3204330  33.7012990
  13.1233280  39.5315970  34.8631150  13.2195980  40.2233810  36.5351410
  12.4247480  40.1578930  37.0644320  13.4239260  41.1584450  36.5236760
  10.1614400  54.2625360  40.5289800  10.7573470  53.9409930  39.8524220
  10.4192550  53.7897180  41.3203070   1.7683000  52.2502860  46.2790150
   1.5274360  52.5177420  45.3920670   2.7085640  52.4208590  46.3341010
   3.9737420  38.7135550  50.0346660   3.9126310  39.3057380  50.7842070
   4.9137800  38.6061510  49.8896920   6.6111980  38.3705610  49.6738950
   7.2252390  38.6884900  49.0120030   7.1561540  37.8854200  50.2934810
  13.0287160  54.2697240  47.0800790  12.5345440  54.6666110  46.3627920
  12.4200450  53.6446450  47.4738070   7.3520020  36.9337750  46.0008240
   6.4779860  37.2672860  45.7981170   7.2430770  36.4610930  46.8260110
   8.2592000  39.1408620  47.3849960   7.9305360  38.3260380  47.0051690
   9.2074300  39.0978430  47.2615650  10.7126610  54.9120660  44.3587530
  10.2529580  55.6636470  43.9845550  10.0839070  54.1927130  44.3002330
   3.8817830  54.1117390  44.3604640   4.1695640  53.8571690  43.4837650
   4.3941050  53.5594750  44.9510210   5.0994840  37.8507590  44.9401150
   4.3166630  38.3253090  45.2197910   4.8057770  36.9462420  44.8314330
   9.6515910  38.5530690  42.9850240  10.0924000  38.4975790  42.1371840
   9.3823500  39.4688700  43.0560420  11.5154480  38.1845930  40.9959060
  11.4542880  37.2407150  40.8490080  12.2946510  38.2926020  41.5412520
   2.9849060  40.2694340  40.4517180   2.1723570  39.8951230  40.1113060
   3.4890700  39.5139420  40.7538370   7.4874040  36.9336790  41.6900250
   8.0903410  37.5057000  42.1648770   6.7467030  37.4976230  41.4674150
  10.6308640  37.3358350  36.9640530  10.8259270  38.2341800  37.2307960
   9.8438510  37.1045430  37.4573480   3.9490190  55.0333490  51.7272840
   4.8757500  54.7977760  51.7708800   3.9340620  55.8605490  51.2458870
  12.1835250  54.5759060  38.7247090  12.3587440  53.8896800  38.0808010
  11.4856820  55.1006110  38.3323760   7.7369260  37.1131820  52.0695190
   7.6234710  37.4326430  52.9646710   8.5539000  37.5144330  51.7732470
  10.5167750  54.2603350  51.5513880  11.3093070  53.7652580  51.3439840
  10.8100900  54.9393490  52.1589490   6.6427410  45.1324290  22.4329930
   6.5621460  44.2178900  22.1621640   6.2291830  45.6291360  21.7269640
   4.7745450  46.9103310  24.3139200   3.9987550  46.4303750  24.6037770
   5.4258380  46.2308960  24.1395360   8.7952880  51.3163500  23.0938330
   8.3334410  50.5450740  23.4225500   9.6078430  51.3429570  23.5990780
   5.0216190  53.6021510  22.7142320   4.4027630  54.0579010  22.1436760
   5.8767970  53.7572970  22.3132020   4.2154440  49.5860500  24.3209360
   4.1462720  48.6450440  24.1598490   4.9774300  49.6761910  24.8931930
   5.2459610  42.3930880  24.5478290   5.6224430  41.5202760  24.4351960
   5.1479120  42.7289580  23.6568730   9.0283730  39.8881320  21.4806630
   9.8493350  39.3977890  21.5232110   9.0617810  40.4778980  22.2338470
  13.3183280  41.9048070  28.0450260  12.6135450  42.2929780  27.5265370
  13.5841200  42.5998360  28.6471190   5.8879540  48.4860750  20.1074230
   5.2696810  48.9510200  19.5436950   6.4002790  49.1788230  20.5243740
   9.2645210  41.8281700  24.2534170   8.5600780  42.1166590  24.8337280
   9.6257370  42.6381810  23.8933730  10.8807990  51.4456830  26.5161650
  10.1971510  52.1155940  26.5078320  11.4202280  51.6437480  25.7506510
  12.3332130  41.2736490  24.6443380  11.3857040  41.3075470  24.7758810
  12.6582120  42.0875440  25.0292740   2.8651670  37.5733670  22.9399370
   3.1726650  37.0180560  22.2234870   1.9352370  37.7078130  22.7572360
   8.4166730  53.2900960  25.2306830   8.4293890  52.8863250  24.3629090
   7.8641950  54.0648250  25.1268260   9.7112150  50.0117180  20.3197000
   9.6008480  49.0691510  20.4446420   9.7080400  50.3732820  21.2059760
   7.8152170  48.1930800  26.5589440   8.2320960  47.9790910  25.7242900
   8.5391990  48.4503590  27.1298060   5.2532430  45.6382500  19.6759490
   4.3261710  45.5719880  19.9047960   5.4057250  46.5762630  19.5614730
   5.2401510  41.9099500  16.6726650   4.3005180  42.0713460  16.7579110
   5.5584770  42.6285180  16.1262640  11.7614270  46.5918020  26.6505680
  10.9332900  46.6611110  26.1755810  12.3564750  47.1772330  26.1821510
   9.2829720  47.2002800  20.1794740   8.6642140  46.8622350  19.5321040
   9.2654170  46.5562560  20.8873930   8.7256280  43.3787340  27.5960550
   8.3127460  44.2041050  27.8500540   7.9932230  42.7932380  27.4036910
   9.4156380  53.4246670  28.2841530   8.9386940  54.2318860  28.0914140
   8.7318170  52.7725000  28.4367740   7.4594420  46.4389610  17.1867490
   7.8987700  45.6012040  17.0405310   8.1722840  47.0719010  17.2731630
   5.5689800  51.3785680  21.1548730   6.0085710  52.1210010  20.7404120
   5.5076690  51.6212250  22.0787690  11.0411560  37.6932420  15.5008530
  10.7284220  37.7859250  16.4007600  11.8024030  38.2713450  15.4505960
  12.9955590  53.1858610  33.3532920  13.4715310  53.6641500  34.0322000
  13.6162750  53.1176100  32.6278420  12.3988840  50.3771460  30.5132930
  12.5251900  50.1383340  29.5950110  12.4410220  49.5456000  30.9855010
   6.2605580  54.0799460  29.0827740   6.7750250  53.9907470  29.8850170
   5.4174660  54.4259160  29.3755650   8.2359980  54.3654800  18.5111740
   8.0761120  54.0757740  19.4093570   8.0706690  53.5894930  17.9756970
   7.9386110  51.8742360  17.0709740   7.2451270  51.8719650  16.4112020
   8.6808970  51.4501680  16.6403910   7.5036040  53.5005070  21.1458230
   7.9592990  52.7194450  21.4596850   7.8428560  54.2111890  21.6899410
  12.2512850  42.4303920  31.4782670  11.6357120  42.9383590  30.9498130
  11.9309270  41.5302250  31.4208610   4.3127170  41.2695810  28.9444860
   3.8506540  41.4778830  29.7564800   3.9105280  40.4555160  28.6415530
   9.3131680  42.4904760  30.0741520   8.4625270  42.1910510  30.3950590
   9.1533470  42.7346770  29.1625340   6.4081390  43.9906510  32.1740310
   6.7334800  43.1570260  31.8342540   7.1961720  44.5135030  32.3218640
   3.1416180  38.0237990  18.2215370   2.5170360  38.0197860  18.9468680
   3.0546300  37.1568950  17.8251340   2.0633260  38.9474620  25.1999140
   2.3605590  39.8537450  25.1191160   2.6118820  38.4593400  24.5858710
   7.0469340  43.5324230  19.6681440   6.4478230  44.2560030  19.4845060
   7.5948950  43.4701010  18.8857890   2.2570790  44.4246440  31.7351060
   2.1614390  43.4841170  31.5851460   3.1002770  44.6461510  31.3399130
   5.6534210  42.1687770  21.6984720   6.0463780  42.4859970  20.8853410
   6.0151060  41.2899650  21.8129240   3.9626380  40.9195080  32.9581580
   3.2724700  40.7267280  33.5927670   4.7058680  41.2029720  33.4905880
   6.2389350  44.7593520  25.7935500   5.5070470  45.2680330  26.1425600
   5.8413690  43.9423500  25.4924280   2.6766740  41.4347720  24.1987990
   2.6802800  40.9937670  23.3492530   3.5717860  41.7565050  24.3059810
   2.7386890  42.4359800  17.1894750   2.8599710  42.3946280  18.1380570
   2.3535400  43.2983950  17.0341480   6.7015260  40.2127200  25.2058440
   6.7188000  40.6635850  26.0500290   6.4530840  39.3132840  25.4191880
  10.1286010  37.6259380  31.0444820  10.4531780  36.8949040  31.5702800
  10.1642520  37.3073020  30.1425810   2.9774710  45.4949500  25.9453400
   3.3444840  45.0208070  26.6914740   2.7879770  46.3691070  26.2861740
  10.0543850  47.7384490  24.6530850  10.7742970  48.2339780  24.2626960
   9.8525670  47.0602380  24.0084720   5.5153790  39.1322450  18.7960240
   4.7018400  38.6335620  18.7205550   5.3215740  39.9720700  18.3796590
   5.4362650  47.8093550  30.5399850   5.3699960  46.8889220  30.2857440
   4.8067790  47.9068990  31.2544490   8.2302180  43.5042100  17.0922400
   9.1181800  43.8159330  16.9173740   8.2007270  42.6314350  16.7002980
   4.2262770  49.6765790  17.7710570   4.5678470  50.4208020  17.2753890
   3.3975480  49.9896910  18.1335400   5.3679380  50.6314120  30.2903650
   5.3823920  49.6995080  30.0722560   4.6604480  50.7173880  30.9293420
  10.5016450  44.8153940  16.5602260  10.4180170  45.2468160  15.7098700
  11.2210640  45.2752290  16.9929080  11.5790590  47.2721460  29.6372230
  10.8538780  47.8650240  29.4401620  12.1066050  47.2645000  28.8385600
  11.5303700  51.6696200  19.2884390  10.8879860  51.0151820  19.5628110
  11.1434360  52.0751290  18.5125060   7.1090180  48.9981630  23.1356080
   7.4614000  48.4009760  22.4757450   6.2252510  48.6725860  23.3064330
   3.1953460  49.7579320  20.5426490   3.8824590  50.3048530  20.9234080
   2.4085880  50.3020050  20.5776100   2.4980670  46.7625350  20.1551850
   2.9543450  47.5730600  20.3812040   2.1468880  46.4448490  20.9870340
   4.8013280  52.2731690  27.3844150   5.4455500  52.4791070  28.0617570
   5.1642720  51.5120090  26.9315000   6.0745360  50.2764040  26.1021600
   6.7167590  49.5757200  26.2153770   6.5994710  51.0562480  25.9218490
   9.9201080  50.5612660  15.8260740   9.6938660  49.8443100  16.4185380
   9.5297280  50.3125100  14.9882490   7.8482980  51.0758940  29.3057660
   8.1839220  51.6625630  29.9835580   6.9283320  50.9451650  29.5355450
   9.5017330  48.4784600  17.4874900   9.2139030  48.9397290  18.2752780
  10.2969500  48.0182370  17.7559120   3.6771560  51.1250270  32.4745720
   3.3568430  50.4059510  33.0191410   3.0029920  51.8005340  32.5481780
   6.8925160  41.3576430  27.8382520   7.2605980  40.5371640  28.1662090
   6.0323360  41.4178320  28.2538170  10.2587190  40.3133370  18.6470080
   9.6300350  40.4179040  17.9328310   9.7639110  40.5330150  19.4363960
   4.7045330  52.0338960  16.0804060   4.8057310  51.8302950  15.1506040
   3.8047070  51.7797240  16.2851840   2.2271220  42.5919320  20.0627960
   1.5187370  43.0605660  20.5041570   2.5115700  41.9341330  20.6973150
   3.8527150  44.0116020  28.0620490   4.3512400  44.4861840  28.7272340
   3.9950100  43.0879540  28.2690520   6.2586650  39.3169980  21.5023750
   6.1354430  39.3356110  20.5533260   7.2071210  39.3648920  21.6222150
   3.3463440  54.5525280  20.7751730   3.6004940  54.5146670  19.8531100
   2.3975920  54.4258610  20.7679980  11.0594010  40.2283980  28.9048880
  10.5567610  40.9689380  29.2442690  11.8750670  40.6167980  28.5885670
   9.3516020  45.4717160  22.3510240   8.4106160  45.4867390  22.5257930
   9.6660090  44.6853120  22.7970540  11.3541600  52.6426010  24.0264500
  11.4789020  53.4657180  24.4988310  12.2207160  52.4316740  23.6788650
   1.9361440  53.9087530  15.5207200   2.7290050  54.1976360  15.0688990
   1.4165790  53.4779700  14.8419680   6.6682040  50.0283160  32.8342620
   6.0620200  50.0514760  32.0938370   6.3636150  49.2966200  33.3709870
   8.0982410  53.7563450  31.4452030   9.0504160  53.6721470  31.3952270
   7.9510630  54.4205160  32.1185820  10.9891610  53.1357660  16.9443940
  10.7033120  52.7222800  16.1298120  10.7911160  54.0645370  16.8244460
   2.4538840  49.1290940  15.3849550   2.3489480  48.5143290  16.1110930
   2.2863060  48.6056830  14.6012560   2.6053160  47.8147740  31.3638780
   1.8398830  48.3832740  31.2793450   2.7869120  47.5223950  30.4707010
   5.6941570  48.1910970  15.9891540   5.1451670  48.6380270  16.6334280
   6.3160830  47.6860220  16.5129210   9.7476510  49.5453070  31.9213800
  10.4885980  49.8828830  31.4181260   8.9849190  49.7145130  31.3683570
   3.8744330  46.1739500  15.1333940   4.3949990  45.4588520  14.7675090
   4.5212730  46.8125370  15.4334450   8.4222170  47.5967900  30.4569010
   8.8363190  47.7512980  31.3059430   7.4873170  47.7223120  30.6194790
   8.8944340  44.9364060  32.4608160   9.4765110  44.1816380  32.3728640
   9.0706110  45.4671500  31.6839640   2.7777850  38.6534050  27.8052500
   2.3295150  38.6758310  26.9598050   2.1443050  38.2553070  28.4022800
   3.1837400  47.5488380  28.4264940   3.6025510  48.3921110  28.2541180
   2.2646030  47.6860420  28.1971720   5.5201300  45.2804560  29.8102780
   5.6397510  44.6845700  30.5497620   6.3795300  45.3174250  29.3904080
   7.8589200  45.8341750  28.3865290   7.3324420  46.3584370  27.7830430
   8.2020540  46.4669140  29.0175020   2.2870070  41.8225910  31.0678600
   2.8769760  41.5141760  31.7556420   1.4690310  41.3505660  31.2238500
   7.1063500  41.4391720  31.3011620   6.4179020  40.7773260  31.2361610
   7.8269520  40.9929990  31.7460080   7.7363900  38.0343350  17.3601880
   8.0166190  37.1911250  17.7161300   6.9629630  38.2666460  17.8740630
   3.8907030  55.0892600  29.8009320   3.8165730  55.9927740  30.1081690
   2.9885870  54.7704500  29.7731390   2.2743320  39.2670360  15.8049080
   1.9265320  38.5894350  15.2251530   2.4756090  38.8059870  16.6192470
   4.4392360  54.2551110  17.4235680   5.3343150  54.5936080  17.4454440
   4.4709990  53.5330520  16.7959960  11.4186710  52.7854780  30.1301880
  10.8188700  52.8447340  29.3865800  11.5480610  51.8459760  30.2598730
  12.6588160  50.5272600  15.4671590  11.8281120  50.5949250  15.9378820
  12.8359990  51.4176720  15.1638450  12.1144620  47.2720080  17.9705790
  12.8763530  47.8416730  18.0765480  12.1298990  46.7047280  18.7414100
  13.1204590  48.1270180  22.8147720  13.4913420  47.3437500  22.4083690
  13.7606520  48.8159280  22.6365020  10.1038350  49.5106760  28.2278040
   9.2898190  49.9403920  28.4903830  10.5112550  50.1225170  27.6147090
  12.1663790  47.5654450  15.1278310  12.4412630  48.4733330  14.9997530
  11.9774530  47.5016980  16.0640300   8.5639400  40.5899300  16.4231940
   8.9824280  40.4030280  15.5828600   8.2575460  39.7378350  16.7334870
  12.0629130  45.5023440  20.1207740  11.6872730  44.7351370  19.6889030
  11.3332250  45.8846140  20.6082670  11.4528750  44.6494960  29.7547260
  11.2214840  44.4207710  28.8545210  11.7133300  45.5694510  29.7092150
   9.8916820  39.8751390  32.5326960  10.7687000  39.8834790  32.9160960
   9.9037660  39.1382230  31.9219310  11.3380090  43.7280930  23.4214980
  11.8617570  43.2343580  22.7905150  11.9239510  43.8631290  24.1662550
  11.5169810  43.8120800  26.9434530  10.5672520  43.7784340  27.0579520
  11.6982820  44.7220910  26.7084300  10.8280060  42.9854280  19.3607390
  11.3239180  42.7525150  20.1456270  10.6296130  42.1466120  18.9445030
  12.2567220  41.6215230  21.8945070  12.1466500  41.4671270  22.8327340
  13.0174810  41.0936170  21.6520480  10.6032940  37.5609360  28.3528070
  11.2405160  38.1743500  28.7187260  10.7507830  37.5970020  27.4077300
  13.1457490  39.4523150  15.1351210  14.0706800  39.3204330  14.9269500
  13.1233280  39.5315970  16.0887660  13.2195980  40.2233810  17.7607920
  12.4247480  40.1578930  18.2900830  13.4239260  41.1584450  17.7493270
  10.1614400  54.2625360  21.7546310  10.7573470  53.9409930  21.0780730
  10.4192550  53.7897180  22.5459580   1.7683000  52.2502860  27.5046660
   1.5274360  52.5177420  26.6177180   2.7085640  52.4208590  27.5597520
   3.9737420  38.7135550  31.2603170   3.9126310  39.3057380  32.0098580
   4.9137800  38.6061510  31.1153430   6.6111980  38.3705610  30.8995460
   7.2252390  38.6884900  30.2376540   7.1561540  37.8854200  31.5191320
  13.0287160  54.2697240  28.3057300  12.5345440  54.6666110  27.5884430
  12.4200450  53.6446450  28.6994580   7.3520020  36.9337750  27.2264750
   6.4779860  37.2672860  27.0237680   7.2430770  36.4610930  28.0516620
   8.2592000  39.1408620  28.6106470   7.9305360  38.3260380  28.2308200
   9.2074300  39.0978430  28.4872160  10.7126610  54.9120660  25.5844040
  10.2529580  55.6636470  25.2102060  10.0839070  54.1927130  25.5258840
   3.8817830  54.1117390  25.5861150   4.1695640  53.8571690  24.7094160
   4.3941050  53.5594750  26.1766720   5.0994840  37.8507590  26.1657660
   4.3166630  38.3253090  26.4454420   4.8057770  36.9462420  26.0570840
   9.6515910  38.5530690  24.2106750  10.0924000  38.4975790  23.3628350
   9.3823500  39.4688700  24.2816930  11.5154480  38.1845930  22.2215570
  11.4542880  37.2407150  22.0746590  12.2946510  38.2926020  22.7669030
   2.9849060  40.2694340  21.6773690   2.1723570  39.8951230  21.3369570
   3.4890700  39.5139420  21.9794880   7.4874040  36.9336790  22.9156760
   8.0903410  37.5057000  23.3905280   6.7467030  37.4976230  22.6930660
  10.6308640  37.3358350  18.1897040  10.8259270  38.2341800  18.4564470
   9.8438510  37.1045430  18.6829990   3.9490190  55.0333490  32.9529350
   4.8757500  54.7977760  32.9965310   3.9340620  55.8605490  32.4715380
  12.1835250  54.5759060  19.9503600  12.3587440  53.8896800  19.3064520
  11.4856820  55.1006110  19.5580270   7.7369260  37.1131820  33.2951700
   7.6234710  37.4326430  34.1903220   8.5539000  37.5144330  32.9988980
  10.5167750  54.2603350  32.7770390  11.3093070  53.7652580  32.5696350
  10.8100900  54.9393490  33.3846000   6.6427410  45.1324290   3.6586440
   6.5621460  44.2178900   3.3878150   6.2291830  45.6291360   2.9526150
   4.7745450  46.9103310   5.5395710   3.9987550  46.4303750   5.8294280
   5.4258380  46.2308960   5.3651870   8.7952880  51.3163500   4.3194840
   8.3334410  50.5450740   4.6482010   9.6078430  51.3429570   4.8247290
   5.0216190  53.6021510   3.9398830   4.4027630  54.0579010   3.3693270
   5.8767970  53.7572970   3.5388530   4.2154440  49.5860500   5.5465870
   4.1462720  48.6450440   5.3855000   4.9774300  49.6761910   6.1188440
   5.2459610  42.3930880   5.7734800   5.6224430  41.5202760   5.6608470
   5.1479120  42.7289580   4.8825240   9.0283730  39.8881320   2.7063140
   9.8493350  39.3977890   2.7488620   9.0617810  40.4778980   3.4594980
  13.3183280  41.9048070   9.2706770  12.6135450  42.2929780   8.7521880
  13.5841200  42.5998360   9.8727700   9.2645210  41.8281700   5.4790680
   8.5600780  42.1166590   6.0593790   9.6257370  42.6381810   5.1190240
  10.8807990  51.4456830   7.7418160  10.1971510  52.1155940   7.7334830
  11.4202280  51.6437480   6.9763020  12.3332130  41.2736490   5.8699890
  11.3857040  41.3075470   6.0015320  12.6582120  42.0875440   6.2549250
   2.8651670  37.5733670   4.1655880   3.1726650  37.0180560   3.4491380
   1.9352370  37.7078130   3.9828870   8.4166730  53.2900960   6.4563340
   8.4293890  52.8863250   5.5885600   7.8641950  54.0648250   6.3524770
   7.8152170  48.1930800   7.7845950   8.2320960  47.9790910   6.9499410
   8.5391990  48.4503590   8.3554570  11.7614270  46.5918020   7.8762190
  10.9332900  46.6611110   7.4012320  12.3564750  47.1772330   7.4078020
   8.7256280  43.3787340   8.8217060   8.3127460  44.2041050   9.0757050
   7.9932230  42.7932380   8.6293420   9.4156380  53.4246670   9.5098040
   8.9386940  54.2318860   9.3170650   8.7318170  52.7725000   9.6624250
   5.5689800  51.3785680   2.3805240   6.0085710  52.1210010   1.9660630
   5.5076690  51.6212250   3.3044200  12.9955590  53.1858610  14.5789430
  13.4715310  53.6641500  15.2578510  13.6162750  53.1176100  13.8534930
  12.3988840  50.3771460  11.7389440  12.5251900  50.1383340  10.8206620
  12.4410220  49.5456000  12.2111520   6.2605580  54.0799460  10.3084250
   6.7750250  53.9907470  11.1106680   5.4174660  54.4259160  10.6012160
   7.5036040  53.5005070   2.3714740   7.9592990  52.7194450   2.6853360
   7.8428560  54.2111890   2.9155920  12.2512850  42.4303920  12.7039180
  11.6357120  42.9383590  12.1754640  11.9309270  41.5302250  12.6465120
   4.3127170  41.2695810  10.1701370   3.8506540  41.4778830  10.9821310
   3.9105280  40.4555160   9.8672040   9.3131680  42.4904760  11.2998030
   8.4625270  42.1910510  11.6207100   9.1533470  42.7346770  10.3881850
   6.4081390  43.9906510  13.3996820   6.7334800  43.1570260  13.0599050
   7.1961720  44.5135030  13.5475150   2.0633260  38.9474620   6.4255650
   2.3605590  39.8537450   6.3447670   2.6118820  38.4593400   5.8115220
   2.2570790  44.4246440  12.9607570   2.1614390  43.4841170  12.8107970
   3.1002770  44.6461510  12.5655640   5.6534210  42.1687770   2.9241230
   6.0463780  42.4859970   2.1109920   6.0151060  41.2899650   3.0385750
   3.9626380  40.9195080  14.1838090   3.2724700  40.7267280  14.8184180
   4.7058680  41.2029720  14.7162390   6.2389350  44.7593520   7.0192010
   5.5070470  45.2680330   7.3682110   5.8413690  43.9423500   6.7180790
   2.6766740  41.4347720   5.4244500   2.6802800  40.9937670   4.5749040
   3.5717860  41.7565050   5.5316320   6.7015260  40.2127200   6.4314950
   6.7188000  40.6635850   7.2756800   6.4530840  39.3132840   6.6448390
  10.1286010  37.6259380  12.2701330  10.4531780  36.8949040  12.7959310
  10.1642520  37.3073020  11.3682320   2.9774710  45.4949500   7.1709910
   3.3444840  45.0208070   7.9171250   2.7879770  46.3691070   7.5118250
  10.0543850  47.7384490   5.8787360  10.7742970  48.2339780   5.4883470
   9.8525670  47.0602380   5.2341230   5.4362650  47.8093550  11.7656360
   5.3699960  46.8889220  11.5113950   4.8067790  47.9068990  12.4801000
   5.3679380  50.6314120  11.5160160   5.3823920  49.6995080  11.2979070
   4.6604480  50.7173880  12.1549930  11.5790590  47.2721460  10.8628740
  10.8538780  47.8650240  10.6658130  12.1066050  47.2645000  10.0642110
   7.1090180  48.9981630   4.3612590   7.4614000  48.4009760   3.7013960
   6.2252510  48.6725860   4.5320840   3.1953460  49.7579320   1.7683000
   3.8824590  50.3048530   2.1490590   2.4085880  50.3020050   1.8032610
   4.8013280  52.2731690   8.6100660   5.4455500  52.4791070   9.2874080
   5.1642720  51.5120090   8.1571510   6.0745360  50.2764040   7.3278110
   6.7167590  49.5757200   7.4410280   6.5994710  51.0562480   7.1475000
   7.8482980  51.0758940  10.5314170   8.1839220  51.6625630  11.2092090
   6.9283320  50.9451650  10.7611960   3.6771560  51.1250270  13.7002230
   3.3568430  50.4059510  14.2447920   3.0029920  51.8005340  13.7738290
   6.8925160  41.3576430   9.0639030   7.2605980  40.5371640   9.3918600
   6.0323360  41.4178320   9.4794680   3.8527150  44.0116020   9.2877000
   4.3512400  44.4861840   9.9528850   3.9950100  43.0879540   9.4947030
   6.2586650  39.3169980   2.7280260   6.1354430  39.3356110   1.7789770
   7.2071210  39.3648920   2.8478660  11.0594010  40.2283980  10.1305390
  10.5567610  40.9689380  10.4699200  11.8750670  40.6167980   9.8142180
   9.3516020  45.4717160   3.5766750   8.4106160  45.4867390   3.7514440
   9.6660090  44.6853120   4.0227050  11.3541600  52.6426010   5.2521010
  11.4789020  53.4657180   5.7244820  12.2207160  52.4316740   4.9045160
   6.6682040  50.0283160  14.0599130   6.0620200  50.0514760  13.3194880
   6.3636150  49.2966200  14.5966380   8.0982410  53.7563450  12.6708540
   9.0504160  53.6721470  12.6208780   7.9510630  54.4205160  13.3442330
   2.6053160  47.8147740  12.5895290   1.8398830  48.3832740  12.5049960
   2.7869120  47.5223950  11.6963520   9.7476510  49.5453070  13.1470310
  10.4885980  49.8828830  12.6437770   8.9849190  49.7145130  12.5940080
   8.4222170  47.5967900  11.6825520   8.8363190  47.7512980  12.5315940
   7.4873170  47.7223120  11.8451300   8.8944340  44.9364060  13.6864670
   9.4765110  44.1816380  13.5985150   9.0706110  45.4671500  12.9096150
   2.7777850  38.6534050   9.0309010   2.3295150  38.6758310   8.1854560
   2.1443050  38.2553070   9.6279310   3.1837400  47.5488380   9.6521450
   3.6025510  48.3921110   9.4797690   2.2646030  47.6860420   9.4228230
   5.5201300  45.2804560  11.0359290   5.6397510  44.6845700  11.7754130
   6.3795300  45.3174250  10.6160590   7.8589200  45.8341750   9.6121800
   7.3324420  46.3584370   9.0086940   8.2020540  46.4669140  10.2431530
   2.2870070  41.8225910  12.2935110   2.8769760  41.5141760  12.9812930
   1.4690310  41.3505660  12.4495010   7.1063500  41.4391720  12.5268130
   6.4179020  40.7773260  12.4618120   7.8269520  40.9929990  12.9716590
   3.8907030  55.0892600  11.0265830   3.8165730  55.9927740  11.3338200
   2.9885870  54.7704500  10.9987900  11.4186710  52.7854780  11.3558390
  10.8188700  52.8447340  10.6122310  11.5480610  51.8459760  11.4855240
  13.1204590  48.1270180   4.0404230  13.4913420  47.3437500   3.6340200
  13.7606520  48.8159280   3.8621530  10.1038350  49.5106760   9.4534550
   9.2898190  49.9403920   9.7160340  10.5112550  50.1225170   8.8403600
  11.4528750  44.6494960  10.9803770  11.2214840  44.4207710  10.0801720
  11.7133300  45.5694510  10.9348660   9.8916820  39.8751390  13.7583470
  10.7687000  39.8834790  14.1417470   9.9037660  39.1382230  13.1475820
  11.3380090  43.7280930   4.6471490  11.8617570  43.2343580   4.0161660
  11.9239510  43.8631290   5.3919060  11.5169810  43.8120800   8.1691040
  10.5672520  43.7784340   8.2836030  11.6982820  44.7220910   7.9340810
  12.2567220  41.6215230   3.1201580  12.1466500  41.4671270   4.0583850
  13.0174810  41.0936170   2.8776990  10.6032940  37.5609360   9.5784580
  11.2405160  38.1743500   9.9443770  10.7507830  37.5970020   8.6333810
  10.1614400  54.2625360   2.9802820  10.7573470  53.9409930   2.3037240
  10.4192550  53.7897180   3.7716090   1.7683000  52.2502860   8.7303170
   1.5274360  52.5177420   7.8433690   2.7085640  52.4208590   8.7854030
   3.9737420  38.7135550  12.4859680   3.9126310  39.3057380  13.2355090
   4.9137800  38.6061510  12.3409940   6.6111980  38.3705610  12.1251970
   7.2252390  38.6884900  11.4633050   7.1561540  37.8854200  12.7447830
  13.0287160  54.2697240   9.5313810  12.5345440  54.6666110   8.8140940
  12.4200450  53.6446450   9.9251090   7.3520020  36.9337750   8.4521260
   6.4779860  37.2672860   8.2494190   7.2430770  36.4610930   9.2773130
   8.2592000  39.1408620   9.8362980   7.9305360  38.3260380   9.4564710
   9.2074300  39.0978430   9.7128670  10.7126610  54.9120660   6.8100550
  10.2529580  55.6636470   6.4358570  10.0839070  54.1927130   6.7515350
   3.8817830  54.1117390   6.8117660   4.1695640  53.8571690   5.9350670
   4.3941050  53.5594750   7.4023230   5.0994840  37.8507590   7.3914170
   4.3166630  38.3253090   7.6710930   4.8057770  36.9462420   7.2827350
   9.6515910  38.5530690   5.4363260  10.0924000  38.4975790   4.5884860
   9.3823500  39.4688700   5.5073440  11.5154480  38.1845930   3.4472080
  11.4542880  37.2407150   3.3003100  12.2946510  38.2926020   3.9925540
   2.9849060  40.2694340   2.9030200   2.1723570  39.8951230   2.5626080
   3.4890700  39.5139420   3.2051390   7.4874040  36.9336790   4.1413270
   8.0903410  37.5057000   4.6161790   6.7467030  37.4976230   3.9187170
   3.9490190  55.0333490  14.1785860   4.8757500  54.7977760  14.2221820
   3.9340620  55.8605490  13.6971890   7.7369260  37.1131820  14.5208210
   7.6234710  37.4326430  15.4159730   8.5539000  37.5144330  14.2245490
  10.5167750  54.2603350  14.0026900  11.3093070  53.7652580  13.7952860
  10.8100900  54.9393490  14.6102510   6.6427410  26.3580800  59.9816910
   6.5621460  25.4435410  59.7108620   6.2291830  26.8547870  59.2756620
   4.7745450  28.1359820  61.8626180   3.9987550  27.6560260  62.1524750
   5.4258380  27.4565470  61.6882340   8.7952880  32.5420010  60.6425310
   8.3334410  31.7707250  60.9712480   9.6078430  32.5686080  61.1477760
   5.0216190  34.8278020  60.2629300   4.4027630  35.2835520  59.6923740
   5.8767970  34.9829480  59.8619000   4.2154440  30.8117010  61.8696340
   4.1462720  29.8706950  61.7085470   4.9774300  30.9018420  62.4418910
   5.2459610  23.6187390  62.0965270   5.6224430  22.7459270  61.9838940
   5.1479120  23.9546090  61.2055710   9.0283730  21.1137830  59.0293610
   9.8493350  20.6234400  59.0719090   9.0617810  21.7035490  59.7825450
   5.8879540  29.7117260  57.6561210   5.2696810  30.1766710  57.0923930
   6.4002790  30.4044740  58.0730720   9.2645210  23.0538210  61.8021150
   8.5600780  23.3423100  62.3824260   9.6257370  23.8638320  61.4420710
  10.8807990  32.6713340  64.0648630  10.1971510  33.3412450  64.0565300
  11.4202280  32.8693990  63.2993490  12.3332130  22.4993000  62.1930360
  11.3857040  22.5331980  62.3245790  12.6582120  23.3131950  62.5779720
   2.8651670  18.7990180  60.4886350   3.1726650  18.2437070  59.7721850
   1.9352370  18.9334640  60.3059340   8.4166730  34.5157470  62.7793810
   8.4293890  34.1119760  61.9116070   7.8641950  35.2904760  62.6755240
   9.7112150  31.2373690  57.8683980   9.6008480  30.2948020  57.9933400
   9.7080400  31.5989330  58.7546740   7.8152170  29.4187310  64.1076420
   8.2320960  29.2047420  63.2729880   8.5391990  29.6760100  64.6785040
   5.2532430  26.8639010  57.2246470   4.3261710  26.7976390  57.4534940
   5.4057250  27.8019140  57.1101710   5.2401510  23.1356010  54.2213630
   4.3005180  23.2969970  54.3066090   5.5584770  23.8541690  53.6749620
  11.7614270  27.8174530  64.1992660  10.9332900  27.8867620  63.7242790
  12.3564750  28.4028840  63.7308490   9.2829720  28.4259310  57.7281720
   8.6642140  28.0878860  57.0808020   9.2654170  27.7819070  58.4360910
   7.4594420  27.6646120  54.7354470   7.8987700  26.8268550  54.5892290
   8.1722840  28.2975520  54.8218610   5.5689800  32.6042190  58.7035710
   6.0085710  33.3466520  58.2891100   5.5076690  32.8468760  59.6274670
  11.0411560  18.9188930  53.0495510  10.7284220  19.0115760  53.9494580
  11.8024030  19.4969960  52.9992940   8.2359980  35.5911310  56.0598720
   8.0761120  35.3014250  56.9580550   8.0706690  34.8151440  55.5243950
   7.9386110  33.0998870  54.6196720   7.2451270  33.0976160  53.9599000
   8.6808970  32.6758190  54.1890890   7.5036040  34.7261580  58.6945210
   7.9592990  33.9450960  59.0083830   7.8428560  35.4368400  59.2386390
   3.1416180  19.2494500  55.7702350   2.5170360  19.2454370  56.4955660
   3.0546300  18.3825460  55.3738320   2.0633260  20.1731130  62.7486120
   2.3605590  21.0793960  62.6678140   2.6118820  19.6849910  62.1345690
   7.0469340  24.7580740  57.2168420   6.4478230  25.4816540  57.0332040
   7.5948950  24.6957520  56.4344870   5.6534210  23.3944280  59.2471700
   6.0463780  23.7116480  58.4340390   6.0151060  22.5156160  59.3616220
   6.2389350  25.9850030  63.3422480   5.5070470  26.4936840  63.6912580
   5.8413690  25.1680010  63.0411260   2.6766740  22.6604230  61.7474970
   2.6802800  22.2194180  60.8979510   3.5717860  22.9821560  61.8546790
   2.7386890  23.6616310  54.7381730   2.8599710  23.6202790  55.6867550
   2.3535400  24.5240460  54.5828460   6.7015260  21.4383710  62.7545420
   6.7188000  21.8892360  63.5987270   6.4530840  20.5389350  62.9678860
   2.9774710  26.7206010  63.4940380   3.3444840  26.2464580  64.2401720
   2.7879770  27.5947580  63.8348720  10.0543850  28.9641000  62.2017830
  10.7742970  29.4596290  61.8113940   9.8525670  28.2858890  61.5571700
   5.5153790  20.3578960  56.3447220   4.7018400  19.8592130  56.2692530
   5.3215740  21.1977210  55.9283570   8.2302180  24.7298610  54.6409380
   9.1181800  25.0415840  54.4660720   8.2007270  23.8570860  54.2489960
   4.2262770  30.9022300  55.3197550   4.5678470  31.6464530  54.8240870
   3.3975480  31.2153420  55.6822380  10.5016450  26.0410450  54.1089240
  10.4180170  26.4724670  53.2585680  11.2210640  26.5008800  54.5416060
  11.5303700  32.8952710  56.8371370  10.8879860  32.2408330  57.1115090
  11.1434360  33.3007800  56.0612040   7.1090180  30.2238140  60.6843060
   7.4614000  29.6266270  60.0244430   6.2252510  29.8982370  60.8551310
   3.1953460  30.9835830  58.0913470   3.8824590  31.5305040  58.4721060
   2.4085880  31.5276560  58.1263080   2.4980670  27.9881860  57.7038830
   2.9543450  28.7987110  57.9299020   2.1468880  27.6705000  58.5357320
   6.0745360  31.5020550  63.6508580   6.7167590  30.8013710  63.7640750
   6.5994710  32.2818990  63.4705470   9.9201080  31.7869170  53.3747720
   9.6938660  31.0699610  53.9672360   9.5297280  31.5381610  52.5369470
   9.5017330  29.7041110  55.0361880   9.2139030  30.1653800  55.8239760
  10.2969500  29.2438880  55.3046100  10.2587190  21.5389880  56.1957060
   9.6300350  21.6435550  55.4815290   9.7639110  21.7586660  56.9850940
   4.7045330  33.2595470  53.6291040   4.8057310  33.0559460  52.6993020
   3.8047070  33.0053750  53.8338820   2.2271220  23.8175830  57.6114940
   1.5187370  24.2862170  58.0528550   2.5115700  23.1597840  58.2460130
   6.2586650  20.5426490  59.0510730   6.1354430  20.5612620  58.1020240
   7.2071210  20.5905430  59.1709130   3.3463440  35.7781790  58.3238710
   3.6004940  35.7403180  57.4018080   2.3975920  35.6515120  58.3166960
   9.3516020  26.6973670  59.8997220   8.4106160  26.7123900  60.0744910
   9.6660090  25.9109630  60.3457520  11.3541600  33.8682520  61.5751480
  11.4789020  34.6913690  62.0475290  12.2207160  33.6573250  61.2275630
   1.9361440  35.1344040  53.0694180   2.7290050  35.4232870  52.6175970
   1.4165790  34.7036210  52.3906660  10.9891610  34.3614170  54.4930920
  10.7033120  33.9479310  53.6785100  10.7911160  35.2901880  54.3731440
   2.4538840  30.3547450  52.9336530   2.3489480  29.7399800  53.6597910
   2.2863060  29.8313340  52.1499540   5.6941570  29.4167480  53.5378520
   5.1451670  29.8636780  54.1821260   6.3160830  28.9116730  54.0616190
   3.8744330  27.3996010  52.6820920   4.3949990  26.6845030  52.3162070
   4.5212730  28.0381880  52.9821430   7.7363900  19.2599860  54.9088860
   8.0166190  18.4167760  55.2648280   6.9629630  19.4922970  55.4227610
   2.2743320  20.4926870  53.3536060   1.9265320  19.8150860  52.7738510
   2.4756090  20.0316380  54.1679450   4.4392360  35.4807620  54.9722660
   5.3343150  35.8192590  54.9941420   4.4709990  34.7587030  54.3446940
  12.6588160  31.7529110  53.0158570  11.8281120  31.8205760  53.4865800
  12.8359990  32.6433230  52.7125430  12.1144620  28.4976590  55.5192770
  12.8763530  29.0673240  55.6252460  12.1298990  27.9303790  56.2901080
  13.1204590  29.3526690  60.3634700  13.4913420  28.5694010  59.9570670
  13.7606520  30.0415790  60.1852000  12.1663790  28.7910960  52.6765290
  12.4412630  29.6989840  52.5484510  11.9774530  28.7273490  53.6127280
   8.5639400  21.8155810  53.9718920   8.9824280  21.6286790  53.1315580
   8.2575460  20.9634860  54.2821850  12.0629130  26.7279950  57.6694720
  11.6872730  25.9607880  57.2376010  11.3332250  27.1102650  58.1569650
  11.3380090  24.9537440  60.9701960  11.8617570  24.4600090  60.3392130
  11.9239510  25.0887800  61.7149530  11.5169810  25.0377310  64.4921510
  10.5672520  25.0040850  64.6066500  11.6982820  25.9477420  64.2571280
  10.8280060  24.2110790  56.9094370  11.3239180  23.9781660  57.6943250
  10.6296130  23.3722630  56.4932010  12.2567220  22.8471740  59.4432050
  12.1466500  22.6927780  60.3814320  13.0174810  22.3192680  59.2007460
  13.1457490  20.6779660  52.6838190  14.0706800  20.5460840  52.4756480
  13.1233280  20.7572480  53.6374640  13.2195980  21.4490320  55.3094900
  12.4247480  21.3835440  55.8387810  13.4239260  22.3840960  55.2980250
  10.1614400  35.4881870  59.3033290  10.7573470  35.1666440  58.6267710
  10.4192550  35.0153690  60.0946560   1.7683000  33.4759370  65.0533640
   1.5274360  33.7433930  64.1664160   2.7085640  33.6465100  65.1084500
  10.7126610  36.1377170  63.1331020  10.2529580  36.8892980  62.7589040
  10.0839070  35.4183640  63.0745820   3.8817830  35.3373900  63.1348130
   4.1695640  35.0828200  62.2581140   4.3941050  34.7851260  63.7253700
   5.0994840  19.0764100  63.7144640   4.3166630  19.5509600  63.9941400
   4.8057770  18.1718930  63.6057820   9.6515910  19.7787200  61.7593730
  10.0924000  19.7232300  60.9115330   9.3823500  20.6945210  61.8303910
  11.5154480  19.4102440  59.7702550  11.4542880  18.4663660  59.6233570
  12.2946510  19.5182530  60.3156010   2.9849060  21.4950850  59.2260670
   2.1723570  21.1207740  58.8856550   3.4890700  20.7395930  59.5281860
   7.4874040  18.1593300  60.4643740   8.0903410  18.7313510  60.9392260
   6.7467030  18.7232740  60.2417640  10.6308640  18.5614860  55.7384020
  10.8259270  19.4598310  56.0051450   9.8438510  18.3301940  56.2316970
  12.1835250  35.8015570  57.4990580  12.3587440  35.1153310  56.8551500
  11.4856820  36.3262620  57.1067250   6.6427410  26.3580800  41.2073420
   6.5621460  25.4435410  40.9365130   6.2291830  26.8547870  40.5013130
   4.7745450  28.1359820  43.0882690   3.9987550  27.6560260  43.3781260
   5.4258380  27.4565470  42.9138850   8.7952880  32.5420010  41.8681820
   8.3334410  31.7707250  42.1968990   9.6078430  32.5686080  42.3734270
   5.0216190  34.8278020  41.4885810   4.4027630  35.2835520  40.9180250
   5.8767970  34.9829480  41.0875510   4.2154440  30.8117010  43.0952850
   4.1462720  29.8706950  42.9341980   4.9774300  30.9018420  43.6675420
   5.2459610  23.6187390  43.3221780   5.6224430  22.7459270  43.2095450
   5.1479120  23.9546090  42.4312220   9.0283730  21.1137830  40.2550120
   9.8493350  20.6234400  40.2975600   9.0617810  21.7035490  41.0081960
  13.3183280  23.1304580  46.8193750  12.6135450  23.5186290  46.3008860
  13.5841200  23.8254870  47.4214680   5.8879540  29.7117260  38.8817720
   5.2696810  30.1766710  38.3180440   6.4002790  30.4044740  39.2987230
   9.2645210  23.0538210  43.0277660   8.5600780  23.3423100  43.6080770
   9.6257370  23.8638320  42.6677220  10.8807990  32.6713340  45.2905140
  10.1971510  33.3412450  45.2821810  11.4202280  32.8693990  44.5250000
  12.3332130  22.4993000  43.4186870  11.3857040  22.5331980  43.5502300
  12.6582120  23.3131950  43.8036230   2.8651670  18.7990180  41.7142860
   3.1726650  18.2437070  40.9978360   1.9352370  18.9334640  41.5315850
   8.4166730  34.5157470  44.0050320   8.4293890  34.1119760  43.1372580
   7.8641950  35.2904760  43.9011750   9.7112150  31.2373690  39.0940490
   9.6008480  30.2948020  39.2189910   9.7080400  31.5989330  39.9803250
   7.8152170  29.4187310  45.3332930   8.2320960  29.2047420  44.4986390
   8.5391990  29.6760100  45.9041550   5.2532430  26.8639010  38.4502980
   4.3261710  26.7976390  38.6791450   5.4057250  27.8019140  38.3358220
   5.2401510  23.1356010  35.4470140   4.3005180  23.2969970  35.5322600
   5.5584770  23.8541690  34.9006130  11.7614270  27.8174530  45.4249170
  10.9332900  27.8867620  44.9499300  12.3564750  28.4028840  44.9565000
   9.2829720  28.4259310  38.9538230   8.6642140  28.0878860  38.3064530
   9.2654170  27.7819070  39.6617420   8.7256280  24.6043850  46.3704040
   8.3127460  25.4297560  46.6244030   7.9932230  24.0188890  46.1780400
   9.4156380  34.6503180  47.0585020   8.9386940  35.4575370  46.8657630
   8.7318170  33.9981510  47.2111230   7.4594420  27.6646120  35.9610980
   7.8987700  26.8268550  35.8148800   8.1722840  28.2975520  36.0475120
   5.5689800  32.6042190  39.9292220   6.0085710  33.3466520  39.5147610
   5.5076690  32.8468760  40.8531180  11.0411560  18.9188930  34.2752020
  10.7284220  19.0115760  35.1751090  11.8024030  19.4969960  34.2249450
  12.9955590  34.4115120  52.1276410  13.4715310  34.8898010  52.8065490
  13.6162750  34.3432610  51.4021910  12.3988840  31.6027970  49.2876420
  12.5251900  31.3639850  48.3693600  12.4410220  30.7712510  49.7598500
   6.2605580  35.3055970  47.8571230   6.7750250  35.2163980  48.6593660
   5.4174660  35.6515670  48.1499140   8.2359980  35.5911310  37.2855230
   8.0761120  35.3014250  38.1837060   8.0706690  34.8151440  36.7500460
   7.9386110  33.0998870  35.8453230   7.2451270  33.0976160  35.1855510
   8.6808970  32.6758190  35.4147400   7.5036040  34.7261580  39.9201720
   7.9592990  33.9450960  40.2340340   7.8428560  35.4368400  40.4642900
  12.2512850  23.6560430  50.2526160  11.6357120  24.1640100  49.7241620
  11.9309270  22.7558760  50.1952100   4.3127170  22.4952320  47.7188350
   3.8506540  22.7035340  48.5308290   3.9105280  21.6811670  47.4159020
   9.3131680  23.7161270  48.8485010   8.4625270  23.4167020  49.1694080
   9.1533470  23.9603280  47.9368830   6.4081390  25.2163020  50.9483800
   6.7334800  24.3826770  50.6086030   7.1961720  25.7391540  51.0962130
   3.1416180  19.2494500  36.9958860   2.5170360  19.2454370  37.7212170
   3.0546300  18.3825460  36.5994830   2.0633260  20.1731130  43.9742630
   2.3605590  21.0793960  43.8934650   2.6118820  19.6849910  43.3602200
   7.0469340  24.7580740  38.4424930   6.4478230  25.4816540  38.2588550
   7.5948950  24.6957520  37.6601380   2.2570790  25.6502950  50.5094550
   2.1614390  24.7097680  50.3594950   3.1002770  25.8718020  50.1142620
   5.6534210  23.3944280  40.4728210   6.0463780  23.7116480  39.6596900
   6.0151060  22.5156160  40.5872730   3.9626380  22.1451590  51.7325070
   3.2724700  21.9523790  52.3671160   4.7058680  22.4286230  52.2649370
   6.2389350  25.9850030  44.5678990   5.5070470  26.4936840  44.9169090
   5.8413690  25.1680010  44.2667770   2.6766740  22.6604230  42.9731480
   2.6802800  22.2194180  42.1236020   3.5717860  22.9821560  43.0803300
   2.7386890  23.6616310  35.9638240   2.8599710  23.6202790  36.9124060
   2.3535400  24.5240460  35.8084970   6.7015260  21.4383710  43.9801930
   6.7188000  21.8892360  44.8243780   6.4530840  20.5389350  44.1935370
  10.1286010  18.8515890  49.8188310  10.4531780  18.1205550  50.3446290
  10.1642520  18.5329530  48.9169300   2.9774710  26.7206010  44.7196890
   3.3444840  26.2464580  45.4658230   2.7879770  27.5947580  45.0605230
  10.0543850  28.9641000  43.4274340  10.7742970  29.4596290  43.0370450
   9.8525670  28.2858890  42.7828210   5.5153790  20.3578960  37.5703730
   4.7018400  19.8592130  37.4949040   5.3215740  21.1977210  37.1540080
   5.4362650  29.0350060  49.3143340   5.3699960  28.1145730  49.0600930
   4.8067790  29.1325500  50.0287980   8.2302180  24.7298610  35.8665890
   9.1181800  25.0415840  35.6917230   8.2007270  23.8570860  35.4746470
   4.2262770  30.9022300  36.5454060   4.5678470  31.6464530  36.0497380
   3.3975480  31.2153420  36.9078890   5.3679380  31.8570630  49.0647140
   5.3823920  30.9251590  48.8466050   4.6604480  31.9430390  49.7036910
  10.5016450  26.0410450  35.3345750  10.4180170  26.4724670  34.4842190
  11.2210640  26.5008800  35.7672570  11.5790590  28.4977970  48.4115720
  10.8538780  29.0906750  48.2145110  12.1066050  28.4901510  47.6129090
  11.5303700  32.8952710  38.0627880  10.8879860  32.2408330  38.3371600
  11.1434360  33.3007800  37.2868550   7.1090180  30.2238140  41.9099570
   7.4614000  29.6266270  41.2500940   6.2252510  29.8982370  42.0807820
   3.1953460  30.9835830  39.3169980   3.8824590  31.5305040  39.6977570
   2.4085880  31.5276560  39.3519590   2.4980670  27.9881860  38.9295340
   2.9543450  28.7987110  39.1555530   2.1468880  27.6705000  39.7613830
   4.8013280  33.4988200  46.1587640   5.4455500  33.7047580  46.8361060
   5.1642720  32.7376600  45.7058490   6.0745360  31.5020550  44.8765090
   6.7167590  30.8013710  44.9897260   6.5994710  32.2818990  44.6961980
   9.9201080  31.7869170  34.6004230   9.6938660  31.0699610  35.1928870
   9.5297280  31.5381610  33.7625980   7.8482980  32.3015450  48.0801150
   8.1839220  32.8882140  48.7579070   6.9283320  32.1708160  48.3098940
   9.5017330  29.7041110  36.2618390   9.2139030  30.1653800  37.0496270
  10.2969500  29.2438880  36.5302610   3.6771560  32.3506780  51.2489210
   3.3568430  31.6316020  51.7934900   3.0029920  33.0261850  51.3225270
   6.8925160  22.5832940  46.6126010   7.2605980  21.7628150  46.9405580
   6.0323360  22.6434830  47.0281660  10.2587190  21.5389880  37.4213570
   9.6300350  21.6435550  36.7071800   9.7639110  21.7586660  38.2107450
   4.7045330  33.2595470  34.8547550   4.8057310  33.0559460  33.9249530
   3.8047070  33.0053750  35.0595330   2.2271220  23.8175830  38.8371450
   1.5187370  24.2862170  39.2785060   2.5115700  23.1597840  39.4716640
   3.8527150  25.2372530  46.8363980   4.3512400  25.7118350  47.5015830
   3.9950100  24.3136050  47.0434010   6.2586650  20.5426490  40.2767240
   6.1354430  20.5612620  39.3276750   7.2071210  20.5905430  40.3965640
   3.3463440  35.7781790  39.5495220   3.6004940  35.7403180  38.6274590
   2.3975920  35.6515120  39.5423470  11.0594010  21.4540490  47.6792370
  10.5567610  22.1945890  48.0186180  11.8750670  21.8424490  47.3629160
   9.3516020  26.6973670  41.1253730   8.4106160  26.7123900  41.3001420
   9.6660090  25.9109630  41.5714030  11.3541600  33.8682520  42.8007990
  11.4789020  34.6913690  43.2731800  12.2207160  33.6573250  42.4532140
   1.9361440  35.1344040  34.2950690   2.7290050  35.4232870  33.8432480
   1.4165790  34.7036210  33.6163170   6.6682040  31.2539670  51.6086110
   6.0620200  31.2771270  50.8681860   6.3636150  30.5222710  52.1453360
   8.0982410  34.9819960  50.2195520   9.0504160  34.8977980  50.1695760
   7.9510630  35.6461670  50.8929310  10.9891610  34.3614170  35.7187430
  10.7033120  33.9479310  34.9041610  10.7911160  35.2901880  35.5987950
   2.4538840  30.3547450  34.1593040   2.3489480  29.7399800  34.8854420
   2.2863060  29.8313340  33.3756050   2.6053160  29.0404250  50.1382270
   1.8398830  29.6089250  50.0536940   2.7869120  28.7480460  49.2450500
   5.6941570  29.4167480  34.7635030   5.1451670  29.8636780  35.4077770
   6.3160830  28.9116730  35.2872700   9.7476510  30.7709580  50.6957290
  10.4885980  31.1085340  50.1924750   8.9849190  30.9401640  50.1427060
   3.8744330  27.3996010  33.9077430   4.3949990  26.6845030  33.5418580
   4.5212730  28.0381880  34.2077940   8.4222170  28.8224410  49.2312500
   8.8363190  28.9769490  50.0802920   7.4873170  28.9479630  49.3938280
   8.8944340  26.1620570  51.2351650   9.4765110  25.4072890  51.1472130
   9.0706110  26.6928010  50.4583130   2.7777850  19.8790560  46.5795990
   2.3295150  19.9014820  45.7341540   2.1443050  19.4809580  47.1766290
   3.1837400  28.7744890  47.2008430   3.6025510  29.6177620  47.0284670
   2.2646030  28.9116930  46.9715210   5.5201300  26.5061070  48.5846270
   5.6397510  25.9102210  49.3241110   6.3795300  26.5430760  48.1647570
   7.8589200  27.0598260  47.1608780   7.3324420  27.5840880  46.5573920
   8.2020540  27.6925650  47.7918510   2.2870070  23.0482420  49.8422090
   2.8769760  22.7398270  50.5299910   1.4690310  22.5762170  49.9981990
   7.1063500  22.6648230  50.0755110   6.4179020  22.0029770  50.0105100
   7.8269520  22.2186500  50.5203570   7.7363900  19.2599860  36.1345370
   8.0166190  18.4167760  36.4904790   6.9629630  19.4922970  36.6484120
   3.8907030  36.3149110  48.5752810   3.8165730  37.2184250  48.8825180
   2.9885870  35.9961010  48.5474880   2.2743320  20.4926870  34.5792570
   1.9265320  19.8150860  33.9995020   2.4756090  20.0316380  35.3935960
   4.4392360  35.4807620  36.1979170   5.3343150  35.8192590  36.2197930
   4.4709990  34.7587030  35.5703450  11.4186710  34.0111290  48.9045370
  10.8188700  34.0703850  48.1609290  11.5480610  33.0716270  49.0342220
  12.6588160  31.7529110  34.2415080  11.8281120  31.8205760  34.7122310
  12.8359990  32.6433230  33.9381940  12.1144620  28.4976590  36.7449280
  12.8763530  29.0673240  36.8508970  12.1298990  27.9303790  37.5157590
  13.1204590  29.3526690  41.5891210  13.4913420  28.5694010  41.1827180
  13.7606520  30.0415790  41.4108510  10.1038350  30.7363270  47.0021530
   9.2898190  31.1660430  47.2647320  10.5112550  31.3481680  46.3890580
  12.1663790  28.7910960  33.9021800  12.4412630  29.6989840  33.7741020
  11.9774530  28.7273490  34.8383790   8.5639400  21.8155810  35.1975430
   8.9824280  21.6286790  34.3572090   8.2575460  20.9634860  35.5078360
  12.0629130  26.7279950  38.8951230  11.6872730  25.9607880  38.4632520
  11.3332250  27.1102650  39.3826160  11.4528750  25.8751470  48.5290750
  11.2214840  25.6464220  47.6288700  11.7133300  26.7951020  48.4835640
   9.8916820  21.1007900  51.3070450  10.7687000  21.1091300  51.6904450
   9.9037660  20.3638740  50.6962800  11.3380090  24.9537440  42.1958470
  11.8617570  24.4600090  41.5648640  11.9239510  25.0887800  42.9406040
  11.5169810  25.0377310  45.7178020  10.5672520  25.0040850  45.8323010
  11.6982820  25.9477420  45.4827790  10.8280060  24.2110790  38.1350880
  11.3239180  23.9781660  38.9199760  10.6296130  23.3722630  37.7188520
  12.2567220  22.8471740  40.6688560  12.1466500  22.6927780  41.6070830
  13.0174810  22.3192680  40.4263970  10.6032940  18.7865870  47.1271560
  11.2405160  19.4000010  47.4930750  10.7507830  18.8226530  46.1820790
  13.1457490  20.6779660  33.9094700  14.0706800  20.5460840  33.7012990
  13.1233280  20.7572480  34.8631150  13.2195980  21.4490320  36.5351410
  12.4247480  21.3835440  37.0644320  13.4239260  22.3840960  36.5236760
  10.1614400  35.4881870  40.5289800  10.7573470  35.1666440  39.8524220
  10.4192550  35.0153690  41.3203070   1.7683000  33.4759370  46.2790150
   1.5274360  33.7433930  45.3920670   2.7085640  33.6465100  46.3341010
   3.9737420  19.9392060  50.0346660   3.9126310  20.5313890  50.7842070
   4.9137800  19.8318020  49.8896920   6.6111980  19.5962120  49.6738950
   7.2252390  19.9141410  49.0120030   7.1561540  19.1110710  50.2934810
  13.0287160  35.4953750  47.0800790  12.5345440  35.8922620  46.3627920
  12.4200450  34.8702960  47.4738070   7.3520020  18.1594260  46.0008240
   6.4779860  18.4929370  45.7981170   7.2430770  17.6867440  46.8260110
   8.2592000  20.3665130  47.3849960   7.9305360  19.5516890  47.0051690
   9.2074300  20.3234940  47.2615650  10.7126610  36.1377170  44.3587530
  10.2529580  36.8892980  43.9845550  10.0839070  35.4183640  44.3002330
   3.8817830  35.3373900  44.3604640   4.1695640  35.0828200  43.4837650
   4.3941050  34.7851260  44.9510210   5.0994840  19.0764100  44.9401150
   4.3166630  19.5509600  45.2197910   4.8057770  18.1718930  44.8314330
   9.6515910  19.7787200  42.9850240  10.0924000  19.7232300  42.1371840
   9.3823500  20.6945210  43.0560420  11.5154480  19.4102440  40.9959060
  11.4542880  18.4663660  40.8490080  12.2946510  19.5182530  41.5412520
   2.9849060  21.4950850  40.4517180   2.1723570  21.1207740  40.1113060
   3.4890700  20.7395930  40.7538370   7.4874040  18.1593300  41.6900250
   8.0903410  18.7313510  42.1648770   6.7467030  18.7232740  41.4674150
  10.6308640  18.5614860  36.9640530  10.8259270  19.4598310  37.2307960
   9.8438510  18.3301940  37.4573480   3.9490190  36.2590000  51.7272840
   4.8757500  36.0234270  51.7708800   3.9340620  37.0862000  51.2458870
  12.1835250  35.8015570  38.7247090  12.3587440  35.1153310  38.0808010
  11.4856820  36.3262620  38.3323760   7.7369260  18.3388330  52.0695190
   7.6234710  18.6582940  52.9646710   8.5539000  18.7400840  51.7732470
  10.5167750  35.4859860  51.5513880  11.3093070  34.9909090  51.3439840
  10.8100900  36.1650000  52.1589490   6.6427410  26.3580800  22.4329930
   6.5621460  25.4435410  22.1621640   6.2291830  26.8547870  21.7269640
   4.7745450  28.1359820  24.3139200   3.9987550  27.6560260  24.6037770
   5.4258380  27.4565470  24.1395360   8.7952880  32.5420010  23.0938330
   8.3334410  31.7707250  23.4225500   9.6078430  32.5686080  23.5990780
   5.0216190  34.8278020  22.7142320   4.4027630  35.2835520  22.1436760
   5.8767970  34.9829480  22.3132020   4.2154440  30.8117010  24.3209360
   4.1462720  29.8706950  24.1598490   4.9774300  30.9018420  24.8931930
   5.2459610  23.6187390  24.5478290   5.6224430  22.7459270  24.4351960
   5.1479120  23.9546090  23.6568730   9.0283730  21.1137830  21.4806630
   9.8493350  20.6234400  21.5232110   9.0617810  21.7035490  22.2338470
  13.3183280  23.1304580  28.0450260  12.6135450  23.5186290  27.5265370
  13.5841200  23.8254870  28.6471190   5.8879540  29.7117260  20.1074230
   5.2696810  30.1766710  19.5436950   6.4002790  30.4044740  20.5243740
   9.2645210  23.0538210  24.2534170   8.5600780  23.3423100  24.8337280
   9.6257370  23.8638320  23.8933730  10.8807990  32.6713340  26.5161650
  10.1971510  33.3412450  26.5078320  11.4202280  32.8693990  25.7506510
  12.3332130  22.4993000  24.6443380  11.3857040  22.5331980  24.7758810
  12.6582120  23.3131950  25.0292740   2.8651670  18.7990180  22.9399370
   3.1726650  18.2437070  22.2234870   1.9352370  18.9334640  22.7572360
   8.4166730  34.5157470  25.2306830   8.4293890  34.1119760  24.3629090
   7.8641950  35.2904760  25.1268260   9.7112150  31.2373690  20.3197000
   9.6008480  30.2948020  20.4446420   9.7080400  31.5989330  21.2059760
   7.8152170  29.4187310  26.5589440   8.2320960  29.2047420  25.7242900
   8.5391990  29.6760100  27.1298060   5.2532430  26.8639010  19.6759490
   4.3261710  26.7976390  19.9047960   5.4057250  27.8019140  19.5614730
   5.2401510  23.1356010  16.6726650   4.3005180  23.2969970  16.7579110
   5.5584770  23.8541690  16.1262640  11.7614270  27.8174530  26.6505680
  10.9332900  27.8867620  26.1755810  12.3564750  28.4028840  26.1821510
   9.2829720  28.4259310  20.1794740   8.6642140  28.0878860  19.5321040
   9.2654170  27.7819070  20.8873930   8.7256280  24.6043850  27.5960550
   8.3127460  25.4297560  27.8500540   7.9932230  24.0188890  27.4036910
   9.4156380  34.6503180  28.2841530   8.9386940  35.4575370  28.0914140
   8.7318170  33.9981510  28.4367740   7.4594420  27.6646120  17.1867490
   7.8987700  26.8268550  17.0405310   8.1722840  28.2975520  17.2731630
   5.5689800  32.6042190  21.1548730   6.0085710  33.3466520  20.7404120
   5.5076690  32.8468760  22.0787690  11.0411560  18.9188930  15.5008530
  10.7284220  19.0115760  16.4007600  11.8024030  19.4969960  15.4505960
  12.9955590  34.4115120  33.3532920  13.4715310  34.8898010  34.0322000
  13.6162750  34.3432610  32.6278420  12.3988840  31.6027970  30.5132930
  12.5251900  31.3639850  29.5950110  12.4410220  30.7712510  30.9855010
   6.2605580  35.3055970  29.0827740   6.7750250  35.2163980  29.8850170
   5.4174660  35.6515670  29.3755650   8.2359980  35.5911310  18.5111740
   8.0761120  35.3014250  19.4093570   8.0706690  34.8151440  17.9756970
   7.9386110  33.0998870  17.0709740   7.2451270  33.0976160  16.4112020
   8.6808970  32.6758190  16.6403910   7.5036040  34.7261580  21.1458230
   7.9592990  33.9450960  21.4596850   7.8428560  35.4368400  21.6899410
  12.2512850  23.6560430  31.4782670  11.6357120  24.1640100  30.9498130
  11.9309270  22.7558760  31.4208610   4.3127170  22.4952320  28.9444860
   3.8506540  22.7035340  29.7564800   3.9105280  21.6811670  28.6415530
   9.3131680  23.7161270  30.0741520   8.4625270  23.4167020  30.3950590
   9.1533470  23.9603280  29.1625340   6.4081390  25.2163020  32.1740310
   6.7334800  24.3826770  31.8342540   7.1961720  25.7391540  32.3218640
   3.1416180  19.2494500  18.2215370   2.5170360  19.2454370  18.9468680
   3.0546300  18.3825460  17.8251340   2.0633260  20.1731130  25.1999140
   2.3605590  21.0793960  25.1191160   2.6118820  19.6849910  24.5858710
   7.0469340  24.7580740  19.6681440   6.4478230  25.4816540  19.4845060
   7.5948950  24.6957520  18.8857890   2.2570790  25.6502950  31.7351060
   2.1614390  24.7097680  31.5851460   3.1002770  25.8718020  31.3399130
   5.6534210  23.3944280  21.6984720   6.0463780  23.7116480  20.8853410
   6.0151060  22.5156160  21.8129240   3.9626380  22.1451590  32.9581580
   3.2724700  21.9523790  33.5927670   4.7058680  22.4286230  33.4905880
   6.2389350  25.9850030  25.7935500   5.5070470  26.4936840  26.1425600
   5.8413690  25.1680010  25.4924280   2.6766740  22.6604230  24.1987990
   2.6802800  22.2194180  23.3492530   3.5717860  22.9821560  24.3059810
   2.7386890  23.6616310  17.1894750   2.8599710  23.6202790  18.1380570
   2.3535400  24.5240460  17.0341480   6.7015260  21.4383710  25.2058440
   6.7188000  21.8892360  26.0500290   6.4530840  20.5389350  25.4191880
  10.1286010  18.8515890  31.0444820  10.4531780  18.1205550  31.5702800
  10.1642520  18.5329530  30.1425810   2.9774710  26.7206010  25.9453400
   3.3444840  26.2464580  26.6914740   2.7879770  27.5947580  26.2861740
  10.0543850  28.9641000  24.6530850  10.7742970  29.4596290  24.2626960
   9.8525670  28.2858890  24.0084720   5.5153790  20.3578960  18.7960240
   4.7018400  19.8592130  18.7205550   5.3215740  21.1977210  18.3796590
   5.4362650  29.0350060  30.5399850   5.3699960  28.1145730  30.2857440
   4.8067790  29.1325500  31.2544490   8.2302180  24.7298610  17.0922400
   9.1181800  25.0415840  16.9173740   8.2007270  23.8570860  16.7002980
   4.2262770  30.9022300  17.7710570   4.5678470  31.6464530  17.2753890
   3.3975480  31.2153420  18.1335400   5.3679380  31.8570630  30.2903650
   5.3823920  30.9251590  30.0722560   4.6604480  31.9430390  30.9293420
  10.5016450  26.0410450  16.5602260  10.4180170  26.4724670  15.7098700
  11.2210640  26.5008800  16.9929080  11.5790590  28.4977970  29.6372230
  10.8538780  29.0906750  29.4401620  12.1066050  28.4901510  28.8385600
  11.5303700  32.8952710  19.2884390  10.8879860  32.2408330  19.5628110
  11.1434360  33.3007800  18.5125060   7.1090180  30.2238140  23.1356080
   7.4614000  29.6266270  22.4757450   6.2252510  29.8982370  23.3064330
   3.1953460  30.9835830  20.5426490   3.8824590  31.5305040  20.9234080
   2.4085880  31.5276560  20.5776100   2.4980670  27.9881860  20.1551850
   2.9543450  28.7987110  20.3812040   2.1468880  27.6705000  20.9870340
   4.8013280  33.4988200  27.3844150   5.4455500  33.7047580  28.0617570
   5.1642720  32.7376600  26.9315000   6.0745360  31.5020550  26.1021600
   6.7167590  30.8013710  26.2153770   6.5994710  32.2818990  25.9218490
   9.9201080  31.7869170  15.8260740   9.6938660  31.0699610  16.4185380
   9.5297280  31.5381610  14.9882490   7.8482980  32.3015450  29.3057660
   8.1839220  32.8882140  29.9835580   6.9283320  32.1708160  29.5355450
   9.5017330  29.7041110  17.4874900   9.2139030  30.1653800  18.2752780
  10.2969500  29.2438880  17.7559120   3.6771560  32.3506780  32.4745720
   3.3568430  31.6316020  33.0191410   3.0029920  33.0261850  32.5481780
   6.8925160  22.5832940  27.8382520   7.2605980  21.7628150  28.1662090
   6.0323360  22.6434830  28.2538170  10.2587190  21.5389880  18.6470080
   9.6300350  21.6435550  17.9328310   9.7639110  21.7586660  19.4363960
   4.7045330  33.2595470  16.0804060   4.8057310  33.0559460  15.1506040
   3.8047070  33.0053750  16.2851840   2.2271220  23.8175830  20.0627960
   1.5187370  24.2862170  20.5041570   2.5115700  23.1597840  20.6973150
   3.8527150  25.2372530  28.0620490   4.3512400  25.7118350  28.7272340
   3.9950100  24.3136050  28.2690520   6.2586650  20.5426490  21.5023750
   6.1354430  20.5612620  20.5533260   7.2071210  20.5905430  21.6222150
   3.3463440  35.7781790  20.7751730   3.6004940  35.7403180  19.8531100
   2.3975920  35.6515120  20.7679980  11.0594010  21.4540490  28.9048880
  10.5567610  22.1945890  29.2442690  11.8750670  21.8424490  28.5885670
   9.3516020  26.6973670  22.3510240   8.4106160  26.7123900  22.5257930
   9.6660090  25.9109630  22.7970540  11.3541600  33.8682520  24.0264500
  11.4789020  34.6913690  24.4988310  12.2207160  33.6573250  23.6788650
   1.9361440  35.1344040  15.5207200   2.7290050  35.4232870  15.0688990
   1.4165790  34.7036210  14.8419680   6.6682040  31.2539670  32.8342620
   6.0620200  31.2771270  32.0938370   6.3636150  30.5222710  33.3709870
   8.0982410  34.9819960  31.4452030   9.0504160  34.8977980  31.3952270
   7.9510630  35.6461670  32.1185820  10.9891610  34.3614170  16.9443940
  10.7033120  33.9479310  16.1298120  10.7911160  35.2901880  16.8244460
   2.4538840  30.3547450  15.3849550   2.3489480  29.7399800  16.1110930
   2.2863060  29.8313340  14.6012560   2.6053160  29.0404250  31.3638780
   1.8398830  29.6089250  31.2793450   2.7869120  28.7480460  30.4707010
   5.6941570  29.4167480  15.9891540   5.1451670  29.8636780  16.6334280
   6.3160830  28.9116730  16.5129210   9.7476510  30.7709580  31.9213800
  10.4885980  31.1085340  31.4181260   8.9849190  30.9401640  31.3683570
   3.8744330  27.3996010  15.1333940   4.3949990  26.6845030  14.7675090
   4.5212730  28.0381880  15.4334450   8.4222170  28.8224410  30.4569010
   8.8363190  28.9769490  31.3059430   7.4873170  28.9479630  30.6194790
   8.8944340  26.1620570  32.4608160   9.4765110  25.4072890  32.3728640
   9.0706110  26.6928010  31.6839640   2.7777850  19.8790560  27.8052500
   2.3295150  19.9014820  26.9598050   2.1443050  19.4809580  28.4022800
   3.1837400  28.7744890  28.4264940   3.6025510  29.6177620  28.2541180
   2.2646030  28.9116930  28.1971720   5.5201300  26.5061070  29.8102780
   5.6397510  25.9102210  30.5497620   6.3795300  26.5430760  29.3904080
   7.8589200  27.0598260  28.3865290   7.3324420  27.5840880  27.7830430
   8.2020540  27.6925650  29.0175020   2.2870070  23.0482420  31.0678600
   2.8769760  22.7398270  31.7556420   1.4690310  22.5762170  31.2238500
   7.1063500  22.6648230  31.3011620   6.4179020  22.0029770  31.2361610
   7.8269520  22.2186500  31.7460080   7.7363900  19.2599860  17.3601880
   8.0166190  18.4167760  17.7161300   6.9629630  19.4922970  17.8740630
   3.8907030  36.3149110  29.8009320   3.8165730  37.2184250  30.1081690
   2.9885870  35.9961010  29.7731390   2.2743320  20.4926870  15.8049080
   1.9265320  19.8150860  15.2251530   2.4756090  20.0316380  16.6192470
   4.4392360  35.4807620  17.4235680   5.3343150  35.8192590  17.4454440
   4.4709990  34.7587030  16.7959960  11.4186710  34.0111290  30.1301880
  10.8188700  34.0703850  29.3865800  11.5480610  33.0716270  30.2598730
  12.6588160  31.7529110  15.4671590  11.8281120  31.8205760  15.9378820
  12.8359990  32.6433230  15.1638450  12.1144620  28.4976590  17.9705790
  12.8763530  29.0673240  18.0765480  12.1298990  27.9303790  18.7414100
  13.1204590  29.3526690  22.8147720  13.4913420  28.5694010  22.4083690
  13.7606520  30.0415790  22.6365020  10.1038350  30.7363270  28.2278040
   9.2898190  31.1660430  28.4903830  10.5112550  31.3481680  27.6147090
  12.1663790  28.7910960  15.1278310  12.4412630  29.6989840  14.9997530
  11.9774530  28.7273490  16.0640300   8.5639400  21.8155810  16.4231940
   8.9824280  21.6286790  15.5828600   8.2575460  20.9634860  16.7334870
  12.0629130  26.7279950  20.1207740  11.6872730  25.9607880  19.6889030
  11.3332250  27.1102650  20.6082670  11.4528750  25.8751470  29.7547260
  11.2214840  25.6464220  28.8545210  11.7133300  26.7951020  29.7092150
   9.8916820  21.1007900  32.5326960  10.7687000  21.1091300  32.9160960
   9.9037660  20.3638740  31.9219310  11.3380090  24.9537440  23.4214980
  11.8617570  24.4600090  22.7905150  11.9239510  25.0887800  24.1662550
  11.5169810  25.0377310  26.9434530  10.5672520  25.0040850  27.0579520
  11.6982820  25.9477420  26.7084300  10.8280060  24.2110790  19.3607390
  11.3239180  23.9781660  20.1456270  10.6296130  23.3722630  18.9445030
  12.2567220  22.8471740  21.8945070  12.1466500  22.6927780  22.8327340
  13.0174810  22.3192680  21.6520480  10.6032940  18.7865870  28.3528070
  11.2405160  19.4000010  28.7187260  10.7507830  18.8226530  27.4077300
  13.1457490  20.6779660  15.1351210  14.0706800  20.5460840  14.9269500
  13.1233280  20.7572480  16.0887660  13.2195980  21.4490320  17.7607920
  12.4247480  21.3835440  18.2900830  13.4239260  22.3840960  17.7493270
  10.1614400  35.4881870  21.7546310  10.7573470  35.1666440  21.0780730
  10.4192550  35.0153690  22.5459580   1.7683000  33.4759370  27.5046660
   1.5274360  33.7433930  26.6177180   2.7085640  33.6465100  27.5597520
   3.9737420  19.9392060  31.2603170   3.9126310  20.5313890  32.0098580
   4.9137800  19.8318020  31.1153430   6.6111980  19.5962120  30.8995460
   7.2252390  19.9141410  30.2376540   7.1561540  19.1110710  31.5191320
  13.0287160  35.4953750  28.3057300  12.5345440  35.8922620  27.5884430
  12.4200450  34.8702960  28.6994580   7.3520020  18.1594260  27.2264750
   6.4779860  18.4929370  27.0237680   7.2430770  17.6867440  28.0516620
   8.2592000  20.3665130  28.6106470   7.9305360  19.5516890  28.2308200
   9.2074300  20.3234940  28.4872160  10.7126610  36.1377170  25.5844040
  10.2529580  36.8892980  25.2102060  10.0839070  35.4183640  25.5258840
   3.8817830  35.3373900  25.5861150   4.1695640  35.0828200  24.7094160
   4.3941050  34.7851260  26.1766720   5.0994840  19.0764100  26.1657660
   4.3166630  19.5509600  26.4454420   4.8057770  18.1718930  26.0570840
   9.6515910  19.7787200  24.2106750  10.0924000  19.7232300  23.3628350
   9.3823500  20.6945210  24.2816930  11.5154480  19.4102440  22.2215570
  11.4542880  18.4663660  22.0746590  12.2946510  19.5182530  22.7669030
   2.9849060  21.4950850  21.6773690   2.1723570  21.1207740  21.3369570
   3.4890700  20.7395930  21.9794880   7.4874040  18.1593300  22.9156760
   8.0903410  18.7313510  23.3905280   6.7467030  18.7232740  22.6930660
  10.6308640  18.5614860  18.1897040  10.8259270  19.4598310  18.4564470
   9.8438510  18.3301940  18.6829990   3.9490190  36.2590000  32.9529350
   4.8757500  36.0234270  32.9965310   3.9340620  37.0862000  32.4715380
  12.1835250  35.8015570  19.9503600  12.3587440  35.1153310  19.3064520
  11.4856820  36.3262620  19.5580270   7.7369260  18.3388330  33.2951700
   7.6234710  18.6582940  34.1903220   8.5539000  18.7400840  32.9988980
  10.5167750  35.4859860  32.7770390  11.3093070  34.9909090  32.5696350
  10.8100900  36.1650000  33.3846000   6.6427410  26.3580800   3.6586440
   6.5621460  25.4435410   3.3878150   6.2291830  26.8547870   2.9526150
   4.7745450  28.1359820   5.5395710   3.9987550  27.6560260   5.8294280
   5.4258380  27.4565470   5.3651870   8.7952880  32.5420010   4.3194840
   8.3334410  31.7707250   4.6482010   9.6078430  32.5686080   4.8247290
   5.0216190  34.8278020   3.9398830   4.4027630  35.2835520   3.3693270
   5.8767970  34.9829480   3.5388530   4.2154440  30.8117010   5.5465870
   4.1462720  29.8706950   5.3855000   4.9774300  30.9018420   6.1188440
   5.2459610  23.6187390   5.7734800   5.6224430  22.7459270   5.6608470
   5.1479120  23.9546090   4.8825240   9.0283730  21.1137830   2.7063140
   9.8493350  20.6234400   2.7488620   9.0617810  21.7035490   3.4594980
  13.3183280  23.1304580   9.2706770  12.6135450  23.5186290   8.7521880
  13.5841200  23.8254870   9.8727700   9.2645210  23.0538210   5.4790680
   8.5600780  23.3423100   6.0593790   9.6257370  23.8638320   5.1190240
  10.8807990  32.6713340   7.7418160  10.1971510  33.3412450   7.7334830
  11.4202280  32.8693990   6.9763020  12.3332130  22.4993000   5.8699890
  11.3857040  22.5331980   6.0015320  12.6582120  23.3131950   6.2549250
   2.8651670  18.7990180   4.1655880   3.1726650  18.2437070   3.4491380
   1.9352370  18.9334640   3.9828870   8.4166730  34.5157470   6.4563340
   8.4293890  34.1119760   5.5885600   7.8641950  35.2904760   6.3524770
   7.8152170  29.4187310   7.7845950   8.2320960  29.2047420   6.9499410
   8.5391990  29.6760100   8.3554570  11.7614270  27.8174530   7.8762190
  10.9332900  27.8867620   7.4012320  12.3564750  28.4028840   7.4078020
   8.7256280  24.6043850   8.8217060   8.3127460  25.4297560   9.0757050
   7.9932230  24.0188890   8.6293420   9.4156380  34.6503180   9.5098040
   8.9386940  35.4575370   9.3170650   8.7318170  33.9981510   9.6624250
   5.5689800  32.6042190   2.3805240   6.0085710  33.3466520   1.9660630
   5.5076690  32.8468760   3.3044200  12.9955590  34.4115120  14.5789430
  13.4715310  34.8898010  15.2578510  13.6162750  34.3432610  13.8534930
  12.3988840  31.6027970  11.7389440  12.5251900  31.3639850  10.8206620
  12.4410220  30.7712510  12.2111520   6.2605580  35.3055970  10.3084250
   6.7750250  35.2163980  11.1106680   5.4174660  35.6515670  10.6012160
   7.5036040  34.7261580   2.3714740   7.9592990  33.9450960   2.6853360
   7.8428560  35.4368400   2.9155920  12.2512850  23.6560430  12.7039180
  11.6357120  24.1640100  12.1754640  11.9309270  22.7558760  12.6465120
   4.3127170  22.4952320  10.1701370   3.8506540  22.7035340  10.9821310
   3.9105280  21.6811670   9.8672040   9.3131680  23.7161270  11.2998030
   8.4625270  23.4167020  11.6207100   9.1533470  23.9603280  10.3881850
   6.4081390  25.2163020  13.3996820   6.7334800  24.3826770  13.0599050
   7.1961720  25.7391540  13.5475150   2.0633260  20.1731130   6.4255650
   2.3605590  21.0793960   6.3447670   2.6118820  19.6849910   5.8115220
   2.2570790  25.6502950  12.9607570   2.1614390  24.7097680  12.8107970
   3.1002770  25.8718020  12.5655640   5.6534210  23.3944280   2.9241230
   6.0463780  23.7116480   2.1109920   6.0151060  22.5156160   3.0385750
   3.9626380  22.1451590  14.1838090   3.2724700  21.9523790  14.8184180
   4.7058680  22.4286230  14.7162390   6.2389350  25.9850030   7.0192010
   5.5070470  26.4936840   7.3682110   5.8413690  25.1680010   6.7180790
   2.6766740  22.6604230   5.4244500   2.6802800  22.2194180   4.5749040
   3.5717860  22.9821560   5.5316320   6.7015260  21.4383710   6.4314950
   6.7188000  21.8892360   7.2756800   6.4530840  20.5389350   6.6448390
  10.1286010  18.8515890  12.2701330  10.4531780  18.1205550  12.7959310
  10.1642520  18.5329530  11.3682320   2.9774710  26.7206010   7.1709910
   3.3444840  26.2464580   7.9171250   2.7879770  27.5947580   7.5118250
  10.0543850  28.9641000   5.8787360  10.7742970  29.4596290   5.4883470
   9.8525670  28.2858890   5.2341230   5.4362650  29.0350060  11.7656360
   5.3699960  28.1145730  11.5113950   4.8067790  29.1325500  12.4801000
   5.3679380  31.8570630  11.5160160   5.3823920  30.9251590  11.2979070
   4.6604480  31.9430390  12.1549930  11.5790590  28.4977970  10.8628740
  10.8538780  29.0906750  10.6658130  12.1066050  28.4901510  10.0642110
   7.1090180  30.2238140   4.3612590   7.4614000  29.6266270   3.7013960
   6.2252510  29.8982370   4.5320840   3.1953460  30.9835830   1.7683000
   3.8824590  31.5305040   2.1490590   2.4085880  31.5276560   1.8032610
   4.8013280  33.4988200   8.6100660   5.4455500  33.7047580   9.2874080
   5.1642720  32.7376600   8.1571510   6.0745360  31.5020550   7.3278110
   6.7167590  30.8013710   7.4410280   6.5994710  32.2818990   7.1475000
   7.8482980  32.3015450  10.5314170   8.1839220  32.8882140  11.2092090
   6.9283320  32.1708160  10.7611960   3.6771560  32.3506780  13.7002230
   3.3568430  31.6316020  14.2447920   3.0029920  33.0261850  13.7738290
   6.8925160  22.5832940   9.0639030   7.2605980  21.7628150   9.3918600
   6.0323360  22.6434830   9.4794680   3.8527150  25.2372530   9.2877000
   4.3512400  25.7118350   9.9528850   3.9950100  24.3136050   9.4947030
   6.2586650  20.5426490   2.7280260   6.1354430  20.5612620   1.7789770
   7.2071210  20.5905430   2.8478660  11.0594010  21.4540490  10.1305390
  10.5567610  22.1945890  10.4699200  11.8750670  21.8424490   9.8142180
   9.3516020  26.6973670   3.5766750   8.4106160  26.7123900   3.7514440
   9.6660090  25.9109630   4.0227050  11.3541600  33.8682520   5.2521010
  11.4789020  34.6913690   5.7244820  12.2207160  33.6573250   4.9045160
   6.6682040  31.2539670  14.0599130   6.0620200  31.2771270  13.3194880
   6.3636150  30.5222710  14.5966380   8.0982410  34.9819960  12.6708540
   9.0504160  34.8977980  12.6208780   7.9510630  35.6461670  13.3442330
   2.6053160  29.0404250  12.5895290   1.8398830  29.6089250  12.5049960
   2.7869120  28.7480460  11.6963520   9.7476510  30.7709580  13.1470310
  10.4885980  31.1085340  12.6437770   8.9849190  30.9401640  12.5940080
   8.4222170  28.8224410  11.6825520   8.8363190  28.9769490  12.5315940
   7.4873170  28.9479630  11.8451300   8.8944340  26.1620570  13.6864670
   9.4765110  25.4072890  13.5985150   9.0706110  26.6928010  12.9096150
   2.7777850  19.8790560   9.0309010   2.3295150  19.9014820   8.1854560
   2.1443050  19.4809580   9.6279310   3.1837400  28.7744890   9.6521450
   3.6025510  29.6177620   9.4797690   2.2646030  28.9116930   9.4228230
   5.5201300  26.5061070  11.0359290   5.6397510  25.9102210  11.7754130
   6.3795300  26.5430760  10.6160590   7.8589200  27.0598260   9.6121800
   7.3324420  27.5840880   9.0086940   8.2020540  27.6925650  10.2431530
   2.2870070  23.0482420  12.2935110   2.8769760  22.7398270  12.9812930
   1.4690310  22.5762170  12.4495010   7.1063500  22.6648230  12.5268130
   6.4179020  22.0029770  12.4618120   7.8269520  22.2186500  12.9716590
   3.8907030  36.3149110  11.0265830   3.8165730  37.2184250  11.3338200
   2.9885870  35.9961010  10.9987900  11.4186710  34.0111290  11.3558390
  10.8188700  34.0703850  10.6122310  11.5480610  33.0716270  11.4855240
  13.1204590  29.3526690   4.0404230  13.4913420  28.5694010   3.6340200
  13.7606520  30.0415790   3.8621530  10.1038350  30.7363270   9.4534550
   9.2898190  31.1660430   9.7160340  10.5112550  31.3481680   8.8403600
  11.4528750  25.8751470  10.9803770  11.2214840  25.6464220  10.0801720
  11.7133300  26.7951020  10.9348660   9.8916820  21.1007900  13.7583470
  10.7687000  21.1091300  14.1417470   9.9037660  20.3638740  13.1475820
  11.3380090  24.9537440   4.6471490  11.8617570  24.4600090   4.0161660
  11.9239510  25.0887800   5.3919060  11.5169810  25.0377310   8.1691040
  10.5672520  25.0040850   8.2836030  11.6982820  25.9477420   7.9340810
  12.2567220  22.8471740   3.1201580  12.1466500  22.6927780   4.0583850
  13.0174810  22.3192680   2.8776990  10.6032940  18.7865870   9.5784580
  11.2405160  19.4000010   9.9443770  10.7507830  18.8226530   8.6333810
  10.1614400  35.4881870   2.9802820  10.7573470  35.1666440   2.3037240
  10.4192550  35.0153690   3.7716090   1.7683000  33.4759370   8.7303170
   1.5274360  33.7433930   7.8433690   2.7085640  33.6465100   8.7854030
   3.9737420  19.9392060  12.4859680   3.9126310  20.5313890  13.2355090
   4.9137800  19.8318020  12.3409940   6.6111980  19.5962120  12.1251970
   7.2252390  19.9141410  11.4633050   7.1561540  19.1110710  12.7447830
  13.0287160  35.4953750   9.5313810  12.5345440  35.8922620   8.8140940
  12.4200450  34.8702960   9.9251090   7.3520020  18.1594260   8.4521260
   6.4779860  18.4929370   8.2494190   7.2430770  17.6867440   9.2773130
   8.2592000  20.3665130   9.8362980   7.9305360  19.5516890   9.4564710
   9.2074300  20.3234940   9.7128670  10.7126610  36.1377170   6.8100550
  10.2529580  36.8892980   6.4358570  10.0839070  35.4183640   6.7515350
   3.8817830  35.3373900   6.8117660   4.1695640  35.0828200   5.9350670
   4.3941050  34.7851260   7.4023230   5.0994840  19.0764100   7.3914170
   4.3166630  19.5509600   7.6710930   4.8057770  18.1718930   7.2827350
   9.6515910  19.7787200   5.4363260  10.0924000  19.7232300   4.5884860
   9.3823500  20.6945210   5.5073440  11.5154480  19.4102440   3.4472080
  11.4542880  18.4663660   3.3003100  12.2946510  19.5182530   3.9925540
   2.9849060  21.4950850   2.9030200   2.1723570  21.1207740   2.5626080
   3.4890700  20.7395930   3.2051390   7.4874040  18.1593300   4.1413270
   8.0903410  18.7313510   4.6161790   6.7467030  18.7232740   3.9187170
   3.9490190  36.2590000  14.1785860   4.8757500  36.0234270  14.2221820
   3.9340620  37.0862000  13.6971890   7.7369260  18.3388330  14.5208210
   7.6234710  18.6582940  15.4159730   8.5539000  18.7400840  14.2245490
  10.5167750  35.4859860  14.0026900  11.3093070  34.9909090  13.7952860
  10.8100900  36.1650000  14.6102510   6.6427410   7.5837310  59.9816910
   6.5621460   6.6691920  59.7108620   6.2291830   8.0804380  59.2756620
   4.7745450   9.3616330  61.8626180   3.9987550   8.8816770  62.1524750
   5.4258380   8.6821980  61.6882340   8.7952880  13.7676520  60.6425310
   8.3334410  12.9963760  60.9712480   9.6078430  13.7942590  61.1477760
   5.0216190  16.0534530  60.2629300   4.4027630  16.5092030  59.6923740
   5.8767970  16.2085990  59.8619000   4.2154440  12.0373520  61.8696340
   4.1462720  11.0963460  61.7085470   4.9774300  12.1274930  62.4418910
   5.2459610   4.8443900  62.0965270   5.6224430   3.9715780  61.9838940
   5.1479120   5.1802600  61.2055710   9.0283730   2.3394340  59.0293610
   9.8493350   1.8490910  59.0719090   9.0617810   2.9292000  59.7825450
   5.8879540  10.9373770  57.6561210   5.2696810  11.4023220  57.0923930
   6.4002790  11.6301250  58.0730720   9.2645210   4.2794720  61.8021150
   8.5600780   4.5679610  62.3824260   9.6257370   5.0894830  61.4420710
  10.8807990  13.8969850  64.0648630  10.1971510  14.5668960  64.0565300
  11.4202280  14.0950500  63.2993490  12.3332130   3.7249510  62.1930360
  11.3857040   3.7588490  62.3245790  12.6582120   4.5388460  62.5779720
   8.4166730  15.7413980  62.7793810   8.4293890  15.3376270  61.9116070
   7.8641950  16.5161270  62.6755240   9.7112150  12.4630200  57.8683980
   9.6008480  11.5204530  57.9933400   9.7080400  12.8245840  58.7546740
   7.8152170  10.6443820  64.1076420   8.2320960  10.4303930  63.2729880
   8.5391990  10.9016610  64.6785040   5.2532430   8.0895520  57.2246470
   4.3261710   8.0232900  57.4534940   5.4057250   9.0275650  57.1101710
   5.2401510   4.3612520  54.2213630   4.3005180   4.5226480  54.3066090
   5.5584770   5.0798200  53.6749620  11.7614270   9.0431040  64.1992660
  10.9332900   9.1124130  63.7242790  12.3564750   9.6285350  63.7308490
   9.2829720   9.6515820  57.7281720   8.6642140   9.3135370  57.0808020
   9.2654170   9.0075580  58.4360910   7.4594420   8.8902630  54.7354470
   7.8987700   8.0525060  54.5892290   8.1722840   9.5232030  54.8218610
   5.5689800  13.8298700  58.7035710   6.0085710  14.5723030  58.2891100
   5.5076690  14.0725270  59.6274670   8.2359980  16.8167820  56.0598720
   8.0761120  16.5270760  56.9580550   8.0706690  16.0407950  55.5243950
   7.9386110  14.3255380  54.6196720   7.2451270  14.3232670  53.9599000
   8.6808970  13.9014700  54.1890890   7.5036040  15.9518090  58.6945210
   7.9592990  15.1707470  59.0083830   7.8428560  16.6624910  59.2386390
   7.0469340   5.9837250  57.2168420   6.4478230   6.7073050  57.0332040
   7.5948950   5.9214030  56.4344870   5.6534210   4.6200790  59.2471700
   6.0463780   4.9372990  58.4340390   6.0151060   3.7412670  59.3616220
   6.2389350   7.2106540  63.3422480   5.5070470   7.7193350  63.6912580
   5.8413690   6.3936520  63.0411260   2.6766740   3.8860740  61.7474970
   2.6802800   3.4450690  60.8979510   3.5717860   4.2078070  61.8546790
   2.7386890   4.8872820  54.7381730   2.8599710   4.8459300  55.6867550
   2.3535400   5.7496970  54.5828460   6.7015260   2.6640220  62.7545420
   6.7188000   3.1148870  63.5987270   6.4530840   1.7645860  62.9678860
   2.9774710   7.9462520  63.4940380   3.3444840   7.4721090  64.2401720
   2.7879770   8.8204090  63.8348720  10.0543850  10.1897510  62.2017830
  10.7742970  10.6852800  61.8113940   9.8525670   9.5115400  61.5571700
   8.2302180   5.9555120  54.6409380   9.1181800   6.2672350  54.4660720
   8.2007270   5.0827370  54.2489960   4.2262770  12.1278810  55.3197550
   4.5678470  12.8721040  54.8240870   3.3975480  12.4409930  55.6822380
  10.5016450   7.2666960  54.1089240  10.4180170   7.6981180  53.2585680
  11.2210640   7.7265310  54.5416060  11.5303700  14.1209220  56.8371370
  10.8879860  13.4664840  57.1115090  11.1434360  14.5264310  56.0612040
   7.1090180  11.4494650  60.6843060   7.4614000  10.8522780  60.0244430
   6.2252510  11.1238880  60.8551310   3.1953460  12.2092340  58.0913470
   3.8824590  12.7561550  58.4721060   2.4085880  12.7533070  58.1263080
   2.4980670   9.2138370  57.7038830   2.9543450  10.0243620  57.9299020
   2.1468880   8.8961510  58.5357320   6.0745360  12.7277060  63.6508580
   6.7167590  12.0270220  63.7640750   6.5994710  13.5075500  63.4705470
   9.9201080  13.0125680  53.3747720   9.6938660  12.2956120  53.9672360
   9.5297280  12.7638120  52.5369470   9.5017330  10.9297620  55.0361880
   9.2139030  11.3910310  55.8239760  10.2969500  10.4695390  55.3046100
  10.2587190   2.7646390  56.1957060   9.6300350   2.8692060  55.4815290
   9.7639110   2.9843170  56.9850940   4.7045330  14.4851980  53.6291040
   4.8057310  14.2815970  52.6993020   3.8047070  14.2310260  53.8338820
   2.2271220   5.0432340  57.6114940   1.5187370   5.5118680  58.0528550
   2.5115700   4.3854350  58.2460130   6.2586650   1.7683000  59.0510730
   6.1354430   1.7869130  58.1020240   7.2071210   1.8161940  59.1709130
   3.3463440  17.0038300  58.3238710   3.6004940  16.9659690  57.4018080
   2.3975920  16.8771630  58.3166960   9.3516020   7.9230180  59.8997220
   8.4106160   7.9380410  60.0744910   9.6660090   7.1366140  60.3457520
  11.3541600  15.0939030  61.5751480  11.4789020  15.9170200  62.0475290
  12.2207160  14.8829760  61.2275630   1.9361440  16.3600550  53.0694180
   2.7290050  16.6489380  52.6175970   1.4165790  15.9292720  52.3906660
  10.9891610  15.5870680  54.4930920  10.7033120  15.1735820  53.6785100
  10.7911160  16.5158390  54.3731440   2.4538840  11.5803960  52.9336530
   2.3489480  10.9656310  53.6597910   2.2863060  11.0569850  52.1499540
   5.6941570  10.6423990  53.5378520   5.1451670  11.0893290  54.1821260
   6.3160830  10.1373240  54.0616190   3.8744330   8.6252520  52.6820920
   4.3949990   7.9101540  52.3162070   4.5212730   9.2638390  52.9821430
   4.4392360  16.7064130  54.9722660   5.3343150  17.0449100  54.9941420
   4.4709990  15.9843540  54.3446940  12.6588160  12.9785620  53.0158570
  11.8281120  13.0462270  53.4865800  12.8359990  13.8689740  52.7125430
  12.1144620   9.7233100  55.5192770  12.8763530  10.2929750  55.6252460
  12.1298990   9.1560300  56.2901080  13.1204590  10.5783200  60.3634700
  13.4913420   9.7950520  59.9570670  13.7606520  11.2672300  60.1852000
  12.1663790  10.0167470  52.6765290  12.4412630  10.9246350  52.5484510
  11.9774530   9.9530000  53.6127280   8.5639400   3.0412320  53.9718920
   8.9824280   2.8543300  53.1315580   8.2575460   2.1891370  54.2821850
  12.0629130   7.9536460  57.6694720  11.6872730   7.1864390  57.2376010
  11.3332250   8.3359160  58.1569650  11.3380090   6.1793950  60.9701960
  11.8617570   5.6856600  60.3392130  11.9239510   6.3144310  61.7149530
  11.5169810   6.2633820  64.4921510  10.5672520   6.2297360  64.6066500
  11.6982820   7.1733930  64.2571280  10.8280060   5.4367300  56.9094370
  11.3239180   5.2038170  57.6943250  10.6296130   4.5979140  56.4932010
  12.2567220   4.0728250  59.4432050  12.1466500   3.9184290  60.3814320
  13.0174810   3.5449190  59.2007460  13.1457490   1.9036170  52.6838190
  14.0706800   1.7717350  52.4756480  13.1233280   1.9828990  53.6374640
  13.2195980   2.6746830  55.3094900  12.4247480   2.6091950  55.8387810
  13.4239260   3.6097470  55.2980250  10.1614400  16.7138380  59.3033290
  10.7573470  16.3922950  58.6267710  10.4192550  16.2410200  60.0946560
   1.7683000  14.7015880  65.0533640   1.5274360  14.9690440  64.1664160
   2.7085640  14.8721610  65.1084500  10.7126610  17.3633680  63.1331020
  10.2529580  18.1149490  62.7589040  10.0839070  16.6440150  63.0745820
   3.8817830  16.5630410  63.1348130   4.1695640  16.3084710  62.2581140
   4.3941050  16.0107770  63.7253700   2.9849060   2.7207360  59.2260670
   2.1723570   2.3464250  58.8856550   3.4890700   1.9652440  59.5281860
  12.1835250  17.0272080  57.4990580  12.3587440  16.3409820  56.8551500
  11.4856820  17.5519130  57.1067250   6.6427410   7.5837310  41.2073420
   6.5621460   6.6691920  40.9365130   6.2291830   8.0804380  40.5013130
   4.7745450   9.3616330  43.0882690   3.9987550   8.8816770  43.3781260
   5.4258380   8.6821980  42.9138850   8.7952880  13.7676520  41.8681820
   8.3334410  12.9963760  42.1968990   9.6078430  13.7942590  42.3734270
   5.0216190  16.0534530  41.4885810   4.4027630  16.5092030  40.9180250
   5.8767970  16.2085990  41.0875510   4.2154440  12.0373520  43.0952850
   4.1462720  11.0963460  42.9341980   4.9774300  12.1274930  43.6675420
   5.2459610   4.8443900  43.3221780   5.6224430   3.9715780  43.2095450
   5.1479120   5.1802600  42.4312220   9.0283730   2.3394340  40.2550120
   9.8493350   1.8490910  40.2975600   9.0617810   2.9292000  41.0081960
  13.3183280   4.3561090  46.8193750  12.6135450   4.7442800  46.3008860
  13.5841200   5.0511380  47.4214680   5.8879540  10.9373770  38.8817720
   5.2696810  11.4023220  38.3180440   6.4002790  11.6301250  39.2987230
   9.2645210   4.2794720  43.0277660   8.5600780   4.5679610  43.6080770
   9.6257370   5.0894830  42.6677220  10.8807990  13.8969850  45.2905140
  10.1971510  14.5668960  45.2821810  11.4202280  14.0950500  44.5250000
  12.3332130   3.7249510  43.4186870  11.3857040   3.7588490  43.5502300
  12.6582120   4.5388460  43.8036230   8.4166730  15.7413980  44.0050320
   8.4293890  15.3376270  43.1372580   7.8641950  16.5161270  43.9011750
   9.7112150  12.4630200  39.0940490   9.6008480  11.5204530  39.2189910
   9.7080400  12.8245840  39.9803250   7.8152170  10.6443820  45.3332930
   8.2320960  10.4303930  44.4986390   8.5391990  10.9016610  45.9041550
   5.2532430   8.0895520  38.4502980   4.3261710   8.0232900  38.6791450
   5.4057250   9.0275650  38.3358220   5.2401510   4.3612520  35.4470140
   4.3005180   4.5226480  35.5322600   5.5584770   5.0798200  34.9006130
  11.7614270   9.0431040  45.4249170  10.9332900   9.1124130  44.9499300
  12.3564750   9.6285350  44.9565000   9.2829720   9.6515820  38.9538230
   8.6642140   9.3135370  38.3064530   9.2654170   9.0075580  39.6617420
   8.7256280   5.8300360  46.3704040   8.3127460   6.6554070  46.6244030
   7.9932230   5.2445400  46.1780400   9.4156380  15.8759690  47.0585020
   8.9386940  16.6831880  46.8657630   8.7318170  15.2238020  47.2111230
   7.4594420   8.8902630  35.9610980   7.8987700   8.0525060  35.8148800
   8.1722840   9.5232030  36.0475120   5.5689800  13.8298700  39.9292220
   6.0085710  14.5723030  39.5147610   5.5076690  14.0725270  40.8531180
  12.9955590  15.6371630  52.1276410  13.4715310  16.1154520  52.8065490
  13.6162750  15.5689120  51.4021910  12.3988840  12.8284480  49.2876420
  12.5251900  12.5896360  48.3693600  12.4410220  11.9969020  49.7598500
   6.2605580  16.5312480  47.8571230   6.7750250  16.4420490  48.6593660
   5.4174660  16.8772180  48.1499140   8.2359980  16.8167820  37.2855230
   8.0761120  16.5270760  38.1837060   8.0706690  16.0407950  36.7500460
   7.9386110  14.3255380  35.8453230   7.2451270  14.3232670  35.1855510
   8.6808970  13.9014700  35.4147400   7.5036040  15.9518090  39.9201720
   7.9592990  15.1707470  40.2340340   7.8428560  16.6624910  40.4642900
  12.2512850   4.8816940  50.2526160  11.6357120   5.3896610  49.7241620
  11.9309270   3.9815270  50.1952100   4.3127170   3.7208830  47.7188350
   3.8506540   3.9291850  48.5308290   3.9105280   2.9068180  47.4159020
   9.3131680   4.9417780  48.8485010   8.4625270   4.6423530  49.1694080
   9.1533470   5.1859790  47.9368830   6.4081390   6.4419530  50.9483800
   6.7334800   5.6083280  50.6086030   7.1961720   6.9648050  51.0962130
   7.0469340   5.9837250  38.4424930   6.4478230   6.7073050  38.2588550
   7.5948950   5.9214030  37.6601380   2.2570790   6.8759460  50.5094550
   2.1614390   5.9354190  50.3594950   3.1002770   7.0974530  50.1142620
   5.6534210   4.6200790  40.4728210   6.0463780   4.9372990  39.6596900
   6.0151060   3.7412670  40.5872730   3.9626380   3.3708100  51.7325070
   3.2724700   3.1780300  52.3671160   4.7058680   3.6542740  52.2649370
   6.2389350   7.2106540  44.5678990   5.5070470   7.7193350  44.9169090
   5.8413690   6.3936520  44.2667770   2.6766740   3.8860740  42.9731480
   2.6802800   3.4450690  42.1236020   3.5717860   4.2078070  43.0803300
   2.7386890   4.8872820  35.9638240   2.8599710   4.8459300  36.9124060
   2.3535400   5.7496970  35.8084970   6.7015260   2.6640220  43.9801930
   6.7188000   3.1148870  44.8243780   6.4530840   1.7645860  44.1935370
   2.9774710   7.9462520  44.7196890   3.3444840   7.4721090  45.4658230
   2.7879770   8.8204090  45.0605230  10.0543850  10.1897510  43.4274340
  10.7742970  10.6852800  43.0370450   9.8525670   9.5115400  42.7828210
   5.4362650  10.2606570  49.3143340   5.3699960   9.3402240  49.0600930
   4.8067790  10.3582010  50.0287980   8.2302180   5.9555120  35.8665890
   9.1181800   6.2672350  35.6917230   8.2007270   5.0827370  35.4746470
   4.2262770  12.1278810  36.5454060   4.5678470  12.8721040  36.0497380
   3.3975480  12.4409930  36.9078890   5.3679380  13.0827140  49.0647140
   5.3823920  12.1508100  48.8466050   4.6604480  13.1686900  49.7036910
  10.5016450   7.2666960  35.3345750  10.4180170   7.6981180  34.4842190
  11.2210640   7.7265310  35.7672570  11.5790590   9.7234480  48.4115720
  10.8538780  10.3163260  48.2145110  12.1066050   9.7158020  47.6129090
  11.5303700  14.1209220  38.0627880  10.8879860  13.4664840  38.3371600
  11.1434360  14.5264310  37.2868550   7.1090180  11.4494650  41.9099570
   7.4614000  10.8522780  41.2500940   6.2252510  11.1238880  42.0807820
   3.1953460  12.2092340  39.3169980   3.8824590  12.7561550  39.6977570
   2.4085880  12.7533070  39.3519590   2.4980670   9.2138370  38.9295340
   2.9543450  10.0243620  39.1555530   2.1468880   8.8961510  39.7613830
   4.8013280  14.7244710  46.1587640   5.4455500  14.9304090  46.8361060
   5.1642720  13.9633110  45.7058490   6.0745360  12.7277060  44.8765090
   6.7167590  12.0270220  44.9897260   6.5994710  13.5075500  44.6961980
   9.9201080  13.0125680  34.6004230   9.6938660  12.2956120  35.1928870
   9.5297280  12.7638120  33.7625980   7.8482980  13.5271960  48.0801150
   8.1839220  14.1138650  48.7579070   6.9283320  13.3964670  48.3098940
   9.5017330  10.9297620  36.2618390   9.2139030  11.3910310  37.0496270
  10.2969500  10.4695390  36.5302610   3.6771560  13.5763290  51.2489210
   3.3568430  12.8572530  51.7934900   3.0029920  14.2518360  51.3225270
   6.8925160   3.8089450  46.6126010   7.2605980   2.9884660  46.9405580
   6.0323360   3.8691340  47.0281660  10.2587190   2.7646390  37.4213570
   9.6300350   2.8692060  36.7071800   9.7639110   2.9843170  38.2107450
   4.7045330  14.4851980  34.8547550   4.8057310  14.2815970  33.9249530
   3.8047070  14.2310260  35.0595330   2.2271220   5.0432340  38.8371450
   1.5187370   5.5118680  39.2785060   2.5115700   4.3854350  39.4716640
   3.8527150   6.4629040  46.8363980   4.3512400   6.9374860  47.5015830
   3.9950100   5.5392560  47.0434010   6.2586650   1.7683000  40.2767240
   6.1354430   1.7869130  39.3276750   7.2071210   1.8161940  40.3965640
   3.3463440  17.0038300  39.5495220   3.6004940  16.9659690  38.6274590
   2.3975920  16.8771630  39.5423470  11.0594010   2.6797000  47.6792370
  10.5567610   3.4202400  48.0186180  11.8750670   3.0681000  47.3629160
   9.3516020   7.9230180  41.1253730   8.4106160   7.9380410  41.3001420
   9.6660090   7.1366140  41.5714030  11.3541600  15.0939030  42.8007990
  11.4789020  15.9170200  43.2731800  12.2207160  14.8829760  42.4532140
   1.9361440  16.3600550  34.2950690   2.7290050  16.6489380  33.8432480
   1.4165790  15.9292720  33.6163170   6.6682040  12.4796180  51.6086110
   6.0620200  12.5027780  50.8681860   6.3636150  11.7479220  52.1453360
   8.0982410  16.2076470  50.2195520   9.0504160  16.1234490  50.1695760
   7.9510630  16.8718180  50.8929310  10.9891610  15.5870680  35.7187430
  10.7033120  15.1735820  34.9041610  10.7911160  16.5158390  35.5987950
   2.4538840  11.5803960  34.1593040   2.3489480  10.9656310  34.8854420
   2.2863060  11.0569850  33.3756050   2.6053160  10.2660760  50.1382270
   1.8398830  10.8345760  50.0536940   2.7869120   9.9736970  49.2450500
   5.6941570  10.6423990  34.7635030   5.1451670  11.0893290  35.4077770
   6.3160830  10.1373240  35.2872700   9.7476510  11.9966090  50.6957290
  10.4885980  12.3341850  50.1924750   8.9849190  12.1658150  50.1427060
   3.8744330   8.6252520  33.9077430   4.3949990   7.9101540  33.5418580
   4.5212730   9.2638390  34.2077940   8.4222170  10.0480920  49.2312500
   8.8363190  10.2026000  50.0802920   7.4873170  10.1736140  49.3938280
   8.8944340   7.3877080  51.2351650   9.4765110   6.6329400  51.1472130
   9.0706110   7.9184520  50.4583130   3.1837400  10.0001400  47.2008430
   3.6025510  10.8434130  47.0284670   2.2646030  10.1373440  46.9715210
   5.5201300   7.7317580  48.5846270   5.6397510   7.1358720  49.3241110
   6.3795300   7.7687270  48.1647570   7.8589200   8.2854770  47.1608780
   7.3324420   8.8097390  46.5573920   8.2020540   8.9182160  47.7918510
   2.2870070   4.2738930  49.8422090   2.8769760   3.9654780  50.5299910
   1.4690310   3.8018680  49.9981990   7.1063500   3.8904740  50.0755110
   6.4179020   3.2286280  50.0105100   7.8269520   3.4443010  50.5203570
   3.8907030  17.5405620  48.5752810   3.8165730  18.4440760  48.8825180
   2.9885870  17.2217520  48.5474880   4.4392360  16.7064130  36.1979170
   5.3343150  17.0449100  36.2197930   4.4709990  15.9843540  35.5703450
  11.4186710  15.2367800  48.9045370  10.8188700  15.2960360  48.1609290
  11.5480610  14.2972780  49.0342220  12.6588160  12.9785620  34.2415080
  11.8281120  13.0462270  34.7122310  12.8359990  13.8689740  33.9381940
  12.1144620   9.7233100  36.7449280  12.8763530  10.2929750  36.8508970
  12.1298990   9.1560300  37.5157590  13.1204590  10.5783200  41.5891210
  13.4913420   9.7950520  41.1827180  13.7606520  11.2672300  41.4108510
  10.1038350  11.9619780  47.0021530   9.2898190  12.3916940  47.2647320
  10.5112550  12.5738190  46.3890580  12.1663790  10.0167470  33.9021800
  12.4412630  10.9246350  33.7741020  11.9774530   9.9530000  34.8383790
   8.5639400   3.0412320  35.1975430   8.9824280   2.8543300  34.3572090
   8.2575460   2.1891370  35.5078360  12.0629130   7.9536460  38.8951230
  11.6872730   7.1864390  38.4632520  11.3332250   8.3359160  39.3826160
  11.4528750   7.1007980  48.5290750  11.2214840   6.8720730  47.6288700
  11.7133300   8.0207530  48.4835640   9.8916820   2.3264410  51.3070450
  10.7687000   2.3347810  51.6904450   9.9037660   1.5895250  50.6962800
  11.3380090   6.1793950  42.1958470  11.8617570   5.6856600  41.5648640
  11.9239510   6.3144310  42.9406040  11.5169810   6.2633820  45.7178020
  10.5672520   6.2297360  45.8323010  11.6982820   7.1733930  45.4827790
  10.8280060   5.4367300  38.1350880  11.3239180   5.2038170  38.9199760
  10.6296130   4.5979140  37.7188520  12.2567220   4.0728250  40.6688560
  12.1466500   3.9184290  41.6070830  13.0174810   3.5449190  40.4263970
  13.1457490   1.9036170  33.9094700  14.0706800   1.7717350  33.7012990
  13.1233280   1.9828990  34.8631150  13.2195980   2.6746830  36.5351410
  12.4247480   2.6091950  37.0644320  13.4239260   3.6097470  36.5236760
  10.1614400  16.7138380  40.5289800  10.7573470  16.3922950  39.8524220
  10.4192550  16.2410200  41.3203070   1.7683000  14.7015880  46.2790150
   1.5274360  14.9690440  45.3920670   2.7085640  14.8721610  46.3341010
  13.0287160  16.7210260  47.0800790  12.5345440  17.1179130  46.3627920
  12.4200450  16.0959470  47.4738070  10.7126610  17.3633680  44.3587530
  10.2529580  18.1149490  43.9845550  10.0839070  16.6440150  44.3002330
   3.8817830  16.5630410  44.3604640   4.1695640  16.3084710  43.4837650
   4.3941050  16.0107770  44.9510210   2.9849060   2.7207360  40.4517180
   2.1723570   2.3464250  40.1113060   3.4890700   1.9652440  40.7538370
   3.9490190  17.4846510  51.7272840   4.8757500  17.2490780  51.7708800
   3.9340620  18.3118510  51.2458870  12.1835250  17.0272080  38.7247090
  12.3587440  16.3409820  38.0808010  11.4856820  17.5519130  38.3323760
  10.5167750  16.7116370  51.5513880  11.3093070  16.2165600  51.3439840
  10.8100900  17.3906510  52.1589490   6.6427410   7.5837310  22.4329930
   6.5621460   6.6691920  22.1621640   6.2291830   8.0804380  21.7269640
   4.7745450   9.3616330  24.3139200   3.9987550   8.8816770  24.6037770
   5.4258380   8.6821980  24.1395360   8.7952880  13.7676520  23.0938330
   8.3334410  12.9963760  23.4225500   9.6078430  13.7942590  23.5990780
   5.0216190  16.0534530  22.7142320   4.4027630  16.5092030  22.1436760
   5.8767970  16.2085990  22.3132020   4.2154440  12.0373520  24.3209360
   4.1462720  11.0963460  24.1598490   4.9774300  12.1274930  24.8931930
   5.2459610   4.8443900  24.5478290   5.6224430   3.9715780  24.4351960
   5.1479120   5.1802600  23.6568730   9.0283730   2.3394340  21.4806630
   9.8493350   1.8490910  21.5232110   9.0617810   2.9292000  22.2338470
  13.3183280   4.3561090  28.0450260  12.6135450   4.7442800  27.5265370
  13.5841200   5.0511380  28.6471190   5.8879540  10.9373770  20.1074230
   5.2696810  11.4023220  19.5436950   6.4002790  11.6301250  20.5243740
   9.2645210   4.2794720  24.2534170   8.5600780   4.5679610  24.8337280
   9.6257370   5.0894830  23.8933730  10.8807990  13.8969850  26.5161650
  10.1971510  14.5668960  26.5078320  11.4202280  14.0950500  25.7506510
  12.3332130   3.7249510  24.6443380  11.3857040   3.7588490  24.7758810
  12.6582120   4.5388460  25.0292740   8.4166730  15.7413980  25.2306830
   8.4293890  15.3376270  24.3629090   7.8641950  16.5161270  25.1268260
   9.7112150  12.4630200  20.3197000   9.6008480  11.5204530  20.4446420
   9.7080400  12.8245840  21.2059760   7.8152170  10.6443820  26.5589440
   8.2320960  10.4303930  25.7242900   8.5391990  10.9016610  27.1298060
   5.2532430   8.0895520  19.6759490   4.3261710   8.0232900  19.9047960
   5.4057250   9.0275650  19.5614730   5.2401510   4.3612520  16.6726650
   4.3005180   4.5226480  16.7579110   5.5584770   5.0798200  16.1262640
  11.7614270   9.0431040  26.6505680  10.9332900   9.1124130  26.1755810
  12.3564750   9.6285350  26.1821510   9.2829720   9.6515820  20.1794740
   8.6642140   9.3135370  19.5321040   9.2654170   9.0075580  20.8873930
   8.7256280   5.8300360  27.5960550   8.3127460   6.6554070  27.8500540
   7.9932230   5.2445400  27.4036910   9.4156380  15.8759690  28.2841530
   8.9386940  16.6831880  28.0914140   8.7318170  15.2238020  28.4367740
   7.4594420   8.8902630  17.1867490   7.8987700   8.0525060  17.0405310
   8.1722840   9.5232030  17.2731630   5.5689800  13.8298700  21.1548730
   6.0085710  14.5723030  20.7404120   5.5076690  14.0725270  22.0787690
  12.9955590  15.6371630  33.3532920  13.4715310  16.1154520  34.0322000
  13.6162750  15.5689120  32.6278420  12.3988840  12.8284480  30.5132930
  12.5251900  12.5896360  29.5950110  12.4410220  11.9969020  30.9855010
   6.2605580  16.5312480  29.0827740   6.7750250  16.4420490  29.8850170
   5.4174660  16.8772180  29.3755650   8.2359980  16.8167820  18.5111740
   8.0761120  16.5270760  19.4093570   8.0706690  16.0407950  17.9756970
   7.9386110  14.3255380  17.0709740   7.2451270  14.3232670  16.4112020
   8.6808970  13.9014700  16.6403910   7.5036040  15.9518090  21.1458230
   7.9592990  15.1707470  21.4596850   7.8428560  16.6624910  21.6899410
  12.2512850   4.8816940  31.4782670  11.6357120   5.3896610  30.9498130
  11.9309270   3.9815270  31.4208610   4.3127170   3.7208830  28.9444860
   3.8506540   3.9291850  29.7564800   3.9105280   2.9068180  28.6415530
   9.3131680   4.9417780  30.0741520   8.4625270   4.6423530  30.3950590
   9.1533470   5.1859790  29.1625340   6.4081390   6.4419530  32.1740310
   6.7334800   5.6083280  31.8342540   7.1961720   6.9648050  32.3218640
   7.0469340   5.9837250  19.6681440   6.4478230   6.7073050  19.4845060
   7.5948950   5.9214030  18.8857890   2.2570790   6.8759460  31.7351060
   2.1614390   5.9354190  31.5851460   3.1002770   7.0974530  31.3399130
   5.6534210   4.6200790  21.6984720   6.0463780   4.9372990  20.8853410
   6.0151060   3.7412670  21.8129240   3.9626380   3.3708100  32.9581580
   3.2724700   3.1780300  33.5927670   4.7058680   3.6542740  33.4905880
   6.2389350   7.2106540  25.7935500   5.5070470   7.7193350  26.1425600
   5.8413690   6.3936520  25.4924280   2.6766740   3.8860740  24.1987990
   2.6802800   3.4450690  23.3492530   3.5717860   4.2078070  24.3059810
   2.7386890   4.8872820  17.1894750   2.8599710   4.8459300  18.1380570
   2.3535400   5.7496970  17.0341480   6.7015260   2.6640220  25.2058440
   6.7188000   3.1148870  26.0500290   6.4530840   1.7645860  25.4191880
   2.9774710   7.9462520  25.9453400   3.3444840   7.4721090  26.6914740
   2.7879770   8.8204090  26.2861740  10.0543850  10.1897510  24.6530850
  10.7742970  10.6852800  24.2626960   9.8525670   9.5115400  24.0084720
   5.4362650  10.2606570  30.5399850   5.3699960   9.3402240  30.2857440
   4.8067790  10.3582010  31.2544490   8.2302180   5.9555120  17.0922400
   9.1181800   6.2672350  16.9173740   8.2007270   5.0827370  16.7002980
   4.2262770  12.1278810  17.7710570   4.5678470  12.8721040  17.2753890
   3.3975480  12.4409930  18.1335400   5.3679380  13.0827140  30.2903650
   5.3823920  12.1508100  30.0722560   4.6604480  13.1686900  30.9293420
  10.5016450   7.2666960  16.5602260  10.4180170   7.6981180  15.7098700
  11.2210640   7.7265310  16.9929080  11.5790590   9.7234480  29.6372230
  10.8538780  10.3163260  29.4401620  12.1066050   9.7158020  28.8385600
  11.5303700  14.1209220  19.2884390  10.8879860  13.4664840  19.5628110
  11.1434360  14.5264310  18.5125060   7.1090180  11.4494650  23.1356080
   7.4614000  10.8522780  22.4757450   6.2252510  11.1238880  23.3064330
   3.1953460  12.2092340  20.5426490   3.8824590  12.7561550  20.9234080
   2.4085880  12.7533070  20.5776100   2.4980670   9.2138370  20.1551850
   2.9543450  10.0243620  20.3812040   2.1468880   8.8961510  20.9870340
   4.8013280  14.7244710  27.3844150   5.4455500  14.9304090  28.0617570
   5.1642720  13.9633110  26.9315000   6.0745360  12.7277060  26.1021600
   6.7167590  12.0270220  26.2153770   6.5994710  13.5075500  25.9218490
   9.9201080  13.0125680  15.8260740   9.6938660  12.2956120  16.4185380
   9.5297280  12.7638120  14.9882490   7.8482980  13.5271960  29.3057660
   8.1839220  14.1138650  29.9835580   6.9283320  13.3964670  29.5355450
   9.5017330  10.9297620  17.4874900   9.2139030  11.3910310  18.2752780
  10.2969500  10.4695390  17.7559120   3.6771560  13.5763290  32.4745720
   3.3568430  12.8572530  33.0191410   3.0029920  14.2518360  32.5481780
   6.8925160   3.8089450  27.8382520   7.2605980   2.9884660  28.1662090
   6.0323360   3.8691340  28.2538170  10.2587190   2.7646390  18.6470080
   9.6300350   2.8692060  17.9328310   9.7639110   2.9843170  19.4363960
   4.7045330  14.4851980  16.0804060   4.8057310  14.2815970  15.1506040
   3.8047070  14.2310260  16.2851840   2.2271220   5.0432340  20.0627960
   1.5187370   5.5118680  20.5041570   2.5115700   4.3854350  20.6973150
   3.8527150   6.4629040  28.0620490   4.3512400   6.9374860  28.7272340
   3.9950100   5.5392560  28.2690520   6.2586650   1.7683000  21.5023750
   6.1354430   1.7869130  20.5533260   7.2071210   1.8161940  21.6222150
   3.3463440  17.0038300  20.7751730   3.6004940  16.9659690  19.8531100
   2.3975920  16.8771630  20.7679980  11.0594010   2.6797000  28.9048880
  10.5567610   3.4202400  29.2442690  11.8750670   3.0681000  28.5885670
   9.3516020   7.9230180  22.3510240   8.4106160   7.9380410  22.5257930
   9.6660090   7.1366140  22.7970540  11.3541600  15.0939030  24.0264500
  11.4789020  15.9170200  24.4988310  12.2207160  14.8829760  23.6788650
   1.9361440  16.3600550  15.5207200   2.7290050  16.6489380  15.0688990
   1.4165790  15.9292720  14.8419680   6.6682040  12.4796180  32.8342620
   6.0620200  12.5027780  32.0938370   6.3636150  11.7479220  33.3709870
   8.0982410  16.2076470  31.4452030   9.0504160  16.1234490  31.3952270
   7.9510630  16.8718180  32.1185820  10.9891610  15.5870680  16.9443940
  10.7033120  15.1735820  16.1298120  10.7911160  16.5158390  16.8244460
   2.4538840  11.5803960  15.3849550   2.3489480  10.9656310  16.1110930
   2.2863060  11.0569850  14.6012560   2.6053160  10.2660760  31.3638780
   1.8398830  10.8345760  31.2793450   2.7869120   9.9736970  30.4707010
   5.6941570  10.6423990  15.9891540   5.1451670  11.0893290  16.6334280
   6.3160830  10.1373240  16.5129210   9.7476510  11.9966090  31.9213800
  10.4885980  12.3341850  31.4181260   8.9849190  12.1658150  31.3683570
   3.8744330   8.6252520  15.1333940   4.3949990   7.9101540  14.7675090
   4.5212730   9.2638390  15.4334450   8.4222170  10.0480920  30.4569010
   8.8363190  10.2026000  31.3059430   7.4873170  10.1736140  30.6194790
   8.8944340   7.3877080  32.4608160   9.4765110   6.6329400  32.3728640
   9.0706110   7.9184520  31.6839640   3.1837400  10.0001400  28.4264940
   3.6025510  10.8434130  28.2541180   2.2646030  10.1373440  28.1971720
   5.5201300   7.7317580  29.8102780   5.6397510   7.1358720  30.5497620
   6.3795300   7.7687270  29.3904080   7.8589200   8.2854770  28.3865290
   7.3324420   8.8097390  27.7830430   8.2020540   8.9182160  29.0175020
   2.2870070   4.2738930  31.0678600   2.8769760   3.9654780  31.7556420
   1.4690310   3.8018680  31.2238500   7.1063500   3.8904740  31.3011620
   6.4179020   3.2286280  31.2361610   7.8269520   3.4443010  31.7460080
   3.8907030  17.5405620  29.8009320   3.8165730  18.4440760  30.1081690
   2.9885870  17.2217520  29.7731390   4.4392360  16.7064130  17.4235680
   5.3343150  17.0449100  17.4454440   4.4709990  15.9843540  16.7959960
  11.4186710  15.2367800  30.1301880  10.8188700  15.2960360  29.3865800
  11.5480610  14.2972780  30.2598730  12.6588160  12.9785620  15.4671590
  11.8281120  13.0462270  15.9378820  12.8359990  13.8689740  15.1638450
  12.1144620   9.7233100  17.9705790  12.8763530  10.2929750  18.0765480
  12.1298990   9.1560300  18.7414100  13.1204590  10.5783200  22.8147720
  13.4913420   9.7950520  22.4083690  13.7606520  11.2672300  22.6365020
  10.1038350  11.9619780  28.2278040   9.2898190  12.3916940  28.4903830
  10.5112550  12.5738190  27.6147090  12.1663790  10.0167470  15.1278310
  12.4412630  10.9246350  14.9997530  11.9774530   9.9530000  16.0640300
   8.5639400   3.0412320  16.4231940   8.9824280   2.8543300  15.5828600
   8.2575460   2.1891370  16.7334870  12.0629130   7.9536460  20.1207740
  11.6872730   7.1864390  19.6889030  11.3332250   8.3359160  20.6082670
  11.4528750   7.1007980  29.7547260  11.2214840   6.8720730  28.8545210
  11.7133300   8.0207530  29.7092150   9.8916820   2.3264410  32.5326960
  10.7687000   2.3347810  32.9160960   9.9037660   1.5895250  31.9219310
  11.3380090   6.1793950  23.4214980  11.8617570   5.6856600  22.7905150
  11.9239510   6.3144310  24.1662550  11.5169810   6.2633820  26.9434530
  10.5672520   6.2297360  27.0579520  11.6982820   7.1733930  26.7084300
  10.8280060   5.4367300  19.3607390  11.3239180   5.2038170  20.1456270
  10.6296130   4.5979140  18.9445030  12.2567220   4.0728250  21.8945070
  12.1466500   3.9184290  22.8327340  13.0174810   3.5449190  21.6520480
  13.1457490   1.9036170  15.1351210  14.0706800   1.7717350  14.9269500
  13.1233280   1.9828990  16.0887660  13.2195980   2.6746830  17.7607920
  12.4247480   2.6091950  18.2900830  13.4239260   3.6097470  17.7493270
  10.1614400  16.7138380  21.7546310  10.7573470  16.3922950  21.0780730
  10.4192550  16.2410200  22.5459580   1.7683000  14.7015880  27.5046660
   1.5274360  14.9690440  26.6177180   2.7085640  14.8721610  27.5597520
  13.0287160  16.7210260  28.3057300  12.5345440  17.1179130  27.5884430
  12.4200450  16.0959470  28.6994580  10.7126610  17.3633680  25.5844040
  10.2529580  18.1149490  25.2102060  10.0839070  16.6440150  25.5258840
   3.8817830  16.5630410  25.5861150   4.1695640  16.3084710  24.7094160
   4.3941050  16.0107770  26.1766720   2.9849060   2.7207360  21.6773690
   2.1723570   2.3464250  21.3369570   3.4890700   1.9652440  21.9794880
   3.9490190  17.4846510  32.9529350   4.8757500  17.2490780  32.9965310
   3.9340620  18.3118510  32.4715380  12.1835250  17.0272080  19.9503600
  12.3587440  16.3409820  19.3064520  11.4856820  17.5519130  19.5580270
  10.5167750  16.7116370  32.7770390  11.3093070  16.2165600  32.5696350
  10.8100900  17.3906510  33.3846000   6.6427410   7.5837310   3.6586440
   6.5621460   6.6691920   3.3878150   6.2291830   8.0804380   2.9526150
   4.7745450   9.3616330   5.5395710   3.9987550   8.8816770   5.8294280
   5.4258380   8.6821980   5.3651870   8.7952880  13.7676520   4.3194840
   8.3334410  12.9963760   4.6482010   9.6078430  13.7942590   4.8247290
   5.0216190  16.0534530   3.9398830   4.4027630  16.5092030   3.3693270
   5.8767970  16.2085990   3.5388530   4.2154440  12.0373520   5.5465870
   4.1462720  11.0963460   5.3855000   4.9774300  12.1274930   6.1188440
   5.2459610   4.8443900   5.7734800   5.6224430   3.9715780   5.6608470
   5.1479120   5.1802600   4.8825240   9.0283730   2.3394340   2.7063140
   9.8493350   1.8490910   2.7488620   9.0617810   2.9292000   3.4594980
  13.3183280   4.3561090   9.2706770  12.6135450   4.7442800   8.7521880
  13.5841200   5.0511380   9.8727700   9.2645210   4.2794720   5.4790680
   8.5600780   4.5679610   6.0593790   9.6257370   5.0894830   5.1190240
  10.8807990  13.8969850   7.7418160  10.1971510  14.5668960   7.7334830
  11.4202280  14.0950500   6.9763020  12.3332130   3.7249510   5.8699890
  11.3857040   3.7588490   6.0015320  12.6582120   4.5388460   6.2549250
   8.4166730  15.7413980   6.4563340   8.4293890  15.3376270   5.5885600
   7.8641950  16.5161270   6.3524770   7.8152170  10.6443820   7.7845950
   8.2320960  10.4303930   6.9499410   8.5391990  10.9016610   8.3554570
  11.7614270   9.0431040   7.8762190  10.9332900   9.1124130   7.4012320
  12.3564750   9.6285350   7.4078020   8.7256280   5.8300360   8.8217060
   8.3127460   6.6554070   9.0757050   7.9932230   5.2445400   8.6293420
   9.4156380  15.8759690   9.5098040   8.9386940  16.6831880   9.3170650
   8.7318170  15.2238020   9.6624250   5.5689800  13.8298700   2.3805240
   6.0085710  14.5723030   1.9660630   5.5076690  14.0725270   3.3044200
  12.9955590  15.6371630  14.5789430  13.4715310  16.1154520  15.2578510
  13.6162750  15.5689120  13.8534930  12.3988840  12.8284480  11.7389440
  12.5251900  12.5896360  10.8206620  12.4410220  11.9969020  12.2111520
   6.2605580  16.5312480  10.3084250   6.7750250  16.4420490  11.1106680
   5.4174660  16.8772180  10.6012160   7.5036040  15.9518090   2.3714740
   7.9592990  15.1707470   2.6853360   7.8428560  16.6624910   2.9155920
  12.2512850   4.8816940  12.7039180  11.6357120   5.3896610  12.1754640
  11.9309270   3.9815270  12.6465120   4.3127170   3.7208830  10.1701370
   3.8506540   3.9291850  10.9821310   3.9105280   2.9068180   9.8672040
   9.3131680   4.9417780  11.2998030   8.4625270   4.6423530  11.6207100
   9.1533470   5.1859790  10.3881850   6.4081390   6.4419530  13.3996820
   6.7334800   5.6083280  13.0599050   7.1961720   6.9648050  13.5475150
   2.2570790   6.8759460  12.9607570   2.1614390   5.9354190  12.8107970
   3.1002770   7.0974530  12.5655640   5.6534210   4.6200790   2.9241230
   6.0463780   4.9372990   2.1109920   6.0151060   3.7412670   3.0385750
   3.9626380   3.3708100  14.1838090   3.2724700   3.1780300  14.8184180
   4.7058680   3.6542740  14.7162390   6.2389350   7.2106540   7.0192010
   5.5070470   7.7193350   7.3682110   5.8413690   6.3936520   6.7180790
   2.6766740   3.8860740   5.4244500   2.6802800   3.4450690   4.5749040
   3.5717860   4.2078070   5.5316320   6.7015260   2.6640220   6.4314950
   6.7188000   3.1148870   7.2756800   6.4530840   1.7645860   6.6448390
   2.9774710   7.9462520   7.1709910   3.3444840   7.4721090   7.9171250
   2.7879770   8.8204090   7.5118250  10.0543850  10.1897510   5.8787360
  10.7742970  10.6852800   5.4883470   9.8525670   9.5115400   5.2341230
   5.4362650  10.2606570  11.7656360   5.3699960   9.3402240  11.5113950
   4.8067790  10.3582010  12.4801000   5.3679380  13.0827140  11.5160160
   5.3823920  12.1508100  11.2979070   4.6604480  13.1686900  12.1549930
  11.5790590   9.7234480  10.8628740  10.8538780  10.3163260  10.6658130
  12.1066050   9.7158020  10.0642110   7.1090180  11.4494650   4.3612590
   7.4614000  10.8522780   3.7013960   6.2252510  11.1238880   4.5320840
   3.1953460  12.2092340   1.7683000   3.8824590  12.7561550   2.1490590
   2.4085880  12.7533070   1.8032610   4.8013280  14.7244710   8.6100660
   5.4455500  14.9304090   9.2874080   5.1642720  13.9633110   8.1571510
   6.0745360  12.7277060   7.3278110   6.7167590  12.0270220   7.4410280
   6.5994710  13.5075500   7.1475000   7.8482980  13.5271960  10.5314170
   8.1839220  14.1138650  11.2092090   6.9283320  13.3964670  10.7611960
   3.6771560  13.5763290  13.7002230   3.3568430  12.8572530  14.2447920
   3.0029920  14.2518360  13.7738290   6.8925160   3.8089450   9.0639030
   7.2605980   2.9884660   9.3918600   6.0323360   3.8691340   9.4794680
   3.8527150   6.4629040   9.2877000   4.3512400   6.9374860   9.9528850
   3.9950100   5.5392560   9.4947030   6.2586650   1.7683000   2.7280260
   6.1354430   1.7869130   1.7789770   7.2071210   1.8161940   2.8478660
  11.0594010   2.6797000  10.1305390  10.5567610   3.4202400  10.4699200
  11.8750670   3.0681000   9.8142180   9.3516020   7.9230180   3.5766750
   8.4106160   7.9380410   3.7514440   9.6660090   7.1366140   4.0227050
  11.3541600  15.0939030   5.2521010  11.4789020  15.9170200   5.7244820
  12.2207160  14.8829760   4.9045160   6.6682040  12.4796180  14.0599130
   6.0620200  12.5027780  13.3194880   6.3636150  11.7479220  14.5966380
   8.0982410  16.2076470  12.6708540   9.0504160  16.1234490  12.6208780
   7.9510630  16.8718180  13.3442330   2.6053160  10.2660760  12.5895290
   1.8398830  10.8345760  12.5049960   2.7869120   9.9736970  11.6963520
   9.7476510  11.9966090  13.1470310  10.4885980  12.3341850  12.6437770
   8.9849190  12.1658150  12.5940080   8.4222170  10.0480920  11.6825520
   8.8363190  10.2026000  12.5315940   7.4873170  10.1736140  11.8451300
   8.8944340   7.3877080  13.6864670   9.4765110   6.6329400  13.5985150
   9.0706110   7.9184520  12.9096150   3.1837400  10.0001400   9.6521450
   3.6025510  10.8434130   9.4797690   2.2646030  10.1373440   9.4228230
   5.5201300   7.7317580  11.0359290   5.6397510   7.1358720  11.7754130
   6.3795300   7.7687270  10.6160590   7.8589200   8.2854770   9.6121800
   7.3324420   8.8097390   9.0086940   8.2020540   8.9182160  10.2431530
   2.2870070   4.2738930  12.2935110   2.8769760   3.9654780  12.9812930
   1.4690310   3.8018680  12.4495010   7.1063500   3.8904740  12.5268130
   6.4179020   3.2286280  12.4618120   7.8269520   3.4443010  12.9716590
   3.8907030  17.5405620  11.0265830   3.8165730  18.4440760  11.3338200
   2.9885870  17.2217520  10.9987900  11.4186710  15.2367800  11.3558390
  10.8188700  15.2960360  10.6122310  11.5480610  14.2972780  11.4855240
  13.1204590  10.5783200   4.0404230  13.4913420   9.7950520   3.6340200
  13.7606520  11.2672300   3.8621530  10.1038350  11.9619780   9.4534550
   9.2898190  12.3916940   9.7160340  10.5112550  12.5738190   8.8403600
  11.4528750   7.1007980  10.9803770  11.2214840   6.8720730  10.0801720
  11.7133300   8.0207530  10.9348660   9.8916820   2.3264410  13.7583470
  10.7687000   2.3347810  14.1417470   9.9037660   1.5895250  13.1475820
  11.3380090   6.1793950   4.6471490  11.8617570   5.6856600   4.0161660
  11.9239510   6.3144310   5.3919060  11.5169810   6.2633820   8.1691040
  10.5672520   6.2297360   8.2836030  11.6982820   7.1733930   7.9340810
  12.2567220   4.0728250   3.1201580  12.1466500   3.9184290   4.0583850
  13.0174810   3.5449190   2.8776990  10.1614400  16.7138380   2.9802820
  10.7573470  16.3922950   2.3037240  10.4192550  16.2410200   3.7716090
   1.7683000  14.7015880   8.7303170   1.5274360  14.9690440   7.8433690
   2.7085640  14.8721610   8.7854030  13.0287160  16.7210260   9.5313810
  12.5345440  17.1179130   8.8140940  12.4200450  16.0959470   9.9251090
  10.7126610  17.3633680   6.8100550  10.2529580  18.1149490   6.4358570
  10.0839070  16.6440150   6.7515350   3.8817830  16.5630410   6.8117660
   4.1695640  16.3084710   5.9350670   4.3941050  16.0107770   7.4023230
   2.9849060   2.7207360   2.9030200   2.1723570   2.3464250   2.5626080
   3.4890700   1.9652440   3.2051390   3.9490190  17.4846510  14.1785860
   4.8757500  17.2490780  14.2221820   3.9340620  18.3118510  13.6971890
  10.5167750  16.7116370  14.0026900  11.3093070  16.2165600  13.7952860
  10.8100900  17.3906510  14.6102510
  83.1046310  73.3960870  66.8216640  90.0000000  90.0000000  90.0000000
